Title
81356
    1CHL1    C3    1   0.137   0.709  10.271  0.1985 -0.1189  0.0176
    1CHL1    H3    2   0.075   0.617  10.282 -1.0771  0.3935 -2.1814
    1CHL1    O3    3   0.155   0.756  10.406  0.3066  0.2595  0.4495
    1CHL1   H3'    4   0.215   0.830  10.391 -0.1399  0.3530 -1.0195
    1CHL1    C4    5   0.272   0.678  10.201 -0.3738 -0.3296  0.1016
    1CHL1   H4A    6   0.331   0.772  10.194 -1.9022  0.8357  1.6664
    1CHL1   H4B    7   0.322   0.608  10.271 -1.5971 -1.0294  0.3112
    1CHL1    C5    8   0.253   0.631  10.057 -0.3067  0.0331 -0.0140
    1CHL1    C6    9   0.299   0.513  10.023 -0.2509  0.6087  0.4890
    1CHL1    H6   10   0.360   0.455  10.094  1.0288 -1.1125 -1.8749
    1CHL1    C7   11   0.289   0.454   9.887 -0.0376  0.2993  0.4869
    1CHL1   H7A   12   0.386   0.403   9.870 -1.1598 -2.2866  1.3040
    1CHL1   H7B   13   0.212   0.374   9.881 -0.6456  0.8030  1.3338
    1CHL1    C8   14   0.246   0.563   9.780  0.1754  0.2321 -0.3756
    1CHL1    H8   15   0.344   0.611   9.760  0.8047 -1.2012 -0.8856
    1CHL1   C14   16   0.190   0.494   9.655  0.1892 -0.3905  0.8877
    1CHL1   H14   17   0.090   0.457   9.685  0.7301 -1.0520  1.9416
    1CHL1   C15   18   0.267   0.378   9.594 -0.0753  0.4177  0.5823
    1CHL1  H15A   19   0.374   0.403   9.607 -0.1205  0.8914  0.0539
    1CHL1  H15B   20   0.253   0.285   9.653  1.2367  0.1001  0.4242
    1CHL1   C16   21   0.222   0.367   9.443  0.1551 -0.6480 -0.3791
    1CHL1  H16A   22   0.315   0.375   9.383  1.0005  0.9543  1.0332
    1CHL1  H16B   23   0.179   0.267   9.423  1.3453 -1.3572  0.5295
    1CHL1   C17   24   0.120   0.484   9.418  0.4076 -0.0748  0.2351
    1CHL1   H17   25   0.019   0.442   9.437  0.6697 -1.5119 -1.2844
    1CHL1   C13   26   0.162   0.583   9.531 -0.0157  0.1225 -0.1798
    1CHL1   C18   27   0.288   0.659   9.485  0.3197 -0.2186  0.5010
    1CHL1  H18A   28   0.262   0.741   9.414 -2.3323 -1.0646  0.3876
    1CHL1  H18B   29   0.332   0.704   9.576  1.3430  0.0871 -0.1237
    1CHL1  H18C   30   0.363   0.591   9.439  0.6084  1.4780 -1.7456
    1CHL1   C12   31   0.056   0.687   9.571 -0.7307  0.0858  0.1639
    1CHL1  H12A   32   0.030   0.751   9.484 -0.8236 -3.2773 -2.5181
    1CHL1  H12B   33  -0.032   0.620   9.583 -0.1655 -0.4618  1.4290
    1CHL1   C11   34   0.079   0.760   9.709 -0.2893  0.1107 -0.0989
    1CHL1  H11A   35   0.146   0.847   9.693 -1.3853  1.4863  2.2482
    1CHL1  H11B   36  -0.021   0.795   9.742 -0.3910 -0.0360 -0.2448
    1CHL1    C9   37   0.136   0.665   9.823  1.0207  0.0251  0.2869
    1CHL1    H9   38   0.050   0.598   9.843  1.8084 -1.2490 -0.4784
    1CHL1   C10   39   0.171   0.723   9.965  0.2742  0.8417  0.1978
    1CHL1   C19   40   0.250   0.858   9.935  0.0386 -0.1412  0.3925
    1CHL1  H19A   41   0.327   0.852   9.854  1.4663 -0.0958  1.6891
    1CHL1  H19B   42   0.176   0.934   9.904  0.1160 -0.1274  0.2387
    1CHL1  H19C   43   0.307   0.890  10.025  0.8141  1.1009 -0.5095
    1CHL1    C1   44   0.044   0.758  10.050 -0.5244  0.2536 -0.4550
    1CHL1   H1A   45  -0.021   0.826   9.992 -1.6305 -0.0376  0.4160
    1CHL1   H1B   46  -0.024   0.671  10.061  0.1959 -0.4879 -1.6417
    1CHL1    C2   47   0.059   0.807  10.194 -0.0214  0.8354  0.6093
    1CHL1   H2A   48  -0.042   0.814  10.238 -0.7406 -0.8749 -0.6285
    1CHL1   H2B   49   0.112   0.904  10.200  1.4866  0.1697 -1.0132
    1CHL1   C20   50   0.095   0.527   9.269 -0.8251  0.4311  0.2973
    1CHL1   H20   51   0.168   0.604   9.239 -2.5528  2.6825  1.4782
    1CHL1   C21   52  -0.053   0.577   9.254 -0.2680 -0.8255  0.1809
    1CHL1  H21A   53  -0.072   0.616   9.151  0.1461  0.0161  0.4111
    1CHL1  H21B   54  -0.078   0.654   9.330 -0.7574 -1.9253  1.1490
    1CHL1  H21C   55  -0.131   0.504   9.280 -0.7095 -0.9912 -1.4604
    1CHL1   C22   56   0.129   0.416   9.167 -0.6437 -0.2721  0.7456
    1CHL1  H22A   57   0.232   0.379   9.185  0.4327  2.1210 -0.0897
    1CHL1  H22B   58   0.067   0.327   9.193  1.1457 -1.8704 -0.2314
    1CHL1   C23   59   0.130   0.449   9.020 -0.3577 -0.2430  1.1541
    1CHL1  H23A   60   0.039   0.505   8.986  0.0486  0.4633  1.2093
    1CHL1  H23B   61   0.209   0.518   8.984 -0.5742 -1.0518 -1.0341
    1CHL1   C24   62   0.141   0.318   8.931  0.1989 -0.6169  0.0253
    1CHL1  H24A   63   0.227   0.259   8.969  0.1028 -0.1158  1.0577
    1CHL1  H24B   64   0.049   0.260   8.954 -1.3148  1.9039  0.7873
    1CHL1   C25   65   0.157   0.331   8.774  0.2481 -0.3734  0.3519
    1CHL1   H25   66   0.069   0.388   8.738  1.2142  1.9463  1.4561
    1CHL1   C26   67   0.280   0.410   8.723 -0.3394 -0.4060  0.2033
    1CHL1  H26A   68   0.290   0.402   8.613 -0.2993 -0.7737  0.2330
    1CHL1  H26B   69   0.266   0.519   8.742  0.5805  0.2291 -2.3955
    1CHL1  H26C   70   0.377   0.383   8.771 -0.0246  0.6086  0.1667
    1CHL1   C27   71   0.148   0.198   8.707  0.6715  0.2637  0.0867
    1CHL1  H27A   72   0.172   0.219   8.601  0.7381 -1.6965 -0.3326
    1CHL1  H27B   73   0.226   0.129   8.746  0.1955 -0.9433 -1.0332
    1CHL1  H27C   74   0.046   0.154   8.713  0.3256  1.1758  1.1181
    2CHL1    C3   75   0.185   2.759  10.048  0.8178 -0.3114 -0.2703
    2CHL1    H3   76   0.105   2.815  10.101  0.8673 -0.4454 -0.0528
    2CHL1    O3   77   0.268   2.695  10.143 -0.2284 -0.1256 -0.0157
    2CHL1   H3'   78   0.209   2.629  10.179  1.1891 -0.9297  0.9260
    2CHL1    C4   79   0.112   2.654   9.947 -0.1104  0.4627 -0.5397
    2CHL1   H4A   80   0.193   2.600   9.893  2.5791  3.0338  0.6078
    2CHL1   H4B   81   0.068   2.574  10.010  0.7967 -2.7529 -3.6839
    2CHL1    C5   82   0.026   2.721   9.850  0.8924 -0.8676  0.5014
    2CHL1    C6   83  -0.106   2.688   9.829  0.7632 -0.3899 -0.5558
    2CHL1    H6   84  -0.151   2.612   9.895 -2.5284  0.8228 -1.2129
    2CHL1    C7   85  -0.194   2.736   9.710  0.7637 -0.5724 -0.1467
    2CHL1   H7A   86  -0.245   2.648   9.666 -1.7520  0.2587  0.9124
    2CHL1   H7B   87  -0.281   2.800   9.736  1.6510  1.0817 -1.0681
    2CHL1    C8   88  -0.106   2.818   9.605 -1.0716 -0.1165  0.2289
    2CHL1    H8   89  -0.061   2.737   9.542  0.4084 -0.0485  1.1437
    2CHL1   C14   90  -0.198   2.905   9.523 -0.9373  0.7790 -0.3475
    2CHL1   H14   91  -0.232   2.971   9.606  2.3840  0.6742  1.2381
    2CHL1   C15   92  -0.330   2.847   9.457 -0.7084 -0.3289  0.2715
    2CHL1  H15A   93  -0.301   2.749   9.412  3.7719  0.5745  0.7461
    2CHL1  H15B   94  -0.406   2.837   9.537 -0.9434  0.1664  0.1100
    2CHL1   C16   95  -0.363   2.947   9.350  0.3561 -0.0495  0.3393
    2CHL1  H16A   96  -0.368   2.889   9.255  0.6000  0.4057  0.0503
    2CHL1  H16B   97  -0.466   2.985   9.368  1.4697  3.6944 -0.4389
    2CHL1   C17   98  -0.258   3.054   9.356  0.2568 -0.0507 -0.2873
    2CHL1   H17   99  -0.282   3.130   9.435  0.5241 -0.9965  0.7317
    2CHL1   C13  100  -0.130   2.986   9.415 -0.5263  0.3942 -0.3448
    2CHL1   C18  101  -0.072   2.907   9.297  0.1914 -0.1620  0.1974
    2CHL1  H18A  102  -0.155   2.860   9.239  0.9040 -0.4858 -0.5829
    2CHL1  H18B  103  -0.007   2.975   9.238 -0.5465  1.1154  0.8179
    2CHL1  H18C  104  -0.007   2.825   9.336  0.1285  0.3883  1.4987
    2CHL1   C12  105  -0.021   3.076   9.485 -0.4896  0.2447 -0.0868
    2CHL1  H12A  106   0.023   3.141   9.406  0.5559  0.2714  0.5066
    2CHL1  H12B  107  -0.079   3.141   9.555  1.6844 -0.3546  2.4349
    2CHL1   C11  108   0.085   2.988   9.562  0.8339 -0.1187  0.6730
    2CHL1  H11A  109   0.149   2.922   9.499 -0.5456 -0.9201  0.0557
    2CHL1  H11B  110   0.151   3.062   9.612  1.5765  0.3062 -0.8732
    2CHL1    C9  111   0.010   2.897   9.665 -0.4694 -0.8043  0.0690
    2CHL1    H9  112  -0.049   2.967   9.728  0.0486 -1.0806  0.8721
    2CHL1   C10  113   0.102   2.812   9.756 -0.1451  0.0460 -0.0849
    2CHL1   C19  114   0.205   2.748   9.666 -0.5703  0.5991  0.1136
    2CHL1  H19A  115   0.183   2.682   9.579  0.7494  0.0910  0.1426
    2CHL1  H19B  116   0.268   2.825   9.617 -2.8190  2.1711 -0.4720
    2CHL1  H19C  117   0.283   2.699   9.729 -0.9007  0.3353  0.3184
    2CHL1    C1  118   0.172   2.915   9.857 -0.1168  0.7299  0.1003
    2CHL1   H1A  119   0.242   2.970   9.791  2.0143 -1.4494  0.3982
    2CHL1   H1B  120   0.089   2.975   9.900 -2.8200 -2.0818 -0.7834
    2CHL1    C2  121   0.270   2.853   9.958 -0.0550 -0.5547  0.6620
    2CHL1   H2A  122   0.315   2.934  10.019  0.7502  0.3104 -0.9871
    2CHL1   H2B  123   0.348   2.795   9.903 -1.2302 -0.9762 -0.6330
    2CHL1   C20  124  -0.248   3.135   9.223 -0.1748 -0.3614  0.0291
    2CHL1   H20  125  -0.195   3.070   9.150  0.1428  1.1432 -1.1156
    2CHL1   C21  126  -0.175   3.262   9.242 -0.0578 -0.2079 -0.0732
    2CHL1  H21A  127  -0.065   3.252   9.252 -0.2238 -0.8362  1.5211
    2CHL1  H21B  128  -0.208   3.307   9.338 -2.5771 -0.7820 -0.6015
    2CHL1  H21C  129  -0.178   3.326   9.152  1.2282  0.8722  0.6127
    2CHL1   C22  130  -0.390   3.176   9.164  0.0339  0.4501  0.2802
    2CHL1  H22A  131  -0.467   3.095   9.171  1.8921 -1.4023  0.2955
    2CHL1  H22B  132  -0.428   3.261   9.225  0.1204 -0.7467  2.0638
    2CHL1   C23  133  -0.378   3.206   9.013  0.4495 -0.3519 -0.3624
    2CHL1  H23A  134  -0.329   3.304   8.994  2.2496 -0.8125  1.4155
    2CHL1  H23B  135  -0.318   3.124   8.969 -1.5655 -2.0618 -0.0925
    2CHL1   C24  136  -0.518   3.208   8.948 -0.5282 -0.1899  0.2776
    2CHL1  H24A  137  -0.590   3.127   8.972 -0.8882  0.9566  3.5955
    2CHL1  H24B  138  -0.590   3.290   8.965 -0.9820 -0.5346  0.0416
    2CHL1   C25  139  -0.508   3.214   8.793 -1.3175 -0.4122 -0.2489
    2CHL1   H25  140  -0.615   3.204   8.763 -1.3688  0.4944 -0.4166
    2CHL1   C26  141  -0.476   3.358   8.733  0.1260  0.2172  0.1278
    2CHL1  H26A  142  -0.384   3.388   8.788  1.0137 -2.5067  0.2726
    2CHL1  H26B  143  -0.469   3.349   8.622 -0.3961 -2.9734  0.2485
    2CHL1  H26C  144  -0.557   3.432   8.748  0.8151  1.3959 -1.6514
    2CHL1   C27  145  -0.420   3.105   8.723  0.1154  0.3869 -0.1305
    2CHL1  H27A  146  -0.452   3.104   8.616 -0.2916  0.6127 -0.0094
    2CHL1  H27B  147  -0.315   3.137   8.738 -0.3921  1.0267  2.5931
    2CHL1  H27C  148  -0.436   3.001   8.760  1.2672  0.7330  1.4596
    3CHL1    C3  149   1.924   1.014  10.242  0.2507 -0.0364 -0.1275
    3CHL1    H3  150   1.956   0.908  10.236  1.5157  0.3906 -1.6261
    3CHL1    O3  151   1.892   1.028  10.378 -0.1627  0.0343  0.4473
    3CHL1   H3'  152   1.913   1.116  10.411 -2.1928 -0.1739  2.4929
    3CHL1    C4  153   2.050   1.105  10.204  0.1340  0.4589 -0.0567
    3CHL1   H4A  154   2.030   1.209  10.237 -0.5691 -0.2522  1.8655
    3CHL1   H4B  155   2.128   1.067  10.273  0.5812 -2.1017 -1.8112
    3CHL1    C5  156   2.089   1.077  10.059  0.0122  0.1305 -0.6902
    3CHL1    C6  157   2.212   1.030  10.029 -0.0809 -0.4167  0.2867
    3CHL1    H6  158   2.288   1.028  10.109 -1.1474 -0.6299  1.3279
    3CHL1    C7  159   2.250   0.991   9.893 -0.9904  0.3424  0.2822
    3CHL1   H7A  160   2.359   0.996   9.869 -1.0818 -0.3588 -0.3219
    3CHL1   H7B  161   2.219   0.884   9.886  0.7484 -0.6070  4.2807
    3CHL1    C8  162   2.167   1.066   9.778 -0.4327  0.1661  0.4664
    3CHL1    H8  163   2.201   1.172   9.777 -2.0672  0.7119 -0.2488
    3CHL1   C14  164   2.186   0.992   9.651  0.3354 -0.6830 -0.0140
    3CHL1   H14  165   2.152   0.888   9.670  1.2291 -0.8640  0.6743
    3CHL1   C15  166   2.336   0.984   9.603  0.2842  0.2388  0.8158
    3CHL1  H15A  167   2.378   1.085   9.625  0.4603 -0.2228  2.7602
    3CHL1  H15B  168   2.392   0.901   9.650  0.4054 -0.1433  0.0203
    3CHL1   C16  169   2.319   0.948   9.449  0.6766  0.1443  0.0659
    3CHL1  H16A  170   2.381   1.013   9.384 -0.2648  0.9359 -0.0795
    3CHL1  H16B  171   2.356   0.844   9.440  0.5344 -0.2893  3.3352
    3CHL1   C17  172   2.165   0.958   9.417 -0.1102  0.1182  0.2463
    3CHL1   H17  173   2.120   0.857   9.422 -0.7418  0.3451 -0.5908
    3CHL1   C13  174   2.109   1.047   9.526 -0.0160  0.4238 -0.2296
    3CHL1   C18  175   2.145   1.202   9.501  0.2675  0.5682  0.1509
    3CHL1  H18A  176   2.116   1.260   9.591  0.0295 -0.9038  1.0641
    3CHL1  H18B  177   2.256   1.209   9.494  0.1933  0.1313 -3.3904
    3CHL1  H18C  178   2.094   1.248   9.413  0.2103  3.2264  1.4759
    3CHL1   C12  179   1.967   1.032   9.558 -0.6367  0.3032  0.4969
    3CHL1  H12A  180   1.907   1.083   9.480  0.0363 -0.5468 -0.6104
    3CHL1  H12B  181   1.943   0.923   9.562 -1.5321  0.3867 -1.4548
    3CHL1   C11  182   1.923   1.096   9.696  0.8321 -0.1799  0.5923
    3CHL1  H11A  183   1.923   1.206   9.678 -2.7133 -0.3604 -1.5840
    3CHL1  H11B  184   1.817   1.063   9.709  0.5816  1.0232  1.8121
    3CHL1    C9  185   2.012   1.041   9.806 -0.0531  0.7720 -0.0116
    3CHL1    H9  186   1.993   0.932   9.812 -0.1709  0.7659 -0.4972
    3CHL1   C10  187   1.977   1.097   9.954  0.3379 -0.2628 -0.7157
    3CHL1   C19  188   1.961   1.248   9.932  0.2303 -0.0668 -0.5457
    3CHL1  H19A  189   2.034   1.288   9.859  1.0064 -1.3405 -0.4786
    3CHL1  H19B  190   1.856   1.264   9.898 -0.7730 -3.2329  0.7202
    3CHL1  H19C  191   1.971   1.319  10.018  2.2727 -1.1909  0.2197
    3CHL1    C1  192   1.846   1.022   9.997  0.2676 -0.1384 -0.1283
    3CHL1   H1A  193   1.773   1.062   9.924  0.8683  0.4491 -0.4166
    3CHL1   H1B  194   1.870   0.916   9.974  1.3527  0.1272 -0.2634
    3CHL1    C2  195   1.807   1.037  10.150 -0.1515 -0.3909  0.2399
    3CHL1   H2A  196   1.717   0.979  10.178 -1.5167  0.6175 -1.8011
    3CHL1   H2B  197   1.773   1.140  10.174  1.0264 -0.5819  3.1095
    3CHL1   C20  198   2.153   0.986   9.265 -0.5551  0.5116  0.0181
    3CHL1   H20  199   2.211   1.075   9.232 -1.4289  0.7053 -1.0552
    3CHL1   C21  200   2.005   1.006   9.226 -0.3173 -0.5593 -0.4986
    3CHL1  H21A  201   1.941   0.926   9.268 -0.7116 -0.6701 -1.3065
    3CHL1  H21B  202   1.993   1.012   9.116 -1.9344  1.8901 -0.2633
    3CHL1  H21C  203   1.970   1.104   9.265 -2.6414 -0.7945 -1.8680
    3CHL1   C22  204   2.204   0.864   9.171  0.0730  0.1926 -0.2313
    3CHL1  H22A  205   2.285   0.810   9.225 -1.3994 -1.5566  0.3154
    3CHL1  H22B  206   2.131   0.784   9.147 -0.2716  0.0649  1.1339
    3CHL1   C23  207   2.270   0.924   9.040 -0.5227  0.0158  0.9240
    3CHL1  H23A  208   2.284   0.842   8.966  1.8752  1.5053 -0.4336
    3CHL1  H23B  209   2.203   0.997   8.988  0.8641 -0.5341 -1.8673
    3CHL1   C24  210   2.411   0.985   9.077  0.4496  0.6055 -0.1540
    3CHL1  H24A  211   2.410   1.087   9.121  0.7178  1.1271 -1.3059
    3CHL1  H24B  212   2.465   0.925   9.152  1.5729  0.5514 -0.9807
    3CHL1   C25  213   2.499   0.998   8.952 -0.3922 -0.2691  1.2449
    3CHL1   H25  214   2.588   1.055   8.986  0.6354 -1.6455  0.9934
    3CHL1   C26  215   2.542   0.858   8.896 -0.1968 -0.0069  0.3149
    3CHL1  H26A  216   2.462   0.792   8.855 -1.7422  2.8536 -1.6296
    3CHL1  H26B  217   2.626   0.871   8.824  1.9365 -0.2829  2.6318
    3CHL1  H26C  218   2.594   0.818   8.985  0.9878  2.8501  0.9924
    3CHL1   C27  219   2.437   1.075   8.832 -0.3033  0.5704 -0.2554
    3CHL1  H27A  220   2.380   1.163   8.869 -2.2941 -0.6655 -0.2243
    3CHL1  H27B  221   2.525   1.112   8.775  0.0109  2.3367  1.2777
    3CHL1  H27C  222   2.371   1.009   8.772 -2.1204 -0.2070  2.4516
    4CHL1    C3  223   5.609   5.635  10.442  1.0439  0.9318 -0.1544
    4CHL1    H3  224   5.542   5.719  10.414  1.3590  1.0977 -0.4320
    4CHL1    O3  225   5.609   5.611  10.580  0.1495 -0.2818  0.3422
    4CHL1   H3'  226   5.666   5.534  10.584  0.7081  0.0409 -0.8249
    4CHL1    C4  227   5.562   5.510  10.370  0.6682 -0.4690  0.8118
    4CHL1   H4A  228   5.607   5.416  10.409  0.3492 -0.6360  0.7831
    4CHL1   H4B  229   5.459   5.491  10.408  0.2460 -1.2901 -0.6675
    4CHL1    C5  230   5.569   5.513  10.218  0.3175  0.2809  0.3213
    4CHL1    C6  231   5.470   5.488  10.133 -0.1593 -0.7025  0.5909
    4CHL1    H6  232   5.376   5.441  10.167 -1.4733  0.1604 -1.6326
    4CHL1    C7  233   5.486   5.481   9.982  0.2529 -0.2198  0.1697
    4CHL1   H7A  234   5.434   5.396   9.933 -0.2398  0.0623  0.2014
    4CHL1   H7B  235   5.440   5.572   9.938  0.3254 -1.4874 -2.7240
    4CHL1    C8  236   5.632   5.480   9.944 -0.0561 -0.3321  0.2142
    4CHL1    H8  237   5.682   5.382   9.955  1.5276  0.3779 -0.4253
    4CHL1   C14  238   5.635   5.512   9.795 -0.5653 -0.4868 -0.2015
    4CHL1   H14  239   5.568   5.601   9.791 -1.6481 -1.3319 -2.8604
    4CHL1   C15  240   5.572   5.415   9.694  0.0408  0.3065 -0.4803
    4CHL1  H15A  241   5.601   5.310   9.714 -2.7816 -0.4331  0.1808
    4CHL1  H15B  242   5.461   5.420   9.690 -0.0360 -0.5052  0.4176
    4CHL1   C16  243   5.630   5.458   9.558  0.3678  0.1180 -0.1677
    4CHL1  H16A  244   5.659   5.378   9.487  0.8259 -0.2585  0.4282
    4CHL1  H16B  245   5.556   5.521   9.505 -1.1744 -0.6220  1.0105
    4CHL1   C17  246   5.749   5.549   9.593 -0.1180  0.2356 -0.3543
    4CHL1   H17  247   5.706   5.651   9.578  0.6629  0.3891 -1.7565
    4CHL1   C13  248   5.774   5.525   9.741 -0.3335 -0.4012  0.9265
    4CHL1   C18  249   5.863   5.404   9.760  0.5017  0.2369  0.0854
    4CHL1  H18A  250   5.882   5.370   9.864  0.0874 -1.5273 -0.3767
    4CHL1  H18B  251   5.819   5.312   9.715 -0.0474  0.5169  0.0372
    4CHL1  H18C  252   5.964   5.414   9.714  0.5137 -0.5152 -0.0675
    4CHL1   C12  253   5.839   5.645   9.823 -0.2230  0.4331 -0.1510
    4CHL1  H12A  254   5.938   5.675   9.782  0.4655 -0.8617  0.4690
    4CHL1  H12B  255   5.777   5.736   9.811  1.4271  1.5279 -0.7356
    4CHL1   C11  256   5.848   5.619   9.968 -0.8435  0.2337 -0.4067
    4CHL1  H11A  257   5.930   5.545   9.984 -0.7812  0.1519 -1.0894
    4CHL1  H11B  258   5.883   5.708  10.025 -1.5216 -0.0490  0.4737
    4CHL1    C9  259   5.708   5.584  10.028  0.1108  0.1747  0.0122
    4CHL1    H9  260   5.649   5.678  10.016  0.6528  0.5247  0.0567
    4CHL1   C10  261   5.711   5.555  10.175  0.3129  0.8458 -0.2267
    4CHL1   C19  262   5.812   5.434  10.194 -1.1891  0.1374 -0.6506
    4CHL1  H19A  263   5.803   5.396  10.298 -0.9368  3.8320  0.9138
    4CHL1  H19B  264   5.803   5.351  10.121 -1.7773 -0.7346  0.3965
    4CHL1  H19C  265   5.920   5.461  10.194 -0.4299 -2.4520  1.9242
    4CHL1    C1  266   5.758   5.684  10.252 -0.1713  0.2656  0.3479
    4CHL1   H1A  267   5.863   5.713  10.228 -0.6887  1.0938 -1.0266
    4CHL1   H1B  268   5.693   5.770  10.225  0.1499  0.5424  0.4398
    4CHL1    C2  269   5.756   5.663  10.402  0.7695  0.5919 -0.0136
    4CHL1   H2A  270   5.794   5.756  10.449  1.5993 -0.6152  1.8027
    4CHL1   H2B  271   5.814   5.576  10.439  1.3037 -0.4897 -3.0856
    4CHL1   C20  272   5.867   5.532   9.490  0.3376 -0.5305 -0.0739
    4CHL1   H20  273   5.896   5.424   9.493 -1.0479 -0.9280 -0.5458
    4CHL1   C21  274   5.989   5.619   9.521  0.0400 -0.3716  0.3632
    4CHL1  H21A  275   6.034   5.588   9.618 -1.2285  0.7845  1.3643
    4CHL1  H21B  276   5.952   5.723   9.532  2.4864  0.7939 -1.3716
    4CHL1  H21C  277   6.056   5.620   9.432 -1.0279  0.2918 -0.4576
    4CHL1   C22  278   5.822   5.563   9.346  0.0419  0.3693  0.4319
    4CHL1  H22A  279   5.723   5.517   9.322 -0.1255  2.0982 -2.7303
    4CHL1  H22B  280   5.812   5.672   9.327  2.5042  0.3404 -1.6255
    4CHL1   C23  281   5.909   5.515   9.229 -0.9524  0.3884 -0.7020
    4CHL1  H23A  282   6.011   5.550   9.256 -0.9615 -1.3806  2.1020
    4CHL1  H23B  283   5.916   5.405   9.229 -0.8942  0.3892 -0.2251
    4CHL1   C24  284   5.856   5.587   9.101  0.0207 -0.0358  0.3980
    4CHL1  H24A  285   5.748   5.565   9.103 -0.8391  3.5991  0.8740
    4CHL1  H24B  286   5.857   5.698   9.103  1.8055  0.0014 -0.1359
    4CHL1   C25  287   5.930   5.552   8.965  0.5976 -0.0466  0.2494
    4CHL1   H25  288   5.957   5.446   8.981  0.4276 -0.3334 -1.2478
    4CHL1   C26  289   5.850   5.559   8.838  0.6828 -0.3862  0.2837
    4CHL1  H26A  290   5.767   5.486   8.827  0.5715 -0.4228  1.3114
    4CHL1  H26B  291   5.810   5.662   8.849 -0.1352 -0.8692  2.2086
    4CHL1  H26C  292   5.909   5.556   8.743 -3.2350 -0.2595 -2.4098
    4CHL1   C27  293   6.058   5.631   8.934 -0.8723  0.6419 -0.0313
    4CHL1  H27A  294   6.137   5.594   9.002 -0.1222 -2.6854 -2.4343
    4CHL1  H27B  295   6.093   5.620   8.829 -2.0118 -0.3324 -0.3412
    4CHL1  H27C  296   6.041   5.739   8.949 -2.4641  0.1506  2.1796
    5CHL1    C3  297   2.735   0.383  10.345  0.0076 -0.4913  0.2241
    5CHL1    H3  298   2.830   0.404  10.292 -0.2469 -0.9988 -0.4438
    5CHL1    O3  299   2.759   0.369  10.486  0.8665 -0.6060  0.1281
    5CHL1   H3'  300   2.676   0.331  10.516  0.3197 -0.3096 -0.9302
    5CHL1    C4  301   2.630   0.490  10.320  0.5031  0.0453 -0.1378
    5CHL1   H4A  302   2.534   0.480  10.375  1.0835 -0.4636  0.7897
    5CHL1   H4B  303   2.662   0.584  10.369 -0.2345 -0.5198  1.4871
    5CHL1    C5  304   2.598   0.507  10.176  0.5283 -0.3849 -0.2882
    5CHL1    C6  305   2.619   0.612  10.104 -0.1996  0.8183 -0.1725
    5CHL1    H6  306   2.647   0.707  10.151 -0.3047  0.8836 -0.2423
    5CHL1    C7  307   2.573   0.627   9.955 -0.5844 -0.0983 -0.5045
    5CHL1   H7A  308   2.546   0.733   9.938 -1.1055  0.5514  3.3420
    5CHL1   H7B  309   2.668   0.611   9.901  0.3700 -3.4267  1.8364
    5CHL1    C8  310   2.471   0.521   9.902  0.2583 -0.2839  0.4935
    5CHL1    H8  311   2.370   0.547   9.939  0.5116  0.1085  0.9115
    5CHL1   C14  312   2.468   0.513   9.749 -0.6216  0.4347  0.2401
    5CHL1   H14  313   2.574   0.498   9.720 -0.4688  1.7242  0.0388
    5CHL1   C15  314   2.426   0.640   9.672  0.0407 -0.5670  0.0327
    5CHL1  H15A  315   2.322   0.669   9.701 -1.1326 -1.6688 -2.7891
    5CHL1  H15B  316   2.499   0.721   9.695  0.2228 -1.0537  1.2744
    5CHL1   C16  317   2.409   0.591   9.530  0.4323 -0.2347 -0.1155
    5CHL1  H16A  318   2.318   0.644   9.496  0.5365 -0.0986 -0.1841
    5CHL1  H16B  319   2.494   0.627   9.467 -0.0573  2.3941  0.5887
    5CHL1   C17  320   2.401   0.434   9.536  0.6365 -0.5101  0.4931
    5CHL1   H17  321   2.499   0.388   9.514  1.0947 -0.5359  2.3926
    5CHL1   C13  322   2.379   0.405   9.688 -0.4452  0.1557 -0.1389
    5CHL1   C18  323   2.228   0.411   9.736  0.0281  0.2977  0.2803
    5CHL1  H18A  324   2.214   0.404   9.846 -0.3562  1.3607  0.3123
    5CHL1  H18B  325   2.167   0.500   9.707  0.6249  1.2045  1.7141
    5CHL1  H18C  326   2.170   0.323   9.700  0.6534 -0.4698  1.1147
    5CHL1   C12  327   2.442   0.279   9.745  0.8207  0.0059  0.1022
    5CHL1  H12A  328   2.393   0.188   9.706  0.2129  0.3230  0.1242
    5CHL1  H12B  329   2.547   0.257   9.716  0.6321 -2.9871  1.3760
    5CHL1   C11  330   2.439   0.271   9.902  0.6985 -0.5707  0.0804
    5CHL1  H11A  331   2.334   0.279   9.938  0.2855 -1.0365 -0.9885
    5CHL1  H11B  332   2.472   0.173   9.943 -2.0568 -0.2910  3.4946
    5CHL1    C9  333   2.521   0.386   9.964 -0.1025  0.3463  0.3217
    5CHL1    H9  334   2.619   0.378   9.912 -0.2211  2.1901 -0.2712
    5CHL1   C10  335   2.546   0.375  10.118 -0.1045  0.4228  0.6306
    5CHL1   C19  336   2.409   0.346  10.189  0.1657  0.0163 -0.6331
    5CHL1  H19A  337   2.382   0.242  10.163  3.9190 -0.8548 -1.6704
    5CHL1  H19B  338   2.410   0.339  10.300  0.6432 -0.6128 -0.6710
    5CHL1  H19C  339   2.328   0.419  10.169 -0.2181 -0.4931 -0.9343
    5CHL1    C1  340   2.637   0.256  10.147  0.2054 -0.3924 -0.5774
    5CHL1   H1A  341   2.591   0.165  10.103  2.2095 -1.6269 -0.2531
    5CHL1   H1B  342   2.740   0.273  10.107  1.0110  1.2176  1.9305
    5CHL1    C2  343   2.676   0.253  10.299 -0.1134 -0.3056  0.4545
    5CHL1   H2A  344   2.744   0.168  10.319 -0.0756 -0.2305  0.6431
    5CHL1   H2B  345   2.586   0.225  10.358 -1.1138 -1.4076 -1.4904
    5CHL1   C20  346   2.297   0.379   9.439  0.4096 -0.6615  0.2853
    5CHL1   H20  347   2.196   0.395   9.483 -0.3942  0.0301 -1.7024
    5CHL1   C21  348   2.306   0.230   9.423  0.2913  0.3718  0.1778
    5CHL1  H21A  349   2.238   0.204   9.339  1.8538  0.7425 -1.2417
    5CHL1  H21B  350   2.273   0.178   9.515  0.2712  1.9793  1.1203
    5CHL1  H21C  351   2.411   0.201   9.403 -0.4952 -2.0392 -0.8653
    5CHL1   C22  352   2.293   0.455   9.301  0.5957 -0.4942 -0.3912
    5CHL1  H22A  353   2.208   0.404   9.250 -1.9226  1.2043  1.8130
    5CHL1  H22B  354   2.254   0.559   9.307  0.0582 -0.7568  2.7416
    5CHL1   C23  355   2.408   0.439   9.201 -0.6370 -0.4856  0.0808
    5CHL1  H23A  356   2.493   0.486   9.256  0.0434 -1.4422 -0.1160
    5CHL1  H23B  357   2.408   0.331   9.176  0.1742 -0.3968 -0.3162
    5CHL1   C24  358   2.394   0.519   9.066  0.1071  0.4070  0.2347
    5CHL1  H24A  359   2.329   0.602   9.102 -0.5219  0.5235 -1.1011
    5CHL1  H24B  360   2.485   0.564   9.022 -0.8473  1.2085 -0.9751
    5CHL1   C25  361   2.316   0.440   8.962 -0.2346  0.7916 -0.8349
    5CHL1   H25  362   2.228   0.392   9.010  0.5528 -0.0806 -0.2341
    5CHL1   C26  363   2.257   0.538   8.859  0.3995 -0.0120 -0.3247
    5CHL1  H26A  364   2.211   0.632   8.896 -1.4766 -1.0573  0.1805
    5CHL1  H26B  365   2.331   0.558   8.779  2.4060 -0.0302  1.4245
    5CHL1  H26C  366   2.177   0.482   8.806  0.5956  0.7271 -1.4132
    5CHL1   C27  367   2.402   0.332   8.897 -0.0384 -0.8264 -0.4280
    5CHL1  H27A  368   2.481   0.378   8.834 -0.1344 -0.5771 -0.3677
    5CHL1  H27B  369   2.468   0.276   8.967  1.0467  0.7787 -0.1255
    5CHL1  H27C  370   2.340   0.263   8.835  1.2015 -1.6662 -0.7751
    6CHL1    C3  371   5.138   1.473  10.165 -0.0863 -0.1010 -0.2714
    6CHL1    H3  372   5.121   1.370  10.127  0.8418 -1.3741  2.5504
    6CHL1    O3  373   5.137   1.454  10.306 -0.3682  0.1396 -0.7215
    6CHL1   H3'  374   5.140   1.542  10.344 -2.6699  0.7004 -1.6821
    6CHL1    C4  375   5.277   1.524  10.129 -0.5449 -0.1748  0.4549
    6CHL1   H4A  376   5.294   1.615  10.190 -0.4232 -0.0856  0.2872
    6CHL1   H4B  377   5.356   1.455  10.166  0.0714  0.6007  0.6056
    6CHL1    C5  378   5.299   1.548   9.985  0.1225  0.4005 -0.3031
    6CHL1    C6  379   5.397   1.487   9.917  0.0969  0.3273  0.7222
    6CHL1    H6  380   5.460   1.411   9.965  2.2942  0.7885 -1.2928
    6CHL1    C7  381   5.422   1.501   9.761  0.4787  0.3446 -0.1917
    6CHL1   H7A  382   5.533   1.506   9.755  0.5551 -0.5088  0.3531
    6CHL1   H7B  383   5.375   1.419   9.702 -1.5304  0.0911  1.6562
    6CHL1    C8  384   5.355   1.627   9.712  1.1905 -0.6237  0.1320
    6CHL1    H8  385   5.403   1.719   9.750 -1.4827  0.9748 -0.1209
    6CHL1   C14  386   5.340   1.623   9.562 -0.3830 -0.1269  0.8539
    6CHL1   H14  387   5.264   1.542   9.564  0.6310 -1.0984  1.1612
    6CHL1   C15  388   5.462   1.574   9.478 -0.0600  0.0571  0.6252
    6CHL1  H15A  389   5.554   1.633   9.502 -0.7138  0.8538  1.2463
    6CHL1  H15B  390   5.482   1.467   9.499  1.7356  0.1536 -0.4082
    6CHL1   C16  391   5.422   1.613   9.335  0.4971 -0.0335  0.2146
    6CHL1  H16A  392   5.494   1.686   9.291  2.4596 -0.8676  1.8728
    6CHL1  H16B  393   5.409   1.531   9.261  1.4659 -0.4386  0.4692
    6CHL1   C17  394   5.289   1.689   9.345  0.9421 -0.2624 -0.3526
    6CHL1   H17  395   5.216   1.607   9.327 -1.5175  2.2318 -2.6046
    6CHL1   C13  396   5.270   1.740   9.488 -0.1787 -0.4405  0.1028
    6CHL1   C18  397   5.356   1.868   9.501 -0.5011  0.4604  0.1754
    6CHL1  H18A  398   5.377   1.891   9.607 -1.3848  2.7648 -0.0933
    6CHL1  H18B  399   5.456   1.858   9.454  0.2362 -0.7819  1.9052
    6CHL1  H18C  400   5.304   1.956   9.458  0.1438  0.2798 -1.0131
    6CHL1   C12  401   5.131   1.750   9.543 -0.0591  0.1261  0.3342
    6CHL1  H12A  402   5.074   1.838   9.507  2.3923  1.9204  0.6138
    6CHL1  H12B  403   5.067   1.663   9.516 -2.0231  1.5630  0.1517
    6CHL1   C11  404   5.131   1.757   9.698  0.3869 -0.8808 -0.8722
    6CHL1  H11A  405   5.168   1.859   9.720 -1.0113 -0.6971  0.9416
    6CHL1  H11B  406   5.024   1.753   9.729  0.5470  4.2122  1.2238
    6CHL1    C9  407   5.206   1.639   9.764 -0.5318  0.7383  0.4253
    6CHL1    H9  408   5.145   1.548   9.743 -0.6049  0.4621  1.7308
    6CHL1   C10  409   5.197   1.642   9.921 -0.0502 -1.1157 -0.1193
    6CHL1   C19  410   5.218   1.789   9.969  0.2883 -0.3673 -0.4975
    6CHL1  H19A  411   5.204   1.804  10.078 -1.4558  0.3837 -0.7917
    6CHL1  H19B  412   5.320   1.831   9.955 -0.0971  0.5895 -0.5336
    6CHL1  H19C  413   5.138   1.854   9.928  0.4173 -0.8465 -1.5426
    6CHL1    C1  414   5.054   1.599   9.965  0.3742  0.7665 -0.6120
    6CHL1   H1A  415   4.983   1.683   9.949 -1.1002  0.0849  1.8362
    6CHL1   H1B  416   5.008   1.511   9.915  0.5280 -1.0786  2.2332
    6CHL1    C2  417   5.032   1.571  10.118  0.5149 -0.0007  0.0736
    6CHL1   H2A  418   4.932   1.532  10.147  0.0195  1.8414  1.0773
    6CHL1   H2B  419   5.039   1.665  10.177  0.3750 -1.1278  1.9747
    6CHL1   C20  420   5.261   1.775   9.226 -0.0761 -0.0467 -0.0360
    6CHL1   H20  421   5.332   1.860   9.241 -0.6203  0.0366  2.5111
    6CHL1   C21  422   5.126   1.839   9.236 -0.3047  0.7446 -0.2413
    6CHL1  H21A  423   5.118   1.911   9.320  0.3283  0.0345  0.4405
    6CHL1  H21B  424   5.044   1.764   9.247  1.3589 -0.8615  2.2627
    6CHL1  H21C  425   5.105   1.898   9.144 -0.3952  2.2695  0.7396
    6CHL1   C22  426   5.291   1.708   9.083 -0.0506  0.2212 -0.5915
    6CHL1  H22A  427   5.292   1.790   9.007 -0.8626  0.2775 -0.5519
    6CHL1  H22B  428   5.384   1.648   9.088 -1.1100 -1.6900 -2.4875
    6CHL1   C23  429   5.174   1.626   9.025  0.1323 -0.4490 -0.0396
    6CHL1  H23A  430   5.142   1.546   9.094  2.3878  0.0230  1.6689
    6CHL1  H23B  431   5.093   1.701   9.011  0.4373  0.1710  1.3652
    6CHL1   C24  432   5.215   1.551   8.894 -0.0771  0.1079  0.2749
    6CHL1  H24A  433   5.248   1.622   8.815  0.2193  1.9030  1.9476
    6CHL1  H24B  434   5.298   1.485   8.928  1.1549  2.0775  1.2448
    6CHL1   C25  435   5.107   1.455   8.831  0.3987 -0.2875 -0.4741
    6CHL1   H25  436   5.082   1.369   8.898  2.4332 -1.9786 -1.7347
    6CHL1   C26  437   4.980   1.543   8.807  0.4841 -0.0402  0.2629
    6CHL1  H26A  438   4.929   1.569   8.902  0.8910  1.5962  0.0772
    6CHL1  H26B  439   5.001   1.632   8.744 -1.3284  0.1729 -0.0833
    6CHL1  H26C  440   4.900   1.485   8.758  0.1820  0.0045  0.6942
    6CHL1   C27  441   5.152   1.401   8.697 -0.5020  0.5016 -0.0228
    6CHL1  H27A  442   5.069   1.360   8.636 -0.3057 -0.3021  0.2357
    6CHL1  H27B  443   5.197   1.490   8.648 -2.1046  1.4551  0.1848
    6CHL1  H27C  444   5.225   1.318   8.709 -0.8241  0.0984 -0.8139
    7CHL1    C3  445   0.068   2.078  10.434  0.0693 -0.0109  0.4746
    7CHL1    H3  446   0.084   2.187  10.447 -1.7991  0.1666  1.6034
    7CHL1    O3  447   0.043   2.017  10.560  0.5773  0.1167  0.0445
    7CHL1   H3'  448  -0.029   2.074  10.590 -0.4697 -0.1970 -1.7505
    7CHL1    C4  449  -0.051   2.039  10.343  0.1094  0.0210  0.0241
    7CHL1   H4A  450  -0.050   1.930  10.319 -2.8862  0.0648 -0.5906
    7CHL1   H4B  451  -0.146   2.050  10.398 -0.3503  0.9886 -0.9297
    7CHL1    C5  452  -0.045   2.106  10.206  0.9710 -0.2176  0.3032
    7CHL1    C6  453  -0.145   2.192  10.160 -0.1610  1.1995 -0.2891
    7CHL1    H6  454  -0.239   2.204  10.216  0.6347  0.9355  1.1634
    7CHL1    C7  455  -0.142   2.263  10.029 -0.3875  0.3418  0.5633
    7CHL1   H7A  456  -0.241   2.249   9.982 -0.2177 -1.2435  0.6403
    7CHL1   H7B  457  -0.123   2.373  10.035 -0.8069  0.3945  1.0164
    7CHL1    C8  458  -0.029   2.192   9.938  0.0921  0.3756 -0.4726
    7CHL1    H8  459  -0.058   2.091   9.904  0.4343 -0.0216  0.3973
    7CHL1   C14  460   0.002   2.298   9.829  0.4103  0.6394  0.0112
    7CHL1   H14  461   0.031   2.389   9.885 -2.2719  0.1154  2.4887
    7CHL1   C15  462  -0.117   2.349   9.747  0.3227  1.0249 -0.1260
    7CHL1  H15A  463  -0.184   2.270   9.706  0.3731  0.2140  1.2675
    7CHL1  H15B  464  -0.178   2.432   9.788 -2.7145 -0.8595 -0.4801
    7CHL1   C16  465  -0.045   2.405   9.625  0.0844  0.6871  0.3642
    7CHL1  H16A  466  -0.086   2.354   9.535 -0.0271  3.0831 -1.0343
    7CHL1  H16B  467  -0.046   2.516   9.616  0.0440  0.9886  3.1986
    7CHL1   C17  468   0.110   2.374   9.636  0.3035  0.0047  0.6431
    7CHL1   H17  469   0.157   2.465   9.677  1.6627  0.8741 -2.4930
    7CHL1   C13  470   0.116   2.265   9.734 -0.1812  0.4640  0.4497
    7CHL1   C18  471   0.092   2.129   9.663  0.4571 -0.0978  0.4374
    7CHL1  H18A  472   0.004   2.143   9.598 -0.0566 -0.4945  1.0324
    7CHL1  H18B  473   0.181   2.099   9.603 -0.5679  0.7365 -1.5781
    7CHL1  H18C  474   0.061   2.051   9.736  0.5601  0.6215  1.2683
    7CHL1   C12  475   0.244   2.249   9.819  0.3428 -0.3411 -0.6866
    7CHL1  H12A  476   0.326   2.232   9.745  0.9077  1.5901 -0.5481
    7CHL1  H12B  477   0.258   2.348   9.868  3.0449 -0.5757 -0.8342
    7CHL1   C11  478   0.232   2.138   9.920  0.4011 -0.1463 -0.6890
    7CHL1  H11A  479   0.227   2.039   9.869 -0.9302 -0.1851 -0.5108
    7CHL1  H11B  480   0.312   2.140   9.996 -0.6808  0.7720  0.4666
    7CHL1    C9  481   0.104   2.173  10.016 -0.1398 -0.5801 -0.0350
    7CHL1    H9  482   0.125   2.276  10.051 -1.8818  0.8746 -2.8918
    7CHL1   C10  483   0.088   2.074  10.136 -0.9940  0.6486 -0.0595
    7CHL1   C19  484   0.089   1.932  10.073 -0.2043 -0.2408  0.1172
    7CHL1  H19A  485   0.080   1.854  10.151 -0.9213  1.2720  1.6003
    7CHL1  H19B  486   0.008   1.926   9.997 -0.0245  2.4626 -0.3963
    7CHL1  H19C  487   0.190   1.919  10.029 -0.6400 -2.6024 -0.3337
    7CHL1    C1  488   0.213   2.083  10.227  0.0537  0.1962  0.2851
    7CHL1   H1A  489   0.304   2.031  10.190 -0.2761  0.1799 -0.5276
    7CHL1   H1B  490   0.232   2.191  10.242  0.8611  0.4817 -2.3285
    7CHL1    C2  491   0.194   2.020  10.364  0.3569  0.3546 -0.6721
    7CHL1   H2A  492   0.286   2.033  10.425  1.1450 -1.1395 -1.4619
    7CHL1   H2B  493   0.195   1.909  10.366  0.0747  0.3343  1.9259
    7CHL1   C20  494   0.183   2.359   9.497 -0.2982 -0.2296 -0.3304
    7CHL1   H20  495   0.171   2.250   9.478  3.0352 -0.5510 -1.2267
    7CHL1   C21  496   0.332   2.390   9.513 -0.3909 -0.2622 -0.0696
    7CHL1  H21A  497   0.382   2.348   9.424  0.3045 -0.3430  0.3515
    7CHL1  H21B  498   0.378   2.340   9.601 -2.9505 -0.4157  1.3029
    7CHL1  H21C  499   0.356   2.498   9.507  2.6236 -0.8789 -0.7210
    7CHL1   C22  500   0.120   2.431   9.373 -0.1321 -0.0250 -0.0158
    7CHL1  H22A  501   0.022   2.379   9.363 -1.5047  1.8598  2.5009
    7CHL1  H22B  502   0.109   2.538   9.403  0.5971 -0.3733  1.5844
    7CHL1   C23  503   0.193   2.423   9.233 -0.0888  0.1599 -0.2391
    7CHL1  H23A  504   0.118   2.476   9.171 -0.4847  0.5951  0.6001
    7CHL1  H23B  505   0.284   2.488   9.233  0.1854 -0.2074 -0.9952
    7CHL1   C24  506   0.222   2.285   9.178  0.0980  0.7216  0.5618
    7CHL1  H24A  507   0.301   2.232   9.235  0.6286  0.3020 -0.5336
    7CHL1  H24B  508   0.130   2.224   9.181  1.2202 -1.0996 -0.5891
    7CHL1   C25  509   0.265   2.272   9.027  0.5021  0.3975 -0.3729
    7CHL1   H25  510   0.284   2.167   8.996  2.1465  1.1268 -1.9794
    7CHL1   C26  511   0.152   2.341   8.939 -0.0244  0.2994  0.0055
    7CHL1  H26A  512   0.056   2.302   8.978  0.3785 -0.5118  0.2298
    7CHL1  H26B  513   0.153   2.450   8.960 -1.7185  0.5454 -1.0198
    7CHL1  H26C  514   0.170   2.322   8.831  0.5537 -0.3032  0.1990
    7CHL1   C27  515   0.400   2.335   8.992  0.1059 -0.7466 -0.5093
    7CHL1  H27A  516   0.427   2.295   8.892 -1.3502 -1.3497 -0.6961
    7CHL1  H27B  517   0.394   2.445   8.984  3.3673 -0.4290  0.2814
    7CHL1  H27C  518   0.469   2.305   9.074 -1.5183  0.4211  1.3542
    8CHL1    C3  519   1.076   4.148  10.260 -0.7803  0.0504  0.6995
    8CHL1    H3  520   1.092   4.039  10.269 -0.3805  0.0285 -0.1690
    8CHL1    O3  521   1.088   4.192  10.395  0.1857  0.1690  0.8324
    8CHL1   H3'  522   1.064   4.285  10.394 -0.5858 -0.0182  0.8678
    8CHL1    C4  523   1.184   4.215  10.176  0.4590  0.4779 -0.4053
    8CHL1   H4A  524   1.179   4.326  10.189 -1.5107  0.4479 -0.5820
    8CHL1   H4B  525   1.278   4.184  10.225 -0.9558  0.1240  2.2843
    8CHL1    C5  526   1.178   4.171  10.033  0.2086 -0.4064  0.0152
    8CHL1    C6  527   1.284   4.112   9.972  0.7679 -0.1414  0.0643
    8CHL1    H6  528   1.369   4.110  10.042  0.6000 -1.8512  0.2656
    8CHL1    C7  529   1.293   4.063   9.830 -0.6467 -0.2904  0.5440
    8CHL1   H7A  530   1.390   4.090   9.784 -1.5634  0.2001 -1.1935
    8CHL1   H7B  531   1.286   3.953   9.824  0.9635 -0.3449 -0.7315
    8CHL1    C8  532   1.182   4.136   9.751 -0.1522 -0.5892  0.6169
    8CHL1    H8  533   1.210   4.241   9.728 -1.5280  0.1689  2.1950
    8CHL1   C14  534   1.169   4.059   9.614 -0.3384 -0.5326 -0.0811
    8CHL1   H14  535   1.144   3.953   9.636  0.8760 -0.5403  1.4278
    8CHL1   C15  536   1.291   4.072   9.512  0.7197 -0.2953  0.0971
    8CHL1  H15A  537   1.332   4.176   9.511  0.9211 -0.3121  2.1489
    8CHL1  H15B  538   1.369   4.004   9.551 -2.4396 -2.7497  2.6212
    8CHL1   C16  539   1.231   4.015   9.384  0.4110 -0.0151 -0.2153
    8CHL1  H16A  540   1.276   4.075   9.301  0.1472 -0.5589 -0.7612
    8CHL1  H16B  541   1.270   3.913   9.367  2.9081  1.0326 -1.2345
    8CHL1   C17  542   1.078   4.013   9.392 -0.6607  0.7677 -0.0722
    8CHL1   H17  543   1.044   3.911   9.424  0.9669  0.7212  1.7141
    8CHL1   C13  544   1.057   4.104   9.521 -0.6215 -0.1941 -0.0739
    8CHL1   C18  545   1.078   4.246   9.473  0.0778  0.1699 -0.1130
    8CHL1  H18A  546   0.996   4.268   9.402  0.1402 -0.6932 -0.4662
    8CHL1  H18B  547   1.074   4.321   9.555 -0.9489  0.1430 -0.1314
    8CHL1  H18C  548   1.176   4.276   9.429 -0.2715  2.7970  0.7251
    8CHL1   C12  549   0.927   4.096   9.593 -0.4753 -0.4951  0.1563
    8CHL1  H12A  550   0.841   4.122   9.528 -1.5342 -3.2125  0.3429
    8CHL1  H12B  551   0.906   3.989   9.614 -2.0819 -0.3798 -0.7483
    8CHL1   C11  552   0.920   4.169   9.729  0.0507 -0.5496  0.5449
    8CHL1  H11A  553   0.923   4.278   9.708 -0.7996 -0.6395 -0.0756
    8CHL1  H11B  554   0.829   4.144   9.788 -0.4602  3.6646  1.9224
    8CHL1    C9  555   1.042   4.130   9.816 -0.5068  0.3885 -0.2451
    8CHL1    H9  556   1.020   4.022   9.836 -1.5840  0.7475  0.6296
    8CHL1   C10  557   1.040   4.192   9.961  0.5055  0.6025 -0.2928
    8CHL1   C19  558   1.016   4.342   9.944  0.2143 -0.3880 -0.2112
    8CHL1  H19A  559   1.020   4.403  10.037  1.6974 -0.6392 -0.0897
    8CHL1  H19B  560   1.094   4.381   9.876  0.3986 -1.6714 -0.7739
    8CHL1  H19C  561   0.922   4.377   9.895 -0.5163  0.3118  1.5980
    8CHL1    C1  562   0.922   4.129  10.052  0.1057  0.6410  0.1949
    8CHL1   H1A  563   0.820   4.155  10.017 -0.6075 -3.2048 -1.0592
    8CHL1   H1B  564   0.931   4.019  10.040 -0.3569  0.6375 -0.1483
    8CHL1    C2  565   0.938   4.178  10.196  0.1236 -0.7753 -0.3302
    8CHL1   H2A  566   0.848   4.146  10.253 -1.3486  1.6937 -1.1036
    8CHL1   H2B  567   0.932   4.289  10.193 -1.5158 -0.8576 -1.1165
    8CHL1   C20  568   0.995   4.041   9.265  0.0634  0.1204  0.0169
    8CHL1   H20  569   0.991   4.150   9.241 -1.0216 -0.0006 -0.4065
    8CHL1   C21  570   0.857   3.990   9.276 -0.8310 -0.7919 -0.0013
    8CHL1  H21A  571   0.799   3.994   9.181  1.5460  0.6182 -1.4795
    8CHL1  H21B  572   0.792   4.037   9.354 -0.7738 -0.9779  0.1602
    8CHL1  H21C  573   0.865   3.881   9.296  1.1081 -1.4619 -3.5648
    8CHL1   C22  574   1.056   3.984   9.133  0.2425  0.1282  0.6353
    8CHL1  H22A  575   1.165   3.964   9.137  0.4212  1.0614  0.7240
    8CHL1  H22B  576   1.009   3.885   9.115  1.1354 -0.2213  0.1242
    8CHL1   C23  577   1.023   4.083   9.012 -0.4222  0.7508 -0.1693
    8CHL1  H23A  578   0.914   4.095   8.998 -0.5283  2.3673  1.7770
    8CHL1  H23B  579   1.079   4.177   9.033  1.1185 -0.2030  0.2095
    8CHL1   C24  580   1.092   4.006   8.891  0.4580 -0.0638  0.6612
    8CHL1  H24A  581   1.199   3.988   8.914  1.3085  1.8685 -1.3242
    8CHL1  H24B  582   1.040   3.911   8.869 -0.1836  0.3387  0.3850
    8CHL1   C25  583   1.091   4.091   8.756 -0.6582 -0.3711  0.0840
    8CHL1   H25  584   1.001   4.156   8.762 -1.1540 -0.7832 -2.2045
    8CHL1   C26  585   1.219   4.181   8.747 -0.3495  0.1541 -0.3049
    8CHL1  H26A  586   1.227   4.247   8.835  0.1667  0.2074 -0.3886
    8CHL1  H26B  587   1.308   4.117   8.733  0.0095  0.0355  2.1838
    8CHL1  H26C  588   1.201   4.261   8.672  0.5894 -0.1861 -0.9038
    8CHL1   C27  589   1.069   3.999   8.639 -0.3145 -0.5659  0.5987
    8CHL1  H27A  590   1.158   3.942   8.605 -0.5621 -0.9044  0.5084
    8CHL1  H27B  591   0.982   3.931   8.655  1.4713 -2.8992  0.9208
    8CHL1  H27C  592   1.051   4.064   8.550  0.6074 -1.3055 -0.1481
    9CHL1    C3  593   0.562   1.744  10.105 -0.6287  0.1373  0.1813
    9CHL1    H3  594   0.672   1.752  10.088 -0.8889 -0.4879 -2.0792
    9CHL1    O3  595   0.535   1.722  10.246 -0.0406 -0.5312  0.3207
    9CHL1   H3'  596   0.534   1.809  10.286  2.8160 -0.5331  0.6455
    9CHL1    C4  597   0.486   1.861  10.051  0.2440 -0.2441 -0.0507
    9CHL1   H4A  598   0.380   1.846  10.081  0.6265 -0.5505  1.2043
    9CHL1   H4B  599   0.531   1.947  10.106 -0.9348  0.6069 -0.3817
    9CHL1    C5  600   0.500   1.876   9.903  0.4308 -0.5613 -0.2103
    9CHL1    C6  601   0.550   1.983   9.841  1.0398  0.1685 -0.5866
    9CHL1    H6  602   0.564   2.070   9.907 -0.9096 -0.8804  1.3418
    9CHL1    C7  603   0.555   1.998   9.692  0.1298 -0.4155  0.7168
    9CHL1   H7A  604   0.501   2.092   9.664 -0.0361 -0.9238 -0.7569
    9CHL1   H7B  605   0.660   2.016   9.660 -0.5132  0.4950 -1.0475
    9CHL1    C8  606   0.488   1.887   9.614 -0.4054  0.0697  0.0330
    9CHL1    H8  607   0.381   1.910   9.595 -0.0204  1.4782 -0.5948
    9CHL1   C14  608   0.535   1.879   9.466 -0.4427  0.3191 -0.4860
    9CHL1   H14  609   0.645   1.862   9.475 -0.3196  1.5147  0.6084
    9CHL1   C15  610   0.511   2.015   9.398 -0.3041  0.5816 -0.5870
    9CHL1  H15A  611   0.412   2.060   9.422 -0.0364  1.1894 -0.6246
    9CHL1  H15B  612   0.583   2.097   9.419 -1.0968  1.2425 -0.4066
    9CHL1   C16  613   0.519   1.975   9.253  0.1190 -0.2681  0.3102
    9CHL1  H16A  614   0.425   2.003   9.202  1.7886  0.1991 -2.7495
    9CHL1  H16B  615   0.603   2.023   9.199  0.2719 -1.9897 -1.0548
    9CHL1   C17  616   0.528   1.819   9.251 -0.0488  0.8402  0.4556
    9CHL1   H17  617   0.636   1.795   9.258 -0.2925 -0.4289  0.1953
    9CHL1   C13  618   0.466   1.769   9.386  0.3650 -0.3356 -0.1012
    9CHL1   C18  619   0.311   1.772   9.381  0.3519 -0.6766  0.1161
    9CHL1  H18A  620   0.282   1.680   9.327 -0.2508 -1.8859  2.3704
    9CHL1  H18B  621   0.276   1.773   9.487 -1.0366  0.5319 -0.3105
    9CHL1  H18C  622   0.275   1.867   9.336  2.1705  0.2581  0.5135
    9CHL1   C12  623   0.513   1.635   9.440 -0.6792  0.0594 -0.9202
    9CHL1  H12A  624   0.473   1.554   9.375 -1.3807  1.3016 -2.0720
    9CHL1  H12B  625   0.623   1.620   9.436 -0.8127 -0.9788 -0.9986
    9CHL1   C11  626   0.472   1.622   9.588  0.0840  0.4249  0.1929
    9CHL1  H11A  627   0.363   1.598   9.592  0.3415 -0.7937  0.0972
    9CHL1  H11B  628   0.529   1.532   9.619  0.2396 -0.0604 -1.4569
    9CHL1    C9  629   0.513   1.747   9.681  0.6467 -0.2909  1.0058
    9CHL1    H9  630   0.624   1.747   9.681  0.6812 -1.3392 -0.7854
    9CHL1   C10  631   0.460   1.740   9.830 -0.4347 -0.4463  0.4312
    9CHL1   C19  632   0.313   1.723   9.828  0.0074  0.3939  0.1041
    9CHL1  H19A  633   0.280   1.816   9.777 -0.4853  0.8650  1.2429
    9CHL1  H19B  634   0.287   1.632   9.770  0.2670  0.4361 -0.0780
    9CHL1  H19C  635   0.270   1.711   9.930  2.4457 -0.7543  1.0810
    9CHL1    C1  636   0.529   1.618   9.892 -0.4167 -0.5171  0.9141
    9CHL1   H1A  637   0.493   1.527   9.841  1.2962  0.3239 -2.0366
    9CHL1   H1B  638   0.640   1.623   9.878 -0.2642 -0.3510  2.0605
    9CHL1    C2  639   0.513   1.615  10.047 -0.1884 -0.1947 -0.0783
    9CHL1   H2A  640   0.557   1.522  10.088 -0.7363 -0.4737 -0.1041
    9CHL1   H2B  641   0.404   1.608  10.070 -0.3315  2.3492  0.3628
    9CHL1   C20  642   0.471   1.764   9.124  0.0286  0.2611  0.1680
    9CHL1   H20  643   0.360   1.777   9.119  0.2189  2.2152  0.1013
    9CHL1   C21  644   0.512   1.615   9.123 -0.0512  0.1892 -0.3284
    9CHL1  H21A  645   0.619   1.604   9.153  0.2149  1.6126 -0.6944
    9CHL1  H21B  646   0.494   1.583   9.018  1.6316 -1.4535 -0.1833
    9CHL1  H21C  647   0.443   1.554   9.185 -1.2560  0.9001 -0.9360
    9CHL1   C22  648   0.526   1.831   9.001  0.0373 -0.0396  0.5326
    9CHL1  H22A  649   0.473   1.778   8.918 -0.4779 -0.1939  0.9595
    9CHL1  H22B  650   0.493   1.937   8.996 -2.5932 -0.8062 -0.4043
    9CHL1   C23  651   0.681   1.840   8.963  0.0735 -0.1936  0.0743
    9CHL1  H23A  652   0.738   1.888   9.045  2.3707 -1.8959 -0.4184
    9CHL1  H23B  653   0.712   1.734   8.953  2.5255  0.6584 -2.7311
    9CHL1   C24  654   0.711   1.909   8.835  0.4292 -0.2380 -0.2041
    9CHL1  H24A  655   0.679   1.849   8.748 -0.8113 -0.0388  0.0988
    9CHL1  H24B  656   0.646   1.999   8.826 -0.7007 -1.1151 -1.0872
    9CHL1   C25  657   0.862   1.952   8.820  0.2430 -0.4902 -0.2101
    9CHL1   H25  658   0.865   2.038   8.891 -2.1174 -1.1780  0.8399
    9CHL1   C26  659   0.955   1.831   8.845 -0.2385  0.4889 -0.7764
    9CHL1  H26A  660   1.058   1.872   8.852 -0.6061  1.9110 -2.7679
    9CHL1  H26B  661   0.930   1.772   8.936  1.4823  1.5470  0.4315
    9CHL1  H26C  662   0.949   1.758   8.761 -1.8950 -0.6642  0.2844
    9CHL1   C27  663   0.899   2.020   8.682  0.3946 -0.6974 -0.3705
    9CHL1  H27A  664   0.825   2.094   8.644  2.1864  1.1892 -0.3239
    9CHL1  H27B  665   0.997   2.071   8.687  0.1651 -0.0929 -1.6905
    9CHL1  H27C  666   0.923   1.950   8.599  1.1494  1.1540 -1.7906
   10CHL1    C3  667   4.116   0.491   9.980 -0.7308  0.2970  0.3942
   10CHL1    H3  668   4.076   0.595   9.983 -0.3765  0.4689 -0.5323
   10CHL1    O3  669   4.146   0.448  10.107 -0.3110  0.8412 -0.0569
   10CHL1   H3'  670   4.065   0.461  10.157 -0.0345  1.1302  0.3159
   10CHL1    C4  671   4.003   0.401   9.910 -0.6964 -0.3235  0.5545
   10CHL1   H4A  672   4.029   0.295   9.932 -0.6550 -0.9578 -2.2045
   10CHL1   H4B  673   3.909   0.427   9.964 -0.8717  2.4824 -0.9384
   10CHL1    C5  674   3.978   0.416   9.760 -0.1475  0.1609 -0.1804
   10CHL1    C6  675   3.855   0.430   9.707 -0.2265 -0.8371  0.3096
   10CHL1    H6  676   3.764   0.436   9.767 -1.0732 -1.5072 -0.8518
   10CHL1    C7  677   3.823   0.433   9.558 -0.4781  0.2036  0.2995
   10CHL1   H7A  678   3.759   0.345   9.538 -0.4075  0.4398 -1.1135
   10CHL1   H7B  679   3.760   0.523   9.539 -2.0571 -0.6502  1.2975
   10CHL1    C8  680   3.952   0.405   9.470  0.7514 -0.6363  0.2721
   10CHL1    H8  681   3.958   0.294   9.474 -2.5127 -0.9468 -0.4696
   10CHL1   C14  682   3.931   0.467   9.332 -0.0259  0.5000  0.1281
   10CHL1   H14  683   3.934   0.575   9.358  2.1032  0.0654  1.9748
   10CHL1   C15  684   3.795   0.459   9.257 -0.7486 -0.9416  1.1940
   10CHL1  H15A  685   3.761   0.357   9.283 -1.4643 -1.1592 -0.4630
   10CHL1  H15B  686   3.713   0.527   9.288 -2.7102 -1.3495 -2.5165
   10CHL1   C16  687   3.821   0.461   9.109 -0.4984 -0.3290  0.0401
   10CHL1  H16A  688   3.819   0.363   9.057 -0.0090 -0.6758  0.6573
   10CHL1  H16B  689   3.749   0.529   9.060 -0.9971  1.8070  3.3901
   10CHL1   C17  690   3.976   0.504   9.109  0.4502 -0.3485  0.1293
   10CHL1   H17  691   3.976   0.613   9.127  0.3762 -0.0283 -1.6913
   10CHL1   C13  692   4.039   0.442   9.235  0.1066  0.3838 -0.5234
   10CHL1   C18  693   4.054   0.293   9.215  0.3668 -0.5290 -0.2587
   10CHL1  H18A  694   4.081   0.249   9.314  1.0293 -0.6538 -0.4875
   10CHL1  H18B  695   3.964   0.242   9.174 -0.1653 -1.3834  1.8352
   10CHL1  H18C  696   4.138   0.272   9.145  0.5124  0.9689 -0.5575
   10CHL1   C12  697   4.170   0.509   9.295  0.3184  0.2466 -0.0675
   10CHL1  H12A  698   4.259   0.479   9.235  0.7168  3.4861 -1.2931
   10CHL1  H12B  699   4.154   0.619   9.290 -3.5023 -0.0120  2.2328
   10CHL1   C11  700   4.201   0.460   9.431  0.2080  0.5960 -0.7189
   10CHL1  H11A  701   4.234   0.354   9.424  1.4331  0.8974  0.1243
   10CHL1  H11B  702   4.292   0.516   9.462  0.5073  0.1908 -0.8488
   10CHL1    C9  703   4.082   0.469   9.527  0.3053  0.2098 -0.3357
   10CHL1    H9  704   4.066   0.577   9.548  1.8231  0.6439 -1.3093
   10CHL1   C10  705   4.110   0.417   9.671 -0.2880  0.0893 -0.7822
   10CHL1   C19  706   4.170   0.283   9.667 -0.3087  0.1775 -0.2083
   10CHL1  H19A  707   4.272   0.288   9.623 -0.2894 -1.7774 -0.5074
   10CHL1  H19B  708   4.179   0.250   9.773  1.0303 -0.0880 -0.3845
   10CHL1  H19C  709   4.119   0.201   9.611 -1.5667  0.2235  0.8035
   10CHL1    C1  710   4.209   0.515   9.739 -1.3118 -0.7089  0.0746
   10CHL1   H1A  711   4.304   0.532   9.683 -1.3532  2.0820  0.6914
   10CHL1   H1B  712   4.165   0.617   9.732  0.0632 -0.1313 -0.4616
   10CHL1    C2  713   4.245   0.489   9.888  0.4574  0.2077  0.1493
   10CHL1   H2A  714   4.314   0.568   9.925  3.0495 -0.3614 -2.9941
   10CHL1   H2B  715   4.308   0.398   9.896 -0.2662 -0.2526  0.7502
   10CHL1   C20  716   4.042   0.490   8.972 -0.2228  0.0041 -0.2760
   10CHL1   H20  717   4.040   0.379   8.963  0.0775 -0.0433  0.2004
   10CHL1   C21  718   4.190   0.536   8.972 -0.0986  0.8418 -0.4717
   10CHL1  H21A  719   4.251   0.467   9.035 -2.5422 -0.1152  0.9893
   10CHL1  H21B  720   4.199   0.641   9.008 -2.1471  1.2005 -0.9260
   10CHL1  H21C  721   4.234   0.524   8.871  0.0605 -0.7201 -0.2425
   10CHL1   C22  722   3.961   0.564   8.858 -0.2149 -0.5114  0.0672
   10CHL1  H22A  723   3.855   0.575   8.890  0.6180  2.4810  2.2060
   10CHL1  H22B  724   3.991   0.671   8.855 -1.7968 -0.0345 -0.1114
   10CHL1   C23  725   3.978   0.514   8.716 -0.9396 -0.1554 -0.7805
   10CHL1  H23A  726   4.076   0.548   8.676 -0.2910 -1.9881 -0.8206
   10CHL1  H23B  727   3.983   0.403   8.714  1.0788 -0.1508  1.0236
   10CHL1   C24  728   3.869   0.563   8.623 -0.6823  0.4206  0.0183
   10CHL1  H24A  729   3.770   0.513   8.634 -0.7595  0.4050 -0.6911
   10CHL1  H24B  730   3.843   0.670   8.637 -1.9387  0.5176 -2.5644
   10CHL1   C25  731   3.914   0.571   8.475  0.0768  0.7176 -0.0143
   10CHL1   H25  732   4.023   0.590   8.465  0.4661 -1.8640 -1.5542
   10CHL1   C26  733   3.889   0.435   8.410  0.2418 -1.0964  0.1362
   10CHL1  H26A  734   3.899   0.449   8.300 -2.2655 -4.1165 -0.6139
   10CHL1  H26B  735   3.959   0.354   8.440  1.5544 -1.2511 -3.0172
   10CHL1  H26C  736   3.783   0.403   8.415 -0.5173  1.0553 -0.8168
   10CHL1   C27  737   3.835   0.686   8.398  0.2244  0.2771  0.0763
   10CHL1  H27A  738   3.853   0.781   8.453 -0.6217  1.5723 -1.7839
   10CHL1  H27B  739   3.876   0.700   8.296 -0.5525  1.3572 -0.1063
   10CHL1  H27C  740   3.725   0.669   8.394  0.3944 -2.2632  2.8612
   11CHL1    C3  741   1.475   0.836  10.075 -0.2564 -0.2733 -0.7380
   11CHL1    H3  742   1.497   0.944  10.062  0.6092 -0.1906  1.0907
   11CHL1    O3  743   1.509   0.812  10.207 -0.0179 -0.8342  0.6395
   11CHL1   H3'  744   1.516   0.717  10.220  1.4992 -0.7251  0.7093
   11CHL1    C4  745   1.325   0.809  10.061 -0.2019 -0.1966  0.0656
   11CHL1   H4A  746   1.306   0.701  10.080  0.0769  0.2459  3.4142
   11CHL1   H4B  747   1.273   0.863  10.142 -2.7641 -1.9570 -0.2632
   11CHL1    C5  748   1.290   0.848   9.918  0.2584  0.3420 -0.0738
   11CHL1    C6  749   1.191   0.938   9.901  0.3012 -0.2407 -0.5537
   11CHL1    H6  750   1.144   0.975   9.993  2.3681  2.1737 -0.3449
   11CHL1    C7  751   1.135   0.974   9.764  0.4042  0.8361 -0.0854
   11CHL1   H7A  752   1.027   0.947   9.764  0.5686  0.0517 -1.6345
   11CHL1   H7B  753   1.136   1.083   9.742 -1.2072  0.5293 -2.0442
   11CHL1    C8  754   1.187   0.878   9.645 -0.1237  0.3562  1.0356
   11CHL1    H8  755   1.126   0.787   9.662  3.1575 -1.8617  2.0991
   11CHL1   C14  756   1.167   0.937   9.509 -0.0268 -0.2487 -0.3054
   11CHL1   H14  757   1.236   1.024   9.508  0.5019 -0.6531 -0.0297
   11CHL1   C15  758   1.019   0.985   9.475  0.3231 -0.0573  0.5839
   11CHL1  H15A  759   0.949   0.909   9.517 -3.0963  1.6318 -1.6320
   11CHL1  H15B  760   0.998   1.081   9.526  1.1924  1.0574 -1.0812
   11CHL1   C16  761   1.019   0.998   9.322  0.5683 -0.1647 -0.1883
   11CHL1  H16A  762   0.934   0.943   9.277  0.7905 -2.2353  1.7244
   11CHL1  H16B  763   1.010   1.102   9.285  2.6388 -0.1233 -0.6739
   11CHL1   C17  764   1.160   0.937   9.270 -0.2776  0.2450  1.0602
   11CHL1   H17  765   1.239   1.015   9.271  1.2107 -1.2042  0.1806
   11CHL1   C13  766   1.207   0.851   9.397 -0.0424 -0.9303  0.1538
   11CHL1   C18  767   1.119   0.720   9.397 -0.4860 -0.2860 -0.6940
   11CHL1  H18A  768   1.084   0.687   9.498 -1.0118  0.2435 -0.6959
   11CHL1  H18B  769   1.022   0.730   9.344 -0.2559  0.9057 -0.9087
   11CHL1  H18C  770   1.190   0.645   9.356  1.8209  0.4158  1.7590
   11CHL1   C12  771   1.362   0.829   9.403  0.9843  0.1607  0.7253
   11CHL1  H12A  772   1.399   0.759   9.325  0.6416 -0.1512  0.8364
   11CHL1  H12B  773   1.420   0.923   9.405  2.8799 -0.9444  0.0899
   11CHL1   C11  774   1.398   0.762   9.533 -0.0409 -0.2799 -0.5663
   11CHL1  H11A  775   1.366   0.656   9.530  0.3004 -0.3978 -0.0918
   11CHL1  H11B  776   1.507   0.756   9.549 -0.1130  1.3511  0.8577
   11CHL1    C9  777   1.343   0.841   9.663  0.6490 -0.4561  0.0045
   11CHL1    H9  778   1.404   0.933   9.653 -0.8915  0.4099 -2.3283
   11CHL1   C10  779   1.372   0.781   9.803 -0.0704 -0.7479  0.0751
   11CHL1   C19  780   1.345   0.626   9.788 -0.3175 -0.5678  0.2208
   11CHL1  H19A  781   1.408   0.566   9.719  1.2633 -2.7672  3.3510
   11CHL1  H19B  782   1.353   0.571   9.884  0.1463 -2.2661 -0.7546
   11CHL1  H19C  783   1.237   0.622   9.760 -0.2763  0.8976 -0.2315
   11CHL1    C1  784   1.527   0.803   9.834  0.1159 -0.1719  0.4667
   11CHL1   H1A  785   1.595   0.744   9.769 -0.0397 -0.5751  0.6615
   11CHL1   H1B  786   1.547   0.911   9.817 -1.7059  0.0279 -0.8323
   11CHL1    C2  787   1.559   0.753   9.979  0.6010  0.0270  0.8125
   11CHL1   H2A  788   1.668   0.754  10.004  0.8416 -1.3231 -0.0695
   11CHL1   H2B  789   1.524   0.649   9.995  0.0342  0.2085  0.7606
   11CHL1   C20  790   1.166   0.883   9.124 -0.1820  0.0238  0.4297
   11CHL1   H20  791   1.139   0.775   9.120 -0.1152  0.0162 -3.2793
   11CHL1   C21  792   1.314   0.881   9.082 -0.5736 -0.0896 -0.4071
   11CHL1  H21A  793   1.378   0.806   9.133  1.7252 -0.0714 -2.9855
   11CHL1  H21B  794   1.363   0.980   9.094  0.4443 -0.6547  0.1799
   11CHL1  H21C  795   1.331   0.837   8.981  0.0350  0.7945 -0.7055
   11CHL1   C22  796   1.066   0.958   9.024 -0.3243 -0.6774  0.2454
   11CHL1  H22A  797   0.963   0.954   9.063  0.0068  0.5450  1.3085
   11CHL1  H22B  798   1.089   1.067   9.011  2.7385 -1.3840 -1.3966
   11CHL1   C23  799   1.061   0.900   8.883  0.0860 -0.1939 -0.3262
   11CHL1  H23A  800   1.167   0.891   8.851  0.7245 -0.5611  1.7402
   11CHL1  H23B  801   1.019   0.797   8.888 -1.7134  0.2769 -3.3295
   11CHL1   C24  802   0.977   0.967   8.780  0.7151  0.2372 -0.7575
   11CHL1  H24A  803   0.878   0.990   8.824  0.9712  0.7388 -0.4401
   11CHL1  H24B  804   1.026   1.057   8.737 -1.2376  0.1484 -3.4141
   11CHL1   C25  805   0.953   0.879   8.659 -0.0511  0.2294 -0.5885
   11CHL1   H25  806   0.930   0.774   8.687  1.9732 -0.6080 -1.8879
   11CHL1   C26  807   0.834   0.930   8.575 -0.4889 -0.5985  0.1942
   11CHL1  H26A  808   0.813   0.858   8.493 -2.3323 -0.5839  0.6214
   11CHL1  H26B  809   0.745   0.947   8.639 -0.5417 -0.5841  0.1172
   11CHL1  H26C  810   0.866   1.025   8.529  0.3713 -0.7232  0.5084
   11CHL1   C27  811   1.081   0.864   8.569 -0.7574 -0.4581 -0.0797
   11CHL1  H27A  812   1.089   0.951   8.501 -0.8224 -0.6829 -0.3766
   11CHL1  H27B  813   1.167   0.881   8.637 -0.6536 -0.1654 -0.2851
   11CHL1  H27C  814   1.102   0.762   8.530  4.1054  0.6904 -1.1351
   12CHL1    C3  815   3.147   4.773  10.298  0.0333  0.3837 -0.6169
   12CHL1    H3  816   3.258   4.771  10.293  0.2247  4.1761 -0.4548
   12CHL1    O3  817   3.112   4.788  10.433  0.0311  0.4634  0.2032
   12CHL1   H3'  818   3.022   4.820  10.439 -0.4983 -1.0407  0.7418
   12CHL1    C4  819   3.088   4.887  10.217  0.1639  0.4711  0.4956
   12CHL1   H4A  820   2.983   4.904  10.249  0.8065  1.5435  2.1890
   12CHL1   H4B  821   3.127   4.987  10.246 -0.8321  1.6597 -2.0006
   12CHL1    C5  822   3.098   4.862  10.065 -0.1405  0.0626  0.3679
   12CHL1    C6  823   3.151   4.948   9.974 -0.6120  0.0615  0.1746
   12CHL1    H6  824   3.182   5.049  10.003  1.5012 -0.6188  0.4864
   12CHL1    C7  825   3.142   4.915   9.823 -0.4380 -0.1532  0.5410
   12CHL1   H7A  826   3.128   5.007   9.761 -1.2821  0.5196  1.6828
   12CHL1   H7B  827   3.245   4.891   9.790  0.0764  0.5487  1.5800
   12CHL1    C8  828   3.048   4.807   9.780  0.3282 -0.7123 -0.2508
   12CHL1    H8  829   2.945   4.843   9.802  0.1280 -0.9396 -0.8099
   12CHL1   C14  830   3.063   4.768   9.632 -0.6633  0.6827 -0.1934
   12CHL1   H14  831   3.168   4.734   9.622 -0.8281 -0.2099  0.9437
   12CHL1   C15  832   3.053   4.876   9.527  0.1015 -0.7217  0.0091
   12CHL1  H15A  833   2.967   4.940   9.555  1.5625  1.5419 -0.4448
   12CHL1  H15B  834   3.135   4.951   9.526 -1.5927  1.2522  1.0572
   12CHL1   C16  835   3.041   4.795   9.395  0.0983 -0.3062  0.0009
   12CHL1  H16A  836   2.962   4.837   9.329  0.4809 -0.2293 -0.4138
   12CHL1  H16B  837   3.139   4.789   9.342  0.1272 -0.7955  0.1053
   12CHL1   C17  838   3.010   4.645   9.439 -0.3835 -0.2133 -0.4745
   12CHL1   H17  839   3.104   4.587   9.427 -1.3960 -2.1927  0.6248
   12CHL1   C13  840   2.977   4.653   9.590  0.2002  0.0097 -0.1274
   12CHL1   C18  841   2.831   4.689   9.613  0.2120 -0.2542  0.5458
   12CHL1  H18A  842   2.817   4.793   9.574 -0.0526 -0.5975 -0.3118
   12CHL1  H18B  843   2.754   4.630   9.559 -0.2660  0.5138  0.3663
   12CHL1  H18C  844   2.805   4.686   9.721  1.6337  1.9292  1.0087
   12CHL1   C12  845   3.010   4.529   9.681  0.5131  0.8007  0.7069
   12CHL1  H12A  846   2.944   4.444   9.656 -1.5919  1.8707  2.2728
   12CHL1  H12B  847   3.117   4.501   9.666 -0.2331 -1.3125 -1.1661
   12CHL1   C11  848   2.996   4.564   9.828 -0.8767  0.4536  0.0743
   12CHL1  H11A  849   2.889   4.574   9.855 -0.6786 -0.1639  1.1084
   12CHL1  H11B  850   3.030   4.476   9.887 -0.0421 -0.5642 -1.8237
   12CHL1    C9  851   3.070   4.691   9.869  0.1935 -0.8547 -0.1867
   12CHL1    H9  852   3.178   4.668   9.866  0.2321 -0.6160 -0.9363
   12CHL1   C10  853   3.046   4.727  10.014 -0.2941 -0.2613 -0.5032
   12CHL1   C19  854   2.893   4.731  10.036 -0.8003  0.2886  0.0217
   12CHL1  H19A  855   2.847   4.630  10.030  1.2863 -0.6822 -0.5466
   12CHL1  H19B  856   2.864   4.776  10.133  2.3397 -1.8484  2.1526
   12CHL1  H19C  857   2.842   4.790   9.957 -0.2923  1.5775  0.6215
   12CHL1    C1  858   3.113   4.628  10.103 -0.0382  1.0513  0.6403
   12CHL1   H1A  859   3.089   4.522  10.081  0.2482  0.7728  1.6157
   12CHL1   H1B  860   3.222   4.643  10.091 -0.4700  3.4469 -0.8070
   12CHL1    C2  861   3.095   4.641  10.258  0.0063  0.6264  0.8141
   12CHL1   H2A  862   3.156   4.566  10.313  1.8655  1.9573  0.6470
   12CHL1   H2B  863   2.987   4.624  10.276 -0.5386  2.3554 -0.5750
   12CHL1   C20  864   2.910   4.577   9.341 -0.3533 -0.0317 -0.0908
   12CHL1   H20  865   2.808   4.620   9.347  0.2046  1.1458  1.9219
   12CHL1   C21  866   2.898   4.430   9.388  0.2700  0.2187  0.3811
   12CHL1  H21A  867   2.819   4.419   9.465 -1.4228 -1.2485 -1.4652
   12CHL1  H21B  868   2.997   4.402   9.431  0.1641 -0.6765  0.0702
   12CHL1  H21C  869   2.883   4.371   9.295 -0.2303  1.5428 -0.4056
   12CHL1   C22  870   2.970   4.570   9.195 -0.1152 -0.0953 -0.2218
   12CHL1  H22A  871   2.897   4.532   9.120  0.5732 -0.2867 -0.8017
   12CHL1  H22B  872   2.980   4.672   9.154 -0.5500 -0.7306 -2.0388
   12CHL1   C23  873   3.100   4.487   9.183 -0.2915  0.3924 -0.1965
   12CHL1  H23A  874   3.181   4.548   9.229 -0.2952  0.5726 -0.4257
   12CHL1  H23B  875   3.099   4.399   9.251 -0.0728  1.0311  0.6586
   12CHL1   C24  876   3.114   4.439   9.038  0.8176 -0.8081 -0.6270
   12CHL1  H24A  877   3.031   4.374   9.002  1.3334 -0.8572 -1.7816
   12CHL1  H24B  878   3.085   4.532   8.984 -0.7585 -0.5242  0.6413
   12CHL1   C25  879   3.250   4.381   8.997 -0.2421 -0.2132 -0.6710
   12CHL1   H25  880   3.273   4.281   9.040  0.9461  0.3850  0.1292
   12CHL1   C26  881   3.257   4.355   8.844  0.8797 -0.0181 -0.3012
   12CHL1  H26A  882   3.193   4.267   8.822  0.3588  0.4622 -0.7472
   12CHL1  H26B  883   3.219   4.443   8.788 -0.5717  0.8978  1.9867
   12CHL1  H26C  884   3.358   4.316   8.818  1.3674 -0.3266  1.9244
   12CHL1   C27  885   3.373   4.469   9.040  0.5907  0.0802 -0.0711
   12CHL1  H27A  886   3.347   4.503   9.142 -0.1057 -1.6392  0.3503
   12CHL1  H27B  887   3.461   4.402   9.044 -0.3005 -1.1611 -0.6664
   12CHL1  H27C  888   3.389   4.558   8.974  1.3658  1.2358  1.6190
   13CHL1    C3  889   1.827   6.391  10.065 -0.8637  0.6829  0.1322
   13CHL1    H3  890   1.796   6.486  10.017 -1.3488  0.2853 -0.3549
   13CHL1    O3  891   1.874   6.420  10.197 -0.1830  0.2040 -0.0735
   13CHL1   H3'  892   1.874   6.339  10.248  1.2356  0.7622  0.8660
   13CHL1    C4  893   1.716   6.292  10.066 -1.0045 -0.2648  0.3293
   13CHL1   H4A  894   1.736   6.199  10.124 -0.6800  1.2481  2.7512
   13CHL1   H4B  895   1.638   6.332  10.134 -2.7368  0.8020 -2.1205
   13CHL1    C5  896   1.660   6.252   9.931  0.7527 -0.5123 -0.3311
   13CHL1    C6  897   1.526   6.276   9.904 -0.3212  0.8954 -0.0175
   13CHL1    H6  898   1.457   6.319   9.978 -0.5557  1.2226 -0.4246
   13CHL1    C7  899   1.470   6.247   9.767 -0.1559  0.1215 -0.4554
   13CHL1   H7A  900   1.380   6.184   9.786 -0.8202  0.8486 -1.1328
   13CHL1   H7B  901   1.449   6.341   9.713 -1.3353  0.2677  0.2264
   13CHL1    C8  902   1.561   6.159   9.692 -0.0906  0.3766  0.3320
   13CHL1    H8  903   1.562   6.060   9.742  0.3554 -1.0236 -2.2803
   13CHL1   C14  904   1.523   6.142   9.545  0.2607  0.0377 -0.1422
   13CHL1   H14  905   1.544   6.239   9.494  0.7902 -0.2766 -0.5366
   13CHL1   C15  906   1.377   6.132   9.513  0.1156  1.0873  0.0267
   13CHL1  H15A  907   1.327   6.060   9.581 -0.7763  2.0461  0.4066
   13CHL1  H15B  908   1.313   6.222   9.522  1.0983  1.6979  1.2420
   13CHL1   C16  909   1.376   6.083   9.369 -0.1346  0.6920 -0.0521
   13CHL1  H16A  910   1.334   5.981   9.353 -1.3813  1.0151  1.0194
   13CHL1  H16B  911   1.322   6.149   9.297 -1.0194 -0.1653 -0.1950
   13CHL1   C17  912   1.527   6.071   9.321  0.4308 -0.2448  0.0106
   13CHL1   H17  913   1.553   6.172   9.282  0.3723 -0.3821 -0.3873
   13CHL1   C13  914   1.602   6.051   9.457 -0.0686 -0.5428  0.1997
   13CHL1   C18  915   1.594   5.904   9.514 -0.7814 -0.1999 -0.0278
   13CHL1  H18A  916   1.498   5.875   9.561  0.9346 -2.3427  2.4354
   13CHL1  H18B  917   1.621   5.823   9.442 -0.5413  0.7443 -1.0257
   13CHL1  H18C  918   1.657   5.899   9.605 -1.9212  2.1260  0.9805
   13CHL1   C12  919   1.743   6.109   9.464 -0.1771  0.7299  1.1994
   13CHL1  H12A  920   1.804   6.053   9.390 -0.1090  0.9838  1.0589
   13CHL1  H12B  921   1.749   6.209   9.416 -0.2095  0.8753  1.4969
   13CHL1   C11  922   1.807   6.118   9.603  0.6385  0.7868 -0.3846
   13CHL1  H11A  923   1.812   6.018   9.651  1.1015  0.7187 -0.5732
   13CHL1  H11B  924   1.906   6.166   9.589  1.3224 -0.4699  0.0369
   13CHL1    C9  925   1.714   6.197   9.699  0.1525  0.5016  0.4073
   13CHL1    H9  926   1.723   6.299   9.657  2.9521  1.1127  2.2262
   13CHL1   C10  927   1.770   6.199   9.846  0.7578 -0.8292  0.0439
   13CHL1   C19  928   1.819   6.064   9.894  0.2163  0.1754 -0.1689
   13CHL1  H19A  929   1.826   6.046  10.003  1.5878  0.6065 -0.1647
   13CHL1  H19B  930   1.748   5.986   9.859 -0.3619 -0.2674  1.8905
   13CHL1  H19C  931   1.919   6.035   9.854  0.1879 -1.6492  0.9722
   13CHL1    C1  932   1.902   6.287   9.844 -0.4621 -0.1193  1.2711
   13CHL1   H1A  933   1.971   6.225   9.783 -0.8435 -0.5148  1.2381
   13CHL1   H1B  934   1.884   6.378   9.783 -0.2566 -0.2325  1.0399
   13CHL1    C2  935   1.946   6.330   9.987 -0.4929  0.3155 -0.6088
   13CHL1   H2A  936   2.016   6.416   9.979 -3.3413  3.0016  1.1636
   13CHL1   H2B  937   1.982   6.241  10.044 -2.7156  0.2341  0.7956
   13CHL1   C20  938   1.547   5.964   9.214 -0.2562 -0.1052  0.5733
   13CHL1   H20  939   1.516   5.865   9.254  1.4321 -0.3446  1.3813
   13CHL1   C21  940   1.689   5.965   9.171  0.1899  0.0532  0.3958
   13CHL1  H21A  941   1.712   5.903   9.082 -1.4841 -1.0074  0.6745
   13CHL1  H21B  942   1.746   5.921   9.256 -2.9237 -0.0672  2.5954
   13CHL1  H21C  943   1.720   6.068   9.142  1.3211 -0.2936  0.3313
   13CHL1   C22  944   1.464   5.991   9.088  0.7673 -0.7243  0.1653
   13CHL1  H22A  945   1.497   5.923   9.007 -0.6313 -1.5206  0.2297
   13CHL1  H22B  946   1.356   5.968   9.102 -0.0965  1.3866 -2.1593
   13CHL1   C23  947   1.467   6.134   9.035 -0.1118 -0.2102 -0.3209
   13CHL1  H23A  948   1.435   6.199   9.119  2.4253  0.4119  0.2252
   13CHL1  H23B  949   1.563   6.172   8.996  0.1608 -0.5769 -0.0185
   13CHL1   C24  950   1.372   6.143   8.917  0.0023 -0.2857  0.7811
   13CHL1  H24A  951   1.386   6.064   8.841 -0.8465 -0.4903  0.8238
   13CHL1  H24B  952   1.267   6.129   8.950 -1.3223  0.1250 -2.8194
   13CHL1   C25  953   1.362   6.278   8.847 -0.1421 -0.5402  0.6379
   13CHL1   H25  954   1.459   6.304   8.798  1.3696 -2.4580  2.4007
   13CHL1   C26  955   1.266   6.252   8.726  0.1319 -0.1618  0.1049
   13CHL1  H26A  956   1.280   6.165   8.659  1.0702  0.5767 -0.7011
   13CHL1  H26B  957   1.163   6.248   8.767 -0.4750  1.7984 -1.0777
   13CHL1  H26C  958   1.278   6.347   8.669 -0.2182  0.5679  1.1945
   13CHL1   C27  959   1.311   6.393   8.927  0.4700  0.1685 -0.2212
   13CHL1  H27A  960   1.369   6.416   9.019  1.1679 -1.8833 -0.0997
   13CHL1  H27B  961   1.309   6.489   8.871 -0.5237  0.3551  0.1159
   13CHL1  H27C  962   1.210   6.366   8.963  0.2928 -0.1383 -0.9278
   14CHL1    C3  963   0.777   2.347  10.323 -0.4340 -0.2380 -0.2627
   14CHL1    H3  964   0.878   2.305  10.301 -0.7471 -1.1737  0.0451
   14CHL1    O3  965   0.760   2.329  10.464 -0.2726 -0.2709 -0.4684
   14CHL1   H3'  966   0.734   2.239  10.481 -0.3740 -0.3152 -0.8497
   14CHL1    C4  967   0.760   2.490  10.283  0.3205  0.3712  0.9387
   14CHL1   H4A  968   0.654   2.520  10.293 -0.5877 -1.0264 -2.8684
   14CHL1   H4B  969   0.824   2.552  10.350 -0.4259 -0.7188  2.7318
   14CHL1    C5  970   0.801   2.512  10.135 -0.2104  0.3079  0.4204
   14CHL1    C6  971   0.899   2.588  10.090  0.1935 -0.0169  0.3802
   14CHL1    H6  972   0.966   2.640  10.161 -1.4570  2.2971  0.3655
   14CHL1    C7  973   0.928   2.602   9.949 -0.2541 -0.2343 -0.4613
   14CHL1   H7A  974   0.955   2.706   9.920 -2.5864 -0.0453 -2.2312
   14CHL1   H7B  975   1.023   2.545   9.938  0.3397  0.4390  0.8888
   14CHL1    C8  976   0.824   2.548   9.850  0.0692  0.1647  0.1000
   14CHL1    H8  977   0.747   2.628   9.858  0.6050  0.5064  2.7842
   14CHL1   C14  978   0.884   2.542   9.708  0.5454  0.1653  0.3637
   14CHL1   H14  979   0.971   2.473   9.711 -0.2343 -0.8707 -0.3771
   14CHL1   C15  980   0.948   2.662   9.640 -0.4350 -0.3480 -0.1403
   14CHL1  H15A  981   0.884   2.752   9.649  0.8266  0.8033 -1.9086
   14CHL1  H15B  982   1.048   2.690   9.680 -0.3881  0.5424 -0.8488
   14CHL1   C16  983   0.954   2.630   9.482  0.1529 -0.4451 -0.1688
   14CHL1  H16A  984   0.928   2.717   9.418  2.4551  0.8632  0.5718
   14CHL1  H16B  985   1.062   2.609   9.466  0.6057  0.5124  1.4389
   14CHL1   C17  986   0.869   2.504   9.466 -0.1523 -0.1386 -0.5090
   14CHL1   H17  987   0.946   2.424   9.460 -0.7141 -0.6719 -0.8429
   14CHL1   C13  988   0.785   2.490   9.598 -0.2358  0.2068  0.2819
   14CHL1   C18  989   0.661   2.581   9.594  0.0517 -1.2655 -0.1947
   14CHL1  H18A  990   0.696   2.684   9.571  2.6398 -1.8224  0.8683
   14CHL1  H18B  991   0.596   2.557   9.507 -0.2034  1.1494 -0.7487
   14CHL1  H18C  992   0.610   2.575   9.692 -2.0202  1.4437 -0.9797
   14CHL1   C12  993   0.741   2.351   9.649 -0.3422 -0.0352 -0.6026
   14CHL1  H12A  994   0.668   2.303   9.581 -0.1131  0.1473 -0.9803
   14CHL1  H12B  995   0.830   2.284   9.651 -2.7124 -3.4596 -1.4973
   14CHL1   C11  996   0.689   2.345   9.798  1.1546  0.9823 -0.1426
   14CHL1  H11A  997   0.588   2.391   9.808 -0.8824 -3.1261 -0.0242
   14CHL1  H11B  998   0.675   2.238   9.823 -0.0254  1.0251 -0.5538
   14CHL1    C9  999   0.776   2.419   9.900 -0.0680 -0.3713  0.9885
   14CHL1    H9 1000   0.868   2.356   9.909  0.1177 -0.2734 -0.0790
   14CHL1   C10 1001   0.717   2.424  10.043  0.3679  0.7437  0.0807
   14CHL1   C19 1002   0.576   2.480  10.042 -0.0598 -0.1096 -0.0182
   14CHL1  H19A 1003   0.510   2.398  10.007 -0.6146 -0.9233  2.6399
   14CHL1  H19B 1004   0.536   2.504  10.143 -0.7077  1.0847 -0.5412
   14CHL1  H19C 1005   0.579   2.571   9.979  2.4438  0.4696  0.8319
   14CHL1    C1 1006   0.711   2.281  10.103 -0.9326  0.1389 -0.0360
   14CHL1   H1A 1007   0.661   2.208  10.036  0.8290  1.2164 -2.6890
   14CHL1   H1B 1008   0.815   2.250  10.082 -1.4538 -0.3502 -2.1631
   14CHL1    C2 1009   0.673   2.264  10.246 -0.4625 -0.1621 -0.3896
   14CHL1   H2A 1010   0.672   2.158  10.278 -0.4656 -0.4110 -1.1868
   14CHL1   H2B 1011   0.575   2.314  10.263 -1.8032 -1.5721 -3.1873
   14CHL1   C20 1012   0.801   2.493   9.322  0.1986  0.2909 -0.3989
   14CHL1   H20 1013   0.717   2.566   9.323 -0.5791 -0.5687  1.5022
   14CHL1   C21 1014   0.748   2.351   9.302  0.1868 -0.5333  0.2602
   14CHL1  H21A 1015   0.675   2.320   9.379 -0.2009 -1.0034 -0.2906
   14CHL1  H21B 1016   0.839   2.287   9.295 -0.1978 -1.0260 -0.2713
   14CHL1  H21C 1017   0.696   2.351   9.204 -0.5522  0.6538  0.6299
   14CHL1   C22 1018   0.889   2.530   9.207  0.0792  0.4919 -0.4381
   14CHL1  H22A 1019   0.942   2.626   9.228  1.1588  0.2250 -1.7628
   14CHL1  H22B 1020   0.970   2.454   9.212 -0.0547  0.3902  0.3100
   14CHL1   C23 1021   0.829   2.520   9.065  0.2765 -0.0454  0.4259
   14CHL1  H23A 1022   0.815   2.413   9.040 -1.0206 -0.4800  2.7775
   14CHL1  H23B 1023   0.724   2.555   9.066  0.5676  1.2807 -2.7256
   14CHL1   C24 1024   0.909   2.573   8.950 -0.1860 -0.4896  0.1527
   14CHL1  H24A 1025   0.904   2.684   8.963  1.6024 -0.4707  0.9749
   14CHL1  H24B 1026   1.018   2.549   8.950 -0.0807 -0.7572 -4.1717
   14CHL1   C25 1027   0.849   2.541   8.811 -0.5137 -0.0780 -0.0857
   14CHL1   H25 1028   0.748   2.586   8.802 -0.8310 -0.9427 -1.0728
   14CHL1   C26 1029   0.937   2.602   8.692  0.8127 -0.0787  0.3365
   14CHL1  H26A 1030   0.950   2.712   8.699 -0.2569 -0.0057  1.4037
   14CHL1  H26B 1031   1.038   2.554   8.696  0.8444  0.0631  1.7392
   14CHL1  H26C 1032   0.902   2.579   8.589 -0.0363 -2.1278  1.0245
   14CHL1   C27 1033   0.848   2.388   8.778 -0.0041 -0.1921 -0.4610
   14CHL1  H27A 1034   0.941   2.345   8.820 -0.7291 -0.5657  0.8488
   14CHL1  H27B 1035   0.771   2.330   8.834  1.9952 -1.8084  0.7323
   14CHL1  H27C 1036   0.839   2.377   8.668 -1.5777  2.4698 -0.6858
   15CHL1    C3 1037   2.831   2.544  10.078 -0.1829 -0.1669 -0.1719
   15CHL1    H3 1038   2.773   2.451  10.063  0.0909 -0.4212  0.3427
   15CHL1    O3 1039   2.881   2.568  10.208  0.6093  0.0354  0.2150
   15CHL1   H3' 1040   2.940   2.642  10.193 -1.5451  1.3237 -3.2369
   15CHL1    C4 1041   2.958   2.542   9.981 -0.2332  0.4199  0.2439
   15CHL1   H4A 1042   2.992   2.647   9.990 -1.4601  1.2325 -2.9728
   15CHL1   H4B 1043   3.029   2.468  10.023  0.7150  1.3388  0.3135
   15CHL1    C5 1044   2.929   2.520   9.833  0.2192  0.5929 -0.3466
   15CHL1    C6 1045   2.977   2.417   9.772  0.1363 -0.1465 -0.1193
   15CHL1    H6 1046   3.043   2.346   9.823  0.6360  0.1643 -0.3294
   15CHL1    C7 1047   2.939   2.389   9.627  0.7538  0.3713  0.3715
   15CHL1   H7A 1048   3.030   2.367   9.567  0.2191  1.6888 -0.9838
   15CHL1   H7B 1049   2.883   2.293   9.628  3.6671 -1.4623  0.1267
   15CHL1    C8 1050   2.867   2.503   9.551  0.0027  0.7466 -0.2138
   15CHL1    H8 1051   2.943   2.581   9.527 -0.7631  2.6587  3.0448
   15CHL1   C14 1052   2.803   2.451   9.417  0.8739 -0.5261 -0.0402
   15CHL1   H14 1053   2.718   2.387   9.450 -0.2457  1.0032  0.1596
   15CHL1   C15 1054   2.881   2.370   9.312 -0.1580  0.4171  0.1398
   15CHL1  H15A 1055   2.985   2.408   9.320 -0.9488  2.5928  0.7834
   15CHL1  H15B 1056   2.880   2.261   9.335 -0.1221  0.0969 -1.2619
   15CHL1   C16 1057   2.813   2.404   9.176  0.7928 -0.1657  0.1412
   15CHL1  H16A 1058   2.885   2.465   9.118 -0.7499  0.5970 -1.0696
   15CHL1  H16B 1059   2.786   2.308   9.126 -0.3376  0.6200 -0.8202
   15CHL1   C17 1060   2.688   2.485   9.212  0.3062 -0.2234  0.4142
   15CHL1   H17 1061   2.610   2.416   9.251 -1.2737  1.8744  1.1534
   15CHL1   C13 1062   2.736   2.562   9.339  0.5204  0.4697  0.8079
   15CHL1   C18 1063   2.833   2.670   9.297 -0.1098 -0.2348  0.2849
   15CHL1  H18A 1064   2.787   2.759   9.249 -0.6765  0.6863  2.4125
   15CHL1  H18B 1065   2.885   2.709   9.387  0.9833 -0.2267 -0.3390
   15CHL1  H18C 1066   2.915   2.636   9.231  0.2557 -0.2134  0.7193
   15CHL1   C12 1067   2.629   2.618   9.424 -0.0221 -0.2293  0.1041
   15CHL1  H12A 1068   2.577   2.707   9.384 -2.9954  0.2328  4.3127
   15CHL1  H12B 1069   2.553   2.540   9.446  1.0740 -1.7775 -1.2985
   15CHL1   C11 1070   2.673   2.666   9.566  0.1373 -0.0175  0.6165
   15CHL1  H11A 1071   2.727   2.762   9.549  0.4584 -0.5742 -1.8545
   15CHL1  H11B 1072   2.585   2.686   9.631 -0.4150  0.0434 -0.1426
   15CHL1    C9 1073   2.763   2.569   9.647 -0.5835  0.1781  0.0777
   15CHL1    H9 1074   2.699   2.485   9.680 -1.2664  0.1800 -1.1684
   15CHL1   C10 1075   2.823   2.620   9.781 -0.3367 -0.4363 -0.2803
   15CHL1   C19 1076   2.908   2.747   9.756 -0.2817 -0.8820 -0.9380
   15CHL1  H19A 1077   2.993   2.731   9.685  1.8525 -1.3034  1.5675
   15CHL1  H19B 1078   2.839   2.826   9.719  1.5252  1.8614  1.1757
   15CHL1  H19C 1079   2.949   2.794   9.848  1.7460 -1.2847 -1.5677
   15CHL1    C1 1080   2.707   2.653   9.888 -0.1181 -0.4013 -0.6512
   15CHL1   H1A 1081   2.653   2.742   9.851 -1.6109 -1.2215 -0.5536
   15CHL1   H1B 1082   2.632   2.572   9.873  1.0449 -1.7602  0.4672
   15CHL1    C2 1083   2.751   2.668  10.033 -0.0404 -0.8070 -0.3978
   15CHL1   H2A 1084   2.660   2.695  10.091  1.0579  2.3819  0.0436
   15CHL1   H2B 1085   2.817   2.757  10.043 -1.1185 -0.1299  1.3363
   15CHL1   C20 1086   2.638   2.563   9.089  0.1228  0.0356 -0.0765
   15CHL1   H20 1087   2.699   2.655   9.079  1.1565 -0.7039 -0.7724
   15CHL1   C21 1088   2.490   2.606   9.120  0.1358  1.1537  0.2782
   15CHL1  H21A 1089   2.448   2.527   9.185  0.8271  0.8615  0.3765
   15CHL1  H21B 1090   2.432   2.616   9.025  0.0968 -1.7182 -0.0997
   15CHL1  H21C 1091   2.482   2.704   9.171  1.8126  1.9491 -0.8910
   15CHL1   C22 1092   2.646   2.494   8.951  0.5386  0.6903  0.3538
   15CHL1  H22A 1093   2.741   2.438   8.936  0.3098  0.3696  0.0989
   15CHL1  H22B 1094   2.573   2.410   8.951 -0.8626  1.8623  0.2081
   15CHL1   C23 1095   2.640   2.593   8.836  0.3705  0.6397  0.1768
   15CHL1  H23A 1096   2.560   2.668   8.850  0.5724  0.8796  0.0498
   15CHL1  H23B 1097   2.734   2.646   8.812 -0.3386  2.2542  0.8437
   15CHL1   C24 1098   2.599   2.523   8.697 -0.4814  0.6681 -1.2358
   15CHL1  H24A 1099   2.680   2.456   8.661  1.5914  1.7625  1.0777
   15CHL1  H24B 1100   2.513   2.457   8.721 -0.6409  1.0568 -0.7160
   15CHL1   C25 1101   2.566   2.627   8.595  0.3505  0.6007 -0.0952
   15CHL1   H25 1102   2.494   2.688   8.654 -1.4236 -2.1566  0.7621
   15CHL1   C26 1103   2.692   2.706   8.540  0.3549 -0.1948  0.1102
   15CHL1  H26A 1104   2.663   2.797   8.483  0.6247 -1.3086 -1.9279
   15CHL1  H26B 1105   2.753   2.749   8.621  0.2710 -1.4440  0.8596
   15CHL1  H26C 1106   2.749   2.647   8.465 -0.5167 -0.3508 -0.4489
   15CHL1   C27 1107   2.494   2.562   8.479  0.3582 -0.2053 -0.7809
   15CHL1  H27A 1108   2.558   2.482   8.437  2.0950 -0.2105  1.6989
   15CHL1  H27B 1109   2.392   2.524   8.503  0.4212 -0.3827 -0.7923
   15CHL1  H27C 1110   2.482   2.647   8.408  0.5447  0.4089 -0.0848
   16CHL1    C3 1111   4.298   4.727  10.308 -1.6734  0.0180 -1.3994
   16CHL1    H3 1112   4.364   4.804  10.262  1.7357 -1.2423  0.9776
   16CHL1    O3 1113   4.317   4.742  10.448  0.0094  0.1514 -0.3561
   16CHL1   H3' 1114   4.277   4.829  10.454 -0.6809  0.0155 -2.2428
   16CHL1    C4 1115   4.149   4.730  10.286  0.6040 -0.0031  1.1462
   16CHL1   H4A 1116   4.108   4.646  10.345 -0.0787 -1.2231 -0.9822
   16CHL1   H4B 1117   4.100   4.821  10.328 -0.0573  0.0575  0.2668
   16CHL1    C5 1118   4.128   4.702  10.136 -0.8136  0.7914  0.5676
   16CHL1    C6 1119   4.056   4.791  10.059 -0.1479 -0.6629  0.0982
   16CHL1    H6 1120   4.017   4.886  10.097 -3.1097 -2.1126  0.9590
   16CHL1    C7 1121   4.034   4.769   9.913  0.1369 -0.6588  0.7584
   16CHL1   H7A 1122   3.928   4.798   9.896  0.6816  1.0949  0.0954
   16CHL1   H7B 1123   4.105   4.827   9.850  1.1265 -0.7633  1.7347
   16CHL1    C8 1124   4.055   4.624   9.861  0.3114  0.0602  0.6243
   16CHL1    H8 1125   3.967   4.565   9.895 -1.0273  1.8167  0.3522
   16CHL1   C14 1126   4.072   4.622   9.707 -0.3292  0.1947  0.0220
   16CHL1   H14 1127   4.173   4.662   9.684  0.7998 -2.2219  0.3996
   16CHL1   C15 1128   3.968   4.690   9.625 -0.5159 -0.1036  0.3398
   16CHL1  H15A 1129   3.876   4.700   9.685  0.5148  0.7916  1.8503
   16CHL1  H15B 1130   4.004   4.794   9.607 -0.9597 -0.2184 -1.4035
   16CHL1   C16 1131   3.961   4.611   9.491 -0.4454 -0.5482 -0.0084
   16CHL1  H16A 1132   3.855   4.579   9.493 -0.5974 -0.3142 -1.8370
   16CHL1  H16B 1133   3.987   4.677   9.405  1.9088  0.1943  1.1865
   16CHL1   C17 1134   4.078   4.510   9.496 -0.0695 -0.0293 -0.5562
   16CHL1   H17 1135   4.173   4.561   9.469  1.9111 -2.8976  0.4333
   16CHL1   C13 1136   4.086   4.479   9.649 -0.4815 -0.5349 -0.1522
   16CHL1   C18 1137   3.973   4.380   9.682 -0.0991  0.6925 -0.2914
   16CHL1  H18A 1138   3.881   4.393   9.620 -1.3394 -2.0534  0.7710
   16CHL1  H18B 1139   4.005   4.274   9.671  0.3304  0.8994 -1.0575
   16CHL1  H18C 1140   3.950   4.388   9.791 -0.6618 -3.0401  0.0202
   16CHL1   C12 1141   4.217   4.431   9.705 -0.3372 -0.4303  0.8270
   16CHL1  H12A 1142   4.241   4.326   9.680 -2.4406 -0.4636 -1.3266
   16CHL1  H12B 1143   4.297   4.494   9.659  1.8169 -2.8259  1.0526
   16CHL1   C11 1144   4.233   4.434   9.856 -1.0606  0.5368 -0.3528
   16CHL1  H11A 1145   4.169   4.353   9.898  0.4816  0.0769  1.2691
   16CHL1  H11B 1146   4.333   4.406   9.896  0.0840  2.0269 -2.0478
   16CHL1    C9 1147   4.191   4.566   9.926  0.6098 -0.0366 -0.8572
   16CHL1    H9 1148   4.273   4.635   9.896  0.6000  0.4571  0.1870
   16CHL1   C10 1149   4.201   4.574  10.080 -0.4992  0.1578 -0.8320
   16CHL1   C19 1150   4.127   4.441  10.135 -0.4612 -0.3564  0.1008
   16CHL1  H19A 1151   4.188   4.350  10.119 -1.5098 -1.1624  0.5655
   16CHL1  H19B 1152   4.097   4.463  10.240  0.2603  2.7678 -0.2398
   16CHL1  H19C 1153   4.034   4.424  10.077  0.5961  0.3609 -1.9083
   16CHL1    C1 1154   4.350   4.566  10.122 -0.1547 -0.6613 -0.1950
   16CHL1   H1A 1155   4.389   4.464  10.100 -0.8121 -1.7301  2.9702
   16CHL1   H1B 1156   4.414   4.635  10.065 -0.8118  0.5621  0.5045
   16CHL1    C2 1157   4.369   4.595  10.272  0.7961 -0.2557 -0.1697
   16CHL1   H2A 1158   4.476   4.601  10.301  1.3816 -2.0451 -1.7002
   16CHL1   H2B 1159   4.312   4.515  10.324  0.5969 -0.5515 -0.8182
   16CHL1   C20 1160   4.059   4.393   9.397  0.3493 -0.5334 -0.0981
   16CHL1   H20 1161   3.966   4.337   9.420 -2.1241  3.0107 -0.5598
   16CHL1   C21 1162   4.178   4.296   9.390  0.8669  0.0022  0.0295
   16CHL1  H21A 1163   4.194   4.237   9.483  0.6971 -2.2613 -1.2874
   16CHL1  H21B 1164   4.266   4.361   9.375  0.5493  0.4710  0.1736
   16CHL1  H21C 1165   4.172   4.218   9.310  2.7304 -1.1668  0.9548
   16CHL1   C22 1166   4.031   4.443   9.253  0.2285  0.6371  0.6754
   16CHL1  H22A 1167   4.031   4.349   9.192  2.5612  0.3663  1.0157
   16CHL1  H22B 1168   3.937   4.499   9.236 -1.7491 -3.1286 -2.6063
   16CHL1   C23 1169   4.142   4.532   9.188 -0.2330  0.1414 -0.4694
   16CHL1  H23A 1170   4.173   4.606   9.265 -0.6971 -0.9329  0.8024
   16CHL1  H23B 1171   4.233   4.468   9.184  0.7431  1.2544  1.9057
   16CHL1   C24 1172   4.105   4.596   9.054  0.0638 -0.6051  0.7499
   16CHL1  H24A 1173   4.002   4.630   9.078 -0.3071 -1.1527 -0.0265
   16CHL1  H24B 1174   4.158   4.692   9.037 -0.8205 -0.3202 -0.5339
   16CHL1   C25 1175   4.117   4.518   8.929 -0.4680  0.6869  0.1352
   16CHL1   H25 1176   4.080   4.414   8.943  0.3666  0.4045  0.3085
   16CHL1   C26 1177   4.038   4.575   8.814  0.0037 -0.0057  0.3708
   16CHL1  H26A 1178   4.068   4.681   8.799  0.6605 -0.2631 -0.1458
   16CHL1  H26B 1179   4.051   4.529   8.714  1.0096  1.5123 -0.2277
   16CHL1  H26C 1180   3.931   4.573   8.846  0.0891  0.4156  0.6944
   16CHL1   C27 1181   4.269   4.504   8.896 -0.2923  0.3506 -0.2300
   16CHL1  H27A 1182   4.301   4.454   8.802  0.6335 -0.6871  0.6244
   16CHL1  H27B 1183   4.309   4.608   8.896 -3.3033  1.6640  1.9611
   16CHL1  H27C 1184   4.308   4.451   8.985 -3.1030 -0.6157  0.5554
   17CHL1    C3 1185   6.286   0.651  10.502 -1.3712  0.1026  0.0942
   17CHL1    H3 1186   6.313   0.547  10.477  0.8264  0.3597  1.1803
   17CHL1    O3 1187   6.304   0.674  10.637 -0.3034 -0.6035 -0.4129
   17CHL1   H3' 1188   6.395   0.648  10.654 -0.1358 -0.8502 -1.5982
   17CHL1    C4 1189   6.373   0.749  10.423 -0.0464  0.6266  0.6966
   17CHL1   H4A 1190   6.335   0.850  10.450 -0.8721  0.5315 -0.0659
   17CHL1   H4B 1191   6.482   0.743  10.441  0.4610  0.1346 -2.0922
   17CHL1    C5 1192   6.363   0.725  10.271  0.1294 -0.2204 -0.3859
   17CHL1    C6 1193   6.476   0.705  10.201 -0.3547  0.3234 -0.0753
   17CHL1    H6 1194   6.573   0.687  10.248  0.6942 -1.1767 -2.5861
   17CHL1    C7 1195   6.475   0.664  10.057 -0.5488  0.0604 -0.9576
   17CHL1   H7A 1196   6.562   0.705  10.002  0.2893  0.0805  0.3397
   17CHL1   H7B 1197   6.497   0.556  10.043  2.2988  0.8322 -3.4596
   17CHL1    C8 1198   6.345   0.708   9.985 -0.0081  0.1316  0.4886
   17CHL1    H8 1199   6.343   0.819   9.976  0.8352  0.0836 -0.3624
   17CHL1   C14 1200   6.337   0.655   9.840 -0.7362 -0.3994 -0.4786
   17CHL1   H14 1201   6.347   0.545   9.853  0.1432 -0.1701  0.9129
   17CHL1   C15 1202   6.454   0.699   9.759 -0.9288 -0.6777  0.8421
   17CHL1  H15A 1203   6.476   0.801   9.797 -0.8841 -0.5389  0.4543
   17CHL1  H15B 1204   6.541   0.633   9.774  0.0352  0.0767 -1.0328
   17CHL1   C16 1205   6.400   0.692   9.612 -0.4300 -0.1851  0.0512
   17CHL1  H16A 1206   6.422   0.784   9.553 -1.2584 -0.0136 -0.0031
   17CHL1  H16B 1207   6.457   0.610   9.562 -2.4170 -1.5281 -0.1253
   17CHL1   C17 1208   6.251   0.662   9.617  0.3847 -0.0223  0.1776
   17CHL1   H17 1209   6.245   0.552   9.620 -0.1809  0.0265  1.2302
   17CHL1   C13 1210   6.217   0.704   9.765  0.0488  0.9114  0.1552
   17CHL1   C18 1211   6.188   0.856   9.760  0.1033  0.1056 -0.9948
   17CHL1  H18A 1212   6.254   0.921   9.698 -0.8452  2.1806  0.0630
   17CHL1  H18B 1213   6.091   0.865   9.708 -0.0833  1.6337 -0.4334
   17CHL1  H18C 1214   6.171   0.907   9.857 -2.2930 -0.2488 -1.1869
   17CHL1   C12 1215   6.102   0.630   9.839  0.7570 -0.5001  0.3694
   17CHL1  H12A 1216   6.004   0.636   9.789  0.8069 -1.5526  0.1386
   17CHL1  H12B 1217   6.117   0.520   9.832  0.0545 -0.6882  1.4706
   17CHL1   C11 1218   6.085   0.675   9.988  0.2524  0.4326  0.3567
   17CHL1  H11A 1219   6.037   0.774   9.999  0.8557  0.5497  2.4123
   17CHL1  H11B 1220   6.021   0.606  10.048 -1.0596 -0.3414 -1.8447
   17CHL1    C9 1221   6.219   0.669  10.066  0.3713 -0.6225 -0.5242
   17CHL1    H9 1222   6.236   0.560  10.078 -2.3542 -1.1004 -0.3477
   17CHL1   C10 1223   6.217   0.722  10.214  0.3525 -0.8802 -0.2737
   17CHL1   C19 1224   6.168   0.868  10.206  0.3204  0.4967  0.2538
   17CHL1  H19A 1225   6.199   0.913  10.303 -1.1049 -0.7453  1.3253
   17CHL1  H19B 1226   6.209   0.923  10.119 -0.1893 -1.9567 -1.6447
   17CHL1  H19C 1227   6.057   0.874  10.199  0.1313  0.6362  2.5229
   17CHL1    C1 1228   6.115   0.647  10.306 -0.4914  0.4614 -0.5353
   17CHL1   H1A 1229   6.011   0.659  10.269 -1.4432 -2.1802  1.0757
   17CHL1   H1B 1230   6.141   0.540  10.296  0.1247  0.5696 -0.1633
   17CHL1    C2 1231   6.134   0.676  10.463 -0.0325  0.1621  0.1136
   17CHL1   H2A 1232   6.071   0.609  10.527  4.2250 -3.2842  1.2238
   17CHL1   H2B 1233   6.102   0.781  10.479 -1.6541  0.4330 -3.8473
   17CHL1   C20 1234   6.173   0.707   9.492  0.1111 -0.3125 -0.0015
   17CHL1   H20 1235   6.180   0.818   9.488 -0.2052 -0.3097 -0.8676
   17CHL1   C21 1236   6.017   0.669   9.494  0.0286 -0.6739 -0.7913
   17CHL1  H21A 1237   6.004   0.560   9.509 -1.2338 -0.6055 -1.3069
   17CHL1  H21B 1238   5.955   0.694   9.406 -0.3047 -1.6517 -0.8501
   17CHL1  H21C 1239   5.975   0.728   9.578  4.4351  0.8186  0.6919
   17CHL1   C22 1240   6.223   0.641   9.356  0.0960  0.1308 -0.6746
   17CHL1  H22A 1241   6.330   0.668   9.344  1.4849 -4.4794 -0.5601
   17CHL1  H22B 1242   6.225   0.530   9.360  0.7225  0.0847 -1.9846
   17CHL1   C23 1243   6.147   0.691   9.233  0.2116  0.1626  0.0907
   17CHL1  H23A 1244   6.069   0.618   9.201  2.6551 -3.5620  1.8476
   17CHL1  H23B 1245   6.103   0.791   9.252  0.8131  0.2779  0.9569
   17CHL1   C24 1246   6.248   0.707   9.112  0.0542  0.4416  0.6820
   17CHL1  H24A 1247   6.332   0.772   9.142  0.2959 -0.4214  1.9828
   17CHL1  H24B 1248   6.279   0.601   9.098 -3.3331 -0.6534  0.3030
   17CHL1   C25 1249   6.187   0.763   8.977  0.4987  0.0544  0.0206
   17CHL1   H25 1250   6.111   0.688   8.948 -0.5849  1.5490 -1.1776
   17CHL1   C26 1251   6.126   0.905   8.989 -0.2458 -0.1203 -0.0454
   17CHL1  H26A 1252   6.204   0.983   8.992  1.1450 -1.3907 -1.4372
   17CHL1  H26B 1253   6.063   0.926   8.900  1.0371 -1.5094 -1.3302
   17CHL1  H26C 1254   6.054   0.914   9.073  0.6617  0.9427  0.6468
   17CHL1   C27 1255   6.280   0.760   8.856 -0.2029 -0.1806  0.2701
   17CHL1  H27A 1256   6.231   0.818   8.775  3.3950  1.6227 -0.7864
   17CHL1  H27B 1257   6.372   0.815   8.884 -0.0330 -0.0832 -0.4513
   17CHL1  H27C 1258   6.302   0.662   8.807  0.1593 -0.2707  0.6050
   18CHL1    C3 1259   5.227   0.597  10.046 -0.1824 -0.3042 -0.2319
   18CHL1    H3 1260   5.310   0.669  10.034  0.1301 -0.7260 -0.6154
   18CHL1    O3 1261   5.207   0.573  10.181 -0.1569  0.4415  0.0059
   18CHL1   H3' 1262   5.141   0.503  10.194  1.8660 -2.2252 -2.6437
   18CHL1    C4 1263   5.104   0.661   9.988  0.0236  0.4484  0.2361
   18CHL1   H4A 1264   5.013   0.604  10.016  0.0902  0.9490  1.5778
   18CHL1   H4B 1265   5.079   0.762  10.029 -1.4454  0.5898 -0.9452
   18CHL1    C5 1266   5.102   0.665   9.835 -0.8029 -0.6345  0.3985
   18CHL1    C6 1267   5.093   0.780   9.773 -0.1590 -0.9172  0.1924
   18CHL1    H6 1268   5.067   0.875   9.823 -2.7717 -1.0786 -0.7110
   18CHL1    C7 1269   5.077   0.801   9.624 -0.1765 -0.4483  0.0762
   18CHL1   H7A 1270   4.999   0.877   9.603 -0.0615  0.4714  2.5615
   18CHL1   H7B 1271   5.173   0.850   9.597 -0.3112 -0.0407  0.3264
   18CHL1    C8 1272   5.070   0.666   9.547  0.6621  0.5975  0.0619
   18CHL1    H8 1273   4.964   0.634   9.542  0.9430 -0.1487 -2.6825
   18CHL1   C14 1274   5.110   0.681   9.397  0.2445  0.3772 -0.7085
   18CHL1   H14 1275   5.219   0.699   9.398  0.0402  1.8305 -1.4861
   18CHL1   C15 1276   5.050   0.804   9.323 -0.1077 -0.5661  0.0071
   18CHL1  H15A 1277   4.952   0.831   9.369 -0.8388 -1.7683 -0.7812
   18CHL1  H15B 1278   5.120   0.890   9.331  1.7047 -1.9242 -0.6596
   18CHL1   C16 1279   5.032   0.755   9.179  0.2955  0.6545  0.1337
   18CHL1  H16A 1280   4.923   0.742   9.165  0.3679 -0.6710  0.7038
   18CHL1  H16B 1281   5.072   0.825   9.102  1.0251  1.5731  1.3170
   18CHL1   C17 1282   5.108   0.617   9.170  1.2832  0.2803 -0.1994
   18CHL1   H17 1283   5.216   0.642   9.159  0.9926  0.5655 -3.5101
   18CHL1   C13 1284   5.088   0.558   9.313 -0.1483 -0.3966  0.1662
   18CHL1   C18 1285   4.941   0.504   9.321 -0.5079 -0.0280 -0.0445
   18CHL1  H18A 1286   4.865   0.576   9.283  0.4009 -0.5995 -3.2689
   18CHL1  H18B 1287   4.934   0.423   9.246  1.6660 -0.7216  0.4329
   18CHL1  H18C 1288   4.916   0.465   9.422  0.9027 -2.9110 -0.7149
   18CHL1   C12 1289   5.185   0.450   9.367 -0.2717 -0.2977  0.3023
   18CHL1  H12A 1290   5.161   0.355   9.315 -0.0611  0.0734 -0.4918
   18CHL1  H12B 1291   5.293   0.479   9.365 -0.3247 -0.1136  0.0755
   18CHL1   C11 1292   5.173   0.424   9.520 -0.0739  0.2206 -0.1519
   18CHL1  H11A 1293   5.083   0.360   9.530  0.0740  0.2310  1.4850
   18CHL1  H11B 1294   5.249   0.353   9.560 -2.0272 -2.4203 -0.8396
   18CHL1    C9 1295   5.162   0.552   9.610  0.0862 -0.0878 -0.6325
   18CHL1    H9 1296   5.261   0.603   9.614  0.9194 -1.7226  0.9375
   18CHL1   C10 1297   5.129   0.535   9.762 -0.8014 -0.1811 -0.3095
   18CHL1   C19 1298   5.006   0.442   9.777 -0.3721  0.0276  0.3489
   18CHL1  H19A 1299   4.957   0.445   9.877 -1.3271 -1.5750 -0.0370
   18CHL1  H19B 1300   4.934   0.470   9.698 -0.6163  1.3630  1.0108
   18CHL1  H19C 1301   5.032   0.336   9.755  1.8511  0.9633 -1.9564
   18CHL1    C1 1302   5.250   0.469   9.831 -0.3174  0.5598  0.1593
   18CHL1   H1A 1303   5.253   0.365   9.791  1.3196  0.6500 -0.0232
   18CHL1   H1B 1304   5.342   0.517   9.790 -0.5186  0.5220 -0.3382
   18CHL1    C2 1305   5.249   0.459   9.980  0.5682  0.2552 -0.9056
   18CHL1   H2A 1306   5.335   0.402  10.021  0.4858  1.1170  0.5643
   18CHL1   H2B 1307   5.163   0.398  10.016  1.4511  0.8472  2.6636
   18CHL1   C20 1308   5.079   0.527   9.051  0.3878 -0.0542 -0.3180
   18CHL1   H20 1309   4.970   0.506   9.066  0.4366  1.2389  2.4459
   18CHL1   C21 1310   5.165   0.402   9.047 -0.1990 -0.1930  0.6129
   18CHL1  H21A 1311   5.274   0.425   9.041 -0.2385 -0.3708 -1.1113
   18CHL1  H21B 1312   5.145   0.358   8.948 -0.8414 -1.4189  1.2655
   18CHL1  H21C 1313   5.124   0.319   9.108  0.2041 -1.9288 -1.3789
   18CHL1   C22 1314   5.114   0.598   8.919 -0.4558 -0.0512  0.2740
   18CHL1  H22A 1315   5.086   0.706   8.927  0.9911  0.2578  1.9373
   18CHL1  H22B 1316   5.224   0.603   8.906 -0.6146  0.4895 -0.9970
   18CHL1   C23 1317   5.044   0.541   8.790 -0.2212 -0.2430 -0.7015
   18CHL1  H23A 1318   5.089   0.442   8.770  0.2331  0.2314 -2.2019
   18CHL1  H23B 1319   4.937   0.515   8.802 -0.2133  0.3942  0.8689
   18CHL1   C24 1320   5.066   0.630   8.664  0.2725 -0.0482  0.6473
   18CHL1  H24A 1321   4.992   0.712   8.673  0.5982  0.5178 -1.1961
   18CHL1  H24B 1322   5.170   0.669   8.670 -0.2547  1.1920  2.6415
   18CHL1   C25 1323   5.032   0.562   8.531 -0.0938  0.0808 -0.6499
   18CHL1   H25 1324   4.948   0.491   8.548 -2.3749  2.4159 -1.4891
   18CHL1   C26 1325   4.981   0.668   8.435 -0.9971  0.0697  0.5625
   18CHL1  H26A 1326   5.056   0.749   8.420  0.2922 -0.2838  3.9785
   18CHL1  H26B 1327   4.971   0.625   8.333  2.3040  1.0603 -0.3164
   18CHL1  H26C 1328   4.879   0.693   8.471 -0.6682  1.1019  0.7906
   18CHL1   C27 1329   5.162   0.492   8.486  0.5071 -0.2110  0.2557
   18CHL1  H27A 1330   5.250   0.560   8.483  0.7035 -0.4552  0.4524
   18CHL1  H27B 1331   5.193   0.421   8.566  1.6224  1.4105  1.3346
   18CHL1  H27C 1332   5.160   0.449   8.383  1.6273  0.7092 -0.1690
   19CHL1    C3 1333   2.189   3.581  10.381  0.4559 -0.4506 -0.1325
   19CHL1    H3 1334   2.279   3.638  10.352  0.6807 -1.2876 -1.1467
   19CHL1    O3 1335   2.185   3.568  10.521 -0.1664 -0.0442 -0.4366
   19CHL1   H3' 1336   2.094   3.583  10.549 -0.2834 -1.5092  0.0792
   19CHL1    C4 1337   2.053   3.638  10.326 -0.2234 -0.2898 -0.1599
   19CHL1   H4A 1338   1.972   3.579  10.374  2.8791 -2.0931  3.4283
   19CHL1   H4B 1339   2.029   3.738  10.368 -0.6601 -0.8244  0.9016
   19CHL1    C5 1340   2.026   3.639  10.177  0.8322  0.4241  0.1185
   19CHL1    C6 1341   1.980   3.749  10.121  0.3097 -0.0360 -0.8522
   19CHL1    H6 1342   1.955   3.839  10.178  1.0162 -0.3617 -0.0018
   19CHL1    C7 1343   1.969   3.765   9.976 -0.0359 -0.7410  0.7153
   19CHL1   H7A 1344   1.885   3.828   9.939  1.8655  1.0729 -0.7987
   19CHL1   H7B 1345   2.047   3.838   9.946 -2.6091  1.5921 -0.8467
   19CHL1    C8 1346   1.989   3.634   9.891  0.3536  0.6993 -0.2618
   19CHL1    H8 1347   1.895   3.574   9.891  0.4221  0.4891 -2.7173
   19CHL1   C14 1348   2.023   3.661   9.750 -0.3104 -0.0962  0.5950
   19CHL1   H14 1349   2.124   3.705   9.758 -0.7783  1.1893 -0.2266
   19CHL1   C15 1350   1.944   3.775   9.683 -0.0259 -0.1150 -0.5935
   19CHL1  H15A 1351   1.838   3.795   9.712  0.2070  1.7447 -0.9071
   19CHL1  H15B 1352   2.003   3.865   9.708  0.5174 -0.6812  0.1972
   19CHL1   C16 1353   1.965   3.741   9.527 -0.1463  0.3624  0.0938
   19CHL1  H16A 1354   1.863   3.732   9.485  0.0121 -1.2512 -0.0176
   19CHL1  H16B 1355   2.008   3.833   9.481  2.0499 -1.0751 -0.9400
   19CHL1   C17 1356   2.057   3.614   9.523  0.7710  0.4943 -0.0870
   19CHL1   H17 1357   2.164   3.645   9.530  0.4169  1.7865 -0.0993
   19CHL1   C13 1358   2.030   3.546   9.659 -0.9334 -0.5538  0.6730
   19CHL1   C18 1359   1.897   3.479   9.649  0.2412 -0.0832  0.1659
   19CHL1  H18A 1360   1.815   3.551   9.629 -1.0409 -1.1557  1.3799
   19CHL1  H18B 1361   1.894   3.399   9.572  0.5182  0.3969 -0.3532
   19CHL1  H18C 1362   1.860   3.420   9.735 -0.1075  0.3844  0.3339
   19CHL1   C12 1363   2.138   3.449   9.717 -0.1497  0.1219 -0.3052
   19CHL1  H12A 1364   2.126   3.355   9.660  0.0872 -0.1372  0.0686
   19CHL1  H12B 1365   2.236   3.495   9.692 -1.3146  2.1816 -1.3026
   19CHL1   C11 1366   2.118   3.420   9.872 -0.3024  1.0592  0.6435
   19CHL1  H11A 1367   2.039   3.343   9.885  1.0139 -0.2140  1.4735
   19CHL1  H11B 1368   2.209   3.366   9.907 -1.2830 -1.9390 -1.0914
   19CHL1    C9 1369   2.102   3.546   9.949  0.4139 -0.2100 -0.2411
   19CHL1    H9 1370   2.197   3.603   9.945  0.8522 -0.9373 -0.4469
   19CHL1   C10 1371   2.073   3.516  10.098  0.1547 -0.0194 -0.0500
   19CHL1   C19 1372   1.951   3.418  10.120  0.1383 -0.5152 -0.3224
   19CHL1  H19A 1373   1.981   3.317  10.086 -2.8628 -1.4060 -0.6876
   19CHL1  H19B 1374   1.924   3.405  10.227 -3.5367  0.4050 -0.9685
   19CHL1  H19C 1375   1.850   3.443  10.080 -0.0412 -0.2586  0.2851
   19CHL1    C1 1376   2.201   3.462  10.158  0.3094  0.5930  0.2951
   19CHL1   H1A 1377   2.227   3.362  10.118 -2.1112  0.6125 -1.5459
   19CHL1   H1B 1378   2.279   3.539  10.141 -1.1483  2.4410  1.5810
   19CHL1    C2 1379   2.195   3.447  10.308 -0.2507  0.6353 -1.4398
   19CHL1   H2A 1380   2.292   3.405  10.342 -0.0035 -0.4602 -3.3413
   19CHL1   H2B 1381   2.119   3.381  10.357 -0.0409  2.3390  1.4581
   19CHL1   C20 1382   2.052   3.538   9.389  0.1696  0.5991  0.2836
   19CHL1   H20 1383   1.943   3.519   9.378 -0.2605  1.6285  2.2685
   19CHL1   C21 1384   2.131   3.406   9.380  0.4465  0.4437  0.1335
   19CHL1  H21A 1385   2.124   3.352   9.283  0.2788  0.3785  0.1807
   19CHL1  H21B 1386   2.101   3.333   9.459 -0.1264  0.6862  0.1432
   19CHL1  H21C 1387   2.241   3.418   9.385  0.3854  1.4771 -0.7379
   19CHL1   C22 1388   2.077   3.630   9.265  0.1932 -0.4740 -0.2510
   19CHL1  H22A 1389   2.023   3.726   9.281 -0.2396 -1.1554  3.2289
   19CHL1  H22B 1390   2.183   3.662   9.251 -0.5448  2.2567 -0.0855
   19CHL1   C23 1391   2.022   3.561   9.135  1.0339  0.3274 -0.4335
   19CHL1  H23A 1392   2.069   3.464   9.110 -0.4815 -0.1630 -1.5554
   19CHL1  H23B 1393   1.912   3.549   9.150  1.2263 -0.6604  0.2910
   19CHL1   C24 1394   2.046   3.648   9.003  0.0975 -0.6943 -0.0535
   19CHL1  H24A 1395   2.006   3.747   9.033  0.5178 -0.4394 -0.3259
   19CHL1  H24B 1396   2.156   3.652   8.987  0.1242 -0.2055  0.2287
   19CHL1   C25 1397   1.973   3.601   8.878  0.5580 -0.2039  0.4498
   19CHL1   H25 1398   1.864   3.597   8.895  0.2398 -1.0899 -1.5704
   19CHL1   C26 1399   1.994   3.714   8.773  0.2192 -0.7903 -0.1683
   19CHL1  H26A 1400   2.004   3.817   8.815 -0.0610 -0.5081 -0.7762
   19CHL1  H26B 1401   2.087   3.694   8.714  1.9068  1.6330  1.4901
   19CHL1  H26C 1402   1.917   3.712   8.693  0.4446  2.6172 -0.6339
   19CHL1   C27 1403   2.014   3.467   8.822  0.1348  0.3975 -0.3237
   19CHL1  H27A 1404   1.983   3.381   8.885  1.6071  0.1560  0.1253
   19CHL1  H27B 1405   1.976   3.452   8.719 -1.1379  2.8330 -0.2620
   19CHL1  H27C 1406   2.124   3.453   8.815 -0.0125 -1.3086  0.2603
   20CHL1    C3 1407   4.997   5.352  10.289  0.1186 -0.3200  0.1428
   20CHL1    H3 1408   4.932   5.443  10.295 -0.7025 -0.8826 -0.0062
   20CHL1    O3 1409   5.027   5.301  10.419  0.0606  0.7241  0.1035
   20CHL1   H3' 1410   5.093   5.232  10.404 -0.7090 -0.1011  0.4265
   20CHL1    C4 1411   4.924   5.238  10.215  0.2171 -0.6963  0.0425
   20CHL1   H4A 1412   4.998   5.154  10.216  1.4569  0.3688  0.9755
   20CHL1   H4B 1413   4.829   5.211  10.265  0.1991 -0.4935  0.1154
   20CHL1    C5 1414   4.907   5.274  10.067 -0.3997  0.4696 -0.3395
   20CHL1    C6 1415   4.787   5.276  10.013  0.0774 -0.1348  0.3436
   20CHL1    H6 1416   4.698   5.244  10.069 -1.4706  0.1778 -1.7933
   20CHL1    C7 1417   4.767   5.310   9.869  0.2593 -0.2403  0.3967
   20CHL1   H7A 1418   4.713   5.229   9.815 -1.5488  3.5591 -4.1852
   20CHL1   H7B 1419   4.711   5.406   9.858 -2.6662 -2.0564 -2.1758
   20CHL1    C8 1420   4.899   5.325   9.778 -0.2110  0.6991 -0.3026
   20CHL1    H8 1421   4.922   5.219   9.756 -2.4221 -0.2957  1.7457
   20CHL1   C14 1422   4.870   5.414   9.665 -0.4174 -0.5062 -0.7753
   20CHL1   H14 1423   4.853   5.516   9.705  0.1557  0.0371 -1.8576
   20CHL1   C15 1424   4.752   5.384   9.569 -0.6460 -0.4898 -0.4274
   20CHL1  H15A 1425   4.747   5.277   9.540  1.6882 -0.2540 -1.9804
   20CHL1  H15B 1426   4.656   5.422   9.608 -0.6280 -1.2875  0.4481
   20CHL1   C16 1427   4.787   5.462   9.447 -0.1323  0.1455 -0.3646
   20CHL1  H16A 1428   4.780   5.405   9.352 -0.0414  2.1952 -1.6727
   20CHL1  H16B 1429   4.721   5.552   9.438  0.6180  0.9685  1.8297
   20CHL1   C17 1430   4.939   5.517   9.456  0.7508 -0.6471 -0.0252
   20CHL1   H17 1431   4.932   5.621   9.492 -0.6027 -0.4469 -0.7969
   20CHL1   C13 1432   4.991   5.435   9.572 -0.0807 -0.0237 -0.2147
   20CHL1   C18 1433   5.041   5.298   9.523 -0.9282  0.3279 -0.2772
   20CHL1  H18A 1434   4.962   5.243   9.466 -1.5979  0.8521  0.1394
   20CHL1  H18B 1435   5.125   5.313   9.452 -0.0327  1.9179  1.0730
   20CHL1  H18C 1436   5.085   5.227   9.596  1.0101  0.3547 -1.3641
   20CHL1   C12 1437   5.100   5.511   9.654 -0.1171 -0.1102 -0.5098
   20CHL1  H12A 1438   5.197   5.526   9.603 -0.5623 -0.3359 -1.4562
   20CHL1  H12B 1439   5.058   5.608   9.688  1.9853  0.5591  0.3100
   20CHL1   C11 1440   5.134   5.433   9.785  0.6444  0.1003 -0.2090
   20CHL1  H11A 1441   5.195   5.347   9.750 -0.0815  0.0970 -1.5202
   20CHL1  H11B 1442   5.202   5.498   9.844 -0.7391 -0.1792  1.7992
   20CHL1    C9 1443   5.009   5.392   9.862  0.3240 -0.3124  0.9274
   20CHL1    H9 1444   4.974   5.490   9.901  2.2449  0.2230  1.3747
   20CHL1   C10 1445   5.032   5.313   9.990 -0.7659  0.4175 -0.1933
   20CHL1   C19 1446   5.121   5.188   9.965 -0.6506  0.5496  0.1907
   20CHL1  H19A 1447   5.209   5.207   9.901 -1.9399  2.7967 -1.0477
   20CHL1  H19B 1448   5.149   5.143  10.063 -1.8483 -0.6269  0.0332
   20CHL1  H19C 1449   5.049   5.120   9.915 -0.0281 -1.0525  1.3929
   20CHL1    C1 1450   5.119   5.414  10.081 -0.3353 -0.2502 -0.4490
   20CHL1   H1A 1451   5.221   5.410  10.037 -1.1228 -0.4728 -2.3601
   20CHL1   H1B 1452   5.077   5.516  10.070 -3.9757 -1.6081 -0.4103
   20CHL1    C2 1453   5.128   5.378  10.228  0.0747 -0.4762  0.2577
   20CHL1   H2A 1454   5.179   5.464  10.277  0.3576 -0.9059  0.7194
   20CHL1   H2B 1455   5.197   5.293  10.243 -0.4102 -1.3705 -2.1950
   20CHL1   C20 1456   5.015   5.514   9.319 -1.0327 -0.5933  0.6190
   20CHL1   H20 1457   5.038   5.408   9.294 -0.8353 -0.6574  1.0648
   20CHL1   C21 1458   5.149   5.587   9.341 -0.8665 -0.2449 -0.6191
   20CHL1  H21A 1459   5.138   5.686   9.390 -0.4087 -0.4689 -0.0519
   20CHL1  H21B 1460   5.196   5.613   9.244  0.8674 -0.5182  0.1156
   20CHL1  H21C 1461   5.223   5.519   9.388 -0.9732 -1.1950 -1.7848
   20CHL1   C22 1462   4.930   5.581   9.206 -0.2831 -0.8681  0.1054
   20CHL1  H22A 1463   4.837   5.523   9.194 -0.8906 -0.3904  2.0970
   20CHL1  H22B 1464   4.894   5.684   9.227 -2.1079 -1.3969 -0.2962
   20CHL1   C23 1465   4.999   5.601   9.070 -0.3995  0.1049  0.0975
   20CHL1  H23A 1466   5.051   5.699   9.065  1.1833 -0.7486 -0.9480
   20CHL1  H23B 1467   5.069   5.516   9.059 -1.0475 -0.1160 -3.0728
   20CHL1   C24 1468   4.904   5.590   8.953 -0.0982  0.0280 -0.6467
   20CHL1  H24A 1469   4.870   5.484   8.953  2.9060 -1.1221 -3.4134
   20CHL1  H24B 1470   4.824   5.664   8.973  0.2411 -0.1644  1.6143
   20CHL1   C25 1471   4.959   5.610   8.811 -0.6397  0.2134  0.0502
   20CHL1   H25 1472   4.997   5.714   8.808  1.0187 -0.3598  0.1285
   20CHL1   C26 1473   5.075   5.516   8.790 -0.6605  0.2084 -0.1042
   20CHL1  H26A 1474   5.126   5.524   8.692  1.4563  0.0883  0.9346
   20CHL1  H26B 1475   5.151   5.531   8.870  0.5338 -0.5653 -1.0601
   20CHL1  H26C 1476   5.042   5.411   8.804  0.1854 -0.1288 -0.6005
   20CHL1   C27 1477   4.847   5.591   8.707  0.4998 -0.5066  0.8031
   20CHL1  H27A 1478   4.883   5.616   8.604 -0.3699 -0.6787  0.4503
   20CHL1  H27B 1479   4.799   5.491   8.712 -0.9196  0.1891  1.4453
   20CHL1  H27C 1480   4.768   5.663   8.735 -1.0475 -1.9761  0.3503
   21CHL1    C3 1481   3.351   5.868  10.153  0.2724 -0.4582 -0.8128
   21CHL1    H3 1482   3.312   5.972  10.148 -1.9676 -0.8921  3.2248
   21CHL1    O3 1483   3.333   5.824  10.290  0.3596  0.2613  0.0354
   21CHL1   H3' 1484   3.244   5.852  10.313  0.2953  0.4762 -0.4586
   21CHL1    C4 1485   3.258   5.781  10.072  0.3947  0.3455  0.4525
   21CHL1   H4A 1486   3.293   5.675  10.076  1.5812  0.7542  3.6972
   21CHL1   H4B 1487   3.155   5.777  10.113  0.1501 -2.4417 -0.2361
   21CHL1    C5 1488   3.257   5.828   9.926  0.0168 -0.2935 -0.3258
   21CHL1    C6 1489   3.140   5.852   9.863 -0.2221  0.8124 -0.3733
   21CHL1    H6 1490   3.051   5.847   9.929  0.1991  0.8034  0.2051
   21CHL1    C7 1491   3.124   5.877   9.717  0.2463 -1.3191 -0.3982
   21CHL1   H7A 1492   3.041   5.823   9.667 -1.1928 -0.6642  1.1996
   21CHL1   H7B 1493   3.120   5.987   9.702  3.9401 -0.8851  0.6580
   21CHL1    C8 1494   3.260   5.847   9.637  0.6222 -1.1122 -0.1346
   21CHL1    H8 1495   3.260   5.737   9.620  0.8643 -1.3005  1.0182
   21CHL1   C14 1496   3.253   5.916   9.496 -0.8939 -0.2642  0.6661
   21CHL1   H14 1497   3.260   6.025   9.516  1.1093 -0.5246  1.5784
   21CHL1   C15 1498   3.132   5.909   9.408 -0.1130 -0.0308 -0.1458
   21CHL1  H15A 1499   3.090   5.806   9.415 -0.0972  0.0653  1.9113
   21CHL1  H15B 1500   3.064   5.985   9.452  0.0511  0.1906 -0.2747
   21CHL1   C16 1501   3.188   5.931   9.267 -0.5632 -0.3028  0.0040
   21CHL1  H16A 1502   3.175   5.834   9.215 -0.0487 -0.9931  1.1210
   21CHL1  H16B 1503   3.141   6.019   9.219  2.9374  2.8475  1.8068
   21CHL1   C17 1504   3.345   5.960   9.276  0.2019  0.3584  0.8969
   21CHL1   H17 1505   3.355   6.067   9.304  0.3014  0.4197  0.6281
   21CHL1   C13 1506   3.377   5.888   9.410 -0.7337  0.4868 -0.1112
   21CHL1   C18 1507   3.396   5.737   9.372 -0.0402 -0.1886 -0.0527
   21CHL1  H18A 1508   3.473   5.717   9.295  0.9835  1.7016  0.4097
   21CHL1  H18B 1509   3.413   5.679   9.466  0.4254 -0.6805 -0.4339
   21CHL1  H18C 1510   3.301   5.699   9.329  0.3990 -1.8991  0.4079
   21CHL1   C12 1511   3.501   5.944   9.486 -0.1285  0.4244 -0.8893
   21CHL1  H12A 1512   3.601   5.927   9.441 -0.3081 -1.9335 -0.5646
   21CHL1  H12B 1513   3.484   6.053   9.494  1.3004  0.6542 -0.8546
   21CHL1   C11 1514   3.516   5.882   9.633 -0.0041 -0.5984 -0.3292
   21CHL1  H11A 1515   3.543   5.775   9.632  0.5838 -0.4774  0.9695
   21CHL1  H11B 1516   3.585   5.943   9.695 -1.4310  1.2958 -0.4984
   21CHL1    C9 1517   3.383   5.889   9.716  1.1171 -0.0471  0.4613
   21CHL1    H9 1518   3.368   5.996   9.741  0.0743  0.0438 -0.4956
   21CHL1   C10 1519   3.395   5.834   9.858 -0.4490 -0.0032  0.1302
   21CHL1   C19 1520   3.442   5.686   9.844 -0.7699 -0.2446  0.6171
   21CHL1  H19A 1521   3.399   5.653   9.747 -0.6652  3.6100 -0.9009
   21CHL1  H19B 1522   3.553   5.688   9.830 -0.9925 -0.9376 -1.6694
   21CHL1  H19C 1523   3.421   5.621   9.932 -2.7358  0.4821  0.7248
   21CHL1    C1 1524   3.502   5.902   9.951 -0.0809  0.6855  0.0771
   21CHL1   H1A 1525   3.606   5.884   9.917  0.2706 -3.4458  2.6016
   21CHL1   H1B 1526   3.483   6.011   9.961 -0.9021  0.4193  1.8062
   21CHL1    C2 1527   3.496   5.863  10.102  0.7142  0.0959  0.0349
   21CHL1   H2A 1528   3.557   5.919  10.176  0.7189  0.8232 -0.5126
   21CHL1   H2B 1529   3.524   5.756  10.108 -0.1951 -0.2682 -1.6435
   21CHL1   C20 1530   3.406   5.935   9.138 -0.4379 -0.1504 -0.3631
   21CHL1   H20 1531   3.392   5.825   9.129  1.0386 -0.4669  0.7333
   21CHL1   C21 1532   3.555   5.957   9.142  0.4614 -0.2748  0.6348
   21CHL1  H21A 1533   3.603   5.926   9.047  0.5858  1.5686  0.0558
   21CHL1  H21B 1534   3.606   5.892   9.217 -0.8930 -0.7307  1.2100
   21CHL1  H21C 1535   3.575   6.064   9.163 -0.0044 -0.0269 -0.1692
   21CHL1   C22 1536   3.330   6.012   9.016  0.0636  0.8659  0.6567
   21CHL1  H22A 1537   3.226   5.975   9.007 -0.6181  3.0897 -1.4624
   21CHL1  H22B 1538   3.328   6.118   9.048  1.0124  0.7471  1.1679
   21CHL1   C23 1539   3.393   5.980   8.879  0.3989  0.0025 -0.4690
   21CHL1  H23A 1540   3.490   6.035   8.872  1.4098 -1.7281 -0.4666
   21CHL1  H23B 1541   3.419   5.872   8.874  0.7366  0.0909 -0.6461
   21CHL1   C24 1542   3.306   6.020   8.756  0.2522 -0.0528  0.0375
   21CHL1  H24A 1543   3.366   6.011   8.663  1.0117  0.1542  0.5024
   21CHL1  H24B 1544   3.222   5.947   8.757  2.1011 -2.3500  1.8982
   21CHL1   C25 1545   3.259   6.168   8.757  0.3963 -0.5654  0.3838
   21CHL1   H25 1546   3.236   6.197   8.861  0.6727 -2.4978  1.0110
   21CHL1   C26 1547   3.384   6.250   8.720 -0.7246  0.0836 -0.2745
   21CHL1  H26A 1548   3.422   6.215   8.622  2.6883 -3.2217  1.9458
   21CHL1  H26B 1549   3.372   6.360   8.731 -0.9312  0.2692 -2.0826
   21CHL1  H26C 1550   3.472   6.228   8.784 -1.3153 -1.6618 -0.0224
   21CHL1   C27 1551   3.141   6.209   8.660  0.6989 -0.6499  0.1005
   21CHL1  H27A 1552   3.115   6.316   8.679 -1.4388 -1.1642  0.3754
   21CHL1  H27B 1553   3.176   6.193   8.556 -1.5583  0.3726 -0.8989
   21CHL1  H27C 1554   3.058   6.139   8.683 -1.0915  1.5899  0.9145
   22CHL1    C3 1555   4.403   1.080   9.883 -0.0642  0.0357  0.5357
   22CHL1    H3 1556   4.485   1.019   9.839 -1.3157 -0.1571 -1.7131
   22CHL1    O3 1557   4.407   1.081  10.030 -0.5670  0.0802 -0.6239
   22CHL1   H3' 1558   4.339   1.138  10.068  0.2111 -1.3131  3.4048
   22CHL1    C4 1559   4.394   1.219   9.820 -0.2373 -0.1070  0.2512
   22CHL1   H4A 1560   4.305   1.269   9.864 -1.4417 -1.5157 -0.5031
   22CHL1   H4B 1561   4.483   1.275   9.855 -1.5024  0.9210  2.0023
   22CHL1    C5 1562   4.390   1.212   9.669  0.3623  0.1269  0.4306
   22CHL1    C6 1563   4.469   1.288   9.590  0.2055 -0.5336 -0.2736
   22CHL1    H6 1564   4.535   1.362   9.637 -0.5305  0.0170 -0.0946
   22CHL1    C7 1565   4.460   1.300   9.444  0.3396  0.7407 -0.3828
   22CHL1   H7A 1566   4.453   1.407   9.415 -1.2023  0.8152  0.1336
   22CHL1   H7B 1567   4.553   1.267   9.395 -0.2032  0.5516 -1.3189
   22CHL1    C8 1568   4.335   1.216   9.379 -0.1342  0.3948 -0.3372
   22CHL1    H8 1569   4.244   1.280   9.374 -0.3832  0.0565 -0.1926
   22CHL1   C14 1570   4.364   1.171   9.237 -0.1743 -0.2115 -0.4829
   22CHL1   H14 1571   4.455   1.109   9.252  1.4759  2.4168  0.9355
   22CHL1   C15 1572   4.410   1.281   9.133  0.1472  0.0060  0.5588
   22CHL1  H15A 1573   4.328   1.355   9.147 -0.4450 -0.6755  0.7624
   22CHL1  H15B 1574   4.506   1.325   9.167 -0.3143 -0.1847  2.2020
   22CHL1   C16 1575   4.388   1.228   8.990  0.2241 -0.0417  0.5250
   22CHL1  H16A 1576   4.315   1.291   8.935 -0.9250 -2.6519 -1.0957
   22CHL1  H16B 1577   4.486   1.223   8.937  0.0513  1.3184  0.0486
   22CHL1   C17 1578   4.316   1.089   9.019  0.1091  0.0586  0.4881
   22CHL1   H17 1579   4.408   1.027   9.026  1.4398  2.0795  1.7155
   22CHL1   C13 1580   4.250   1.095   9.162  0.0378 -0.6205  0.5731
   22CHL1   C18 1581   4.121   1.180   9.151  0.4456 -0.8982  0.0053
   22CHL1  H18A 1582   4.037   1.114   9.120  0.5868 -1.4446  0.7599
   22CHL1  H18B 1583   4.084   1.208   9.252  0.4381  1.6270 -0.6225
   22CHL1  H18C 1584   4.118   1.267   9.082 -0.5845 -0.4887  0.5482
   22CHL1   C12 1585   4.224   0.973   9.244  0.1936 -0.7831 -0.3836
   22CHL1  H12A 1586   4.138   0.912   9.209 -1.2411  0.0649  1.4861
   22CHL1  H12B 1587   4.317   0.913   9.233  0.6935 -0.3078  1.0244
   22CHL1   C11 1588   4.203   0.999   9.396 -0.3968 -0.2195  0.9201
   22CHL1  H11A 1589   4.106   1.052   9.405 -0.1981  0.5661 -1.0361
   22CHL1  H11B 1590   4.191   0.900   9.446  0.4529 -0.4325  0.7287
   22CHL1    C9 1591   4.315   1.086   9.463 -0.2139  0.2265 -0.5056
   22CHL1    H9 1592   4.413   1.034   9.458  0.5815  1.5582  0.6592
   22CHL1   C10 1593   4.288   1.111   9.615  0.2600 -0.4975 -0.1458
   22CHL1   C19 1594   4.142   1.171   9.625 -0.0167 -0.5812 -0.2452
   22CHL1  H19A 1595   4.113   1.221   9.720 -2.9247 -0.6880 -0.9913
   22CHL1  H19B 1596   4.137   1.248   9.546  0.0748  0.0205  0.3239
   22CHL1  H19C 1597   4.067   1.093   9.599  0.1782 -1.8308  2.5234
   22CHL1    C1 1598   4.274   0.984   9.695 -0.5851  0.1958 -0.0333
   22CHL1   H1A 1599   4.182   0.926   9.670  0.5315 -1.3762 -0.6543
   22CHL1   H1B 1600   4.361   0.921   9.668  0.2485  1.0799  0.5570
   22CHL1    C2 1601   4.276   1.001   9.848 -0.1069  0.4378  0.9562
   22CHL1   H2A 1602   4.285   0.905   9.904 -0.2283  0.9574  1.8691
   22CHL1   H2B 1603   4.187   1.060   9.877  1.7855  3.2604  1.3847
   22CHL1   C20 1604   4.241   1.035   8.898  0.1224 -0.5347 -0.8924
   22CHL1   H20 1605   4.143   1.085   8.901  1.6394  2.6583 -0.2999
   22CHL1   C21 1606   4.217   0.886   8.914  0.8806  0.3989  0.4054
   22CHL1  H21A 1607   4.306   0.825   8.940 -0.8216 -2.2077  0.5221
   22CHL1  H21B 1608   4.165   0.852   8.822 -0.5569  0.0699  1.3037
   22CHL1  H21C 1609   4.149   0.873   9.000 -1.9420  0.4581 -1.6829
   22CHL1   C22 1610   4.322   1.060   8.766 -0.4992 -0.1946 -0.8133
   22CHL1  H22A 1611   4.326   1.170   8.752  1.1811  0.1414  1.6401
   22CHL1  H22B 1612   4.423   1.016   8.778 -0.1942  0.8702  0.9344
   22CHL1   C23 1613   4.251   1.015   8.636 -0.4009  0.3996 -0.1359
   22CHL1  H23A 1614   4.237   0.905   8.630  0.9209  0.1683  0.7773
   22CHL1  H23B 1615   4.150   1.062   8.641 -1.2902 -1.2623 -1.1785
   22CHL1   C24 1616   4.326   1.069   8.509  0.0715 -0.6555 -0.1962
   22CHL1  H24A 1617   4.338   1.178   8.524 -0.5752 -0.4258 -1.2348
   22CHL1  H24B 1618   4.429   1.028   8.516 -0.3560 -1.6018  0.8127
   22CHL1   C25 1619   4.267   1.011   8.379  0.2210 -0.0277 -0.6892
   22CHL1   H25 1620   4.279   0.901   8.384 -0.9971 -0.2442 -1.8888
   22CHL1   C26 1621   4.119   1.051   8.363  0.4837 -0.3084 -0.1804
   22CHL1  H26A 1622   4.059   0.999   8.440 -0.1489  2.3971  1.3143
   22CHL1  H26B 1623   4.116   1.162   8.374 -3.0675 -0.4019  0.9824
   22CHL1  H26C 1624   4.086   1.028   8.260 -2.3664  0.0186  0.5755
   22CHL1   C27 1625   4.354   1.056   8.263 -0.4261 -0.4846  0.7096
   22CHL1  H27A 1626   4.301   1.044   8.166  0.7980  2.6047 -0.4636
   22CHL1  H27B 1627   4.386   1.162   8.273  2.5142 -1.2824  0.8914
   22CHL1  H27C 1628   4.448   0.997   8.259  0.1493  0.4807 -1.3751
   23CHL1    C3 1629   1.012   0.687  10.476  0.4123 -0.2917  0.2988
   23CHL1    H3 1630   1.029   0.792  10.445 -0.3963 -0.5655 -1.1330
   23CHL1    O3 1631   1.020   0.667  10.620 -1.0897 -0.5699  0.2103
   23CHL1   H3' 1632   1.093   0.608  10.639 -0.6606  0.4305  1.9086
   23CHL1    C4 1633   0.864   0.646  10.435 -0.4919  0.2570 -0.8450
   23CHL1   H4A 1634   0.860   0.540  10.467  0.0039  0.1023 -1.2823
   23CHL1   H4B 1635   0.779   0.699  10.484 -0.8674 -1.2804  0.2325
   23CHL1    C5 1636   0.835   0.659  10.289 -0.7889  0.0113 -0.0482
   23CHL1    C6 1637   0.741   0.743  10.244  0.1933 -0.6192  1.0114
   23CHL1    H6 1638   0.690   0.809  10.315  2.1690  0.9375  1.0843
   23CHL1    C7 1639   0.714   0.757  10.093 -0.2493  0.3974  0.1776
   23CHL1   H7A 1640   0.604   0.768  10.083 -0.4598 -1.1906  0.5153
   23CHL1   H7B 1641   0.763   0.844  10.046 -0.2418 -0.7569 -2.0791
   23CHL1    C8 1642   0.760   0.629  10.012  0.1005 -0.6373 -0.2760
   23CHL1    H8 1643   0.696   0.543  10.041 -3.5273  1.8109 -0.3398
   23CHL1   C14 1644   0.762   0.664   9.860 -0.5537  0.0575 -1.0631
   23CHL1   H14 1645   0.845   0.736   9.839 -0.2100 -0.4800 -1.5536
   23CHL1   C15 1646   0.629   0.717   9.809  0.3970  0.6539 -0.0552
   23CHL1  H15A 1647   0.542   0.659   9.847 -0.0058  1.3054  0.0370
   23CHL1  H15B 1648   0.615   0.821   9.846  0.2782  0.0085  1.7924
   23CHL1   C16 1649   0.646   0.694   9.655  0.0876 -0.2504 -0.1995
   23CHL1  H16A 1650   0.556   0.641   9.616 -1.6934  1.3617  1.4780
   23CHL1  H16B 1651   0.650   0.790   9.600 -0.3859  1.2442  2.2112
   23CHL1   C17 1652   0.774   0.606   9.634 -0.1450  0.0800 -0.0835
   23CHL1   H17 1653   0.864   0.670   9.618 -0.4211  0.6415  0.5639
   23CHL1   C13 1654   0.798   0.545   9.776 -0.5862  0.1929  1.3312
   23CHL1   C18 1655   0.710   0.422   9.784 -0.1688  0.0646 -0.3755
   23CHL1  H18A 1656   0.605   0.446   9.755 -0.7992 -0.4305  1.3707
   23CHL1  H18B 1657   0.752   0.335   9.729  2.3131 -1.8702  4.0622
   23CHL1  H18C 1658   0.696   0.389   9.889 -1.0645  1.0255 -0.1724
   23CHL1   C12 1659   0.944   0.499   9.802 -0.3571  0.2667  0.7764
   23CHL1  H12A 1660   0.970   0.412   9.738  1.0658  2.2814 -1.5782
   23CHL1  H12B 1661   1.006   0.591   9.793 -2.9841  2.1667  0.9016
   23CHL1   C11 1662   0.961   0.468   9.957  0.3636  0.3829  0.1939
   23CHL1  H11A 1663   0.911   0.370   9.968 -1.8326  1.3423 -0.5833
   23CHL1  H11B 1664   1.069   0.471   9.980  0.2552  0.3069  0.7409
   23CHL1    C9 1665   0.908   0.594  10.048  0.4364  0.0138  0.9197
   23CHL1    H9 1666   0.968   0.685  10.026 -1.9382  1.4520  0.0669
   23CHL1   C10 1667   0.926   0.570  10.204  0.1605 -0.1293 -0.1584
   23CHL1   C19 1668   0.895   0.420  10.228  0.8124 -0.5651  0.1763
   23CHL1  H19A 1669   0.890   0.395  10.336  2.0428 -1.4346  0.0536
   23CHL1  H19B 1670   0.803   0.380  10.181  1.2476 -1.8204  0.3545
   23CHL1  H19C 1671   0.977   0.361  10.183 -0.8548 -1.4152 -1.9178
   23CHL1    C1 1672   1.068   0.604  10.247 -0.8424  0.0866  0.3436
   23CHL1   H1A 1673   1.129   0.536  10.183  1.2434  0.4978  1.7636
   23CHL1   H1B 1674   1.099   0.706  10.217  1.5808 -1.0352 -1.2843
   23CHL1    C2 1675   1.107   0.595  10.396  0.4486  0.0295 -1.5444
   23CHL1   H2A 1676   1.209   0.620  10.431  0.9558 -1.5347 -1.8494
   23CHL1   H2B 1677   1.102   0.496  10.446 -3.1471  1.9156  2.5226
   23CHL1   C20 1678   0.754   0.508   9.512  0.2558 -0.5913  0.3650
   23CHL1   H20 1679   0.672   0.436   9.532  1.0885 -1.3943  0.9873
   23CHL1   C21 1680   0.884   0.426   9.479  0.6092 -0.2100 -0.3207
   23CHL1  H21A 1681   0.870   0.358   9.392  1.3411  2.3694 -2.6073
   23CHL1  H21B 1682   0.906   0.358   9.564  1.8853  0.0883 -0.3993
   23CHL1  H21C 1683   0.959   0.499   9.442  0.3279 -0.2438 -0.9783
   23CHL1   C22 1684   0.713   0.595   9.385 -0.2385 -0.1831 -0.3229
   23CHL1  H22A 1685   0.625   0.658   9.409 -0.0660  0.4926 -1.3825
   23CHL1  H22B 1686   0.798   0.658   9.350  0.2910 -1.0451 -0.6059
   23CHL1   C23 1687   0.666   0.507   9.264 -0.5645  0.2652  0.3391
   23CHL1  H23A 1688   0.734   0.425   9.231  0.6554  0.8985  1.1778
   23CHL1  H23B 1689   0.584   0.455   9.317 -1.6356  0.2563 -1.2521
   23CHL1   C24 1690   0.619   0.586   9.144  0.1867 -0.5918 -1.0872
   23CHL1  H24A 1691   0.558   0.532   9.068 -0.8175 -1.1296  0.0767
   23CHL1  H24B 1692   0.561   0.670   9.188  2.4363  0.0823  0.8319
   23CHL1   C25 1693   0.730   0.668   9.069  0.4389 -0.4414 -0.9564
   23CHL1   H25 1694   0.809   0.692   9.143 -0.3616 -2.4358  0.6552
   23CHL1   C26 1695   0.805   0.577   8.971 -0.4096  0.2157 -0.3551
   23CHL1  H26A 1696   0.726   0.523   8.914 -0.1393  1.3738 -1.8923
   23CHL1  H26B 1697   0.852   0.642   8.894  0.5952 -1.0005 -0.7992
   23CHL1  H26C 1698   0.880   0.513   9.021  0.5470 -0.5496 -2.6469
   23CHL1   C27 1699   0.674   0.794   8.997  0.1940 -0.0801 -0.1360
   23CHL1  H27A 1700   0.610   0.754   8.915  1.2262  0.5529 -1.2896
   23CHL1  H27B 1701   0.609   0.853   9.065  1.1407 -1.9975  2.6471
   23CHL1  H27C 1702   0.750   0.864   8.958  1.0558 -2.4558 -3.0961
   24CHL1    C3 1703   2.644   1.079  10.299 -0.0396 -0.5452 -0.2133
   24CHL1    H3 1704   2.604   0.977  10.316  0.3059 -0.6139  0.1930
   24CHL1    O3 1705   2.629   1.145  10.422 -0.6876 -0.0197  0.2118
   24CHL1   H3' 1706   2.665   1.234  10.412 -0.6037 -0.0796 -0.0209
   24CHL1    C4 1707   2.788   1.088  10.252  0.1670  0.2737  0.3750
   24CHL1   H4A 1708   2.812   1.195  10.235 -0.1943  0.2267 -0.4847
   24CHL1   H4B 1709   2.850   1.041  10.332 -2.4248  1.5521  3.3425
   24CHL1    C5 1710   2.817   1.027  10.112  0.3821 -0.9175 -0.0621
   24CHL1    C6 1711   2.896   0.923  10.100 -1.2721 -0.2889  0.4012
   24CHL1    H6 1712   2.939   0.882  10.193 -0.6666  1.3314  0.8625
   24CHL1    C7 1713   2.921   0.846   9.973  0.3274 -0.1186  0.2123
   24CHL1   H7A 1714   3.027   0.827   9.947  0.6343  0.3761  1.0886
   24CHL1   H7B 1715   2.856   0.757   9.985 -1.8473  1.4227  0.4409
   24CHL1    C8 1716   2.868   0.928   9.845 -0.3905  0.4307 -0.4173
   24CHL1    H8 1717   2.941   1.008   9.818  0.2569  0.5981  1.6160
   24CHL1   C14 1718   2.849   0.833   9.726  0.0370  0.0443 -0.0745
   24CHL1   H14 1719   2.765   0.764   9.748  1.1949 -1.3980 -0.0018
   24CHL1   C15 1720   2.963   0.736   9.696 -0.5782  0.2081  0.2270
   24CHL1  H15A 1721   3.057   0.794   9.684  0.5739 -1.5618  0.3374
   24CHL1  H15B 1722   2.975   0.678   9.790 -0.8207  1.7967  1.2757
   24CHL1   C16 1723   2.919   0.668   9.567  0.6593 -0.6056  0.9199
   24CHL1  H16A 1724   2.996   0.685   9.489  2.1814 -1.0876  2.2806
   24CHL1  H16B 1725   2.881   0.564   9.567 -0.7241 -0.1247  0.5285
   24CHL1   C17 1726   2.811   0.764   9.505 -0.2648 -0.1102 -0.2240
   24CHL1   H17 1727   2.717   0.709   9.522  0.5557 -2.0468 -1.6015
   24CHL1   C13 1728   2.811   0.893   9.590 -0.3969 -0.2231  0.2423
   24CHL1   C18 1729   2.930   0.988   9.552 -0.5012  0.8177 -0.1741
   24CHL1  H18A 1730   2.951   1.062   9.631  0.6326 -0.3098  0.6306
   24CHL1  H18B 1731   3.026   0.932   9.552 -1.8452 -1.6756 -0.2039
   24CHL1  H18C 1732   2.910   1.027   9.450 -0.7093 -2.2888 -1.4383
   24CHL1   C12 1733   2.682   0.964   9.608 -0.3001  0.3075  0.7267
   24CHL1  H12A 1734   2.654   1.021   9.516  2.1787  0.0657 -0.2596
   24CHL1  H12B 1735   2.597   0.897   9.632  0.3707  0.1153  2.6873
   24CHL1   C11 1736   2.689   1.062   9.731  0.3049  0.0889  0.4165
   24CHL1  H11A 1737   2.765   1.139   9.704  0.1750  0.1149  0.1241
   24CHL1  H11B 1738   2.593   1.111   9.756  0.2457  0.2939 -0.1840
   24CHL1    C9 1739   2.735   0.992   9.862  0.6860  0.0463  0.2679
   24CHL1    H9 1740   2.664   0.907   9.871 -1.3286  1.6568  0.4527
   24CHL1   C10 1741   2.722   1.075   9.993  1.2860 -0.1926  0.3478
   24CHL1   C19 1742   2.773   1.216   9.960  0.9120  0.7357  0.5503
   24CHL1  H19A 1743   2.877   1.220   9.921  0.7847  0.6411  0.1982
   24CHL1  H19B 1744   2.717   1.268   9.879  0.2079  1.9588  1.7791
   24CHL1  H19C 1745   2.759   1.285  10.047 -1.5400  0.0128  0.8042
   24CHL1    C1 1746   2.577   1.078  10.055  0.0132 -1.0737  0.3895
   24CHL1   H1A 1747   2.517   1.132   9.978 -1.5401 -2.7130  0.3756
   24CHL1   H1B 1748   2.537   0.974  10.063  0.6774 -1.3711 -0.0555
   24CHL1    C2 1749   2.558   1.140  10.194 -0.3560 -0.5445  0.0889
   24CHL1   H2A 1750   2.454   1.130  10.232 -0.3499 -2.8830 -0.3614
   24CHL1   H2B 1751   2.582   1.248  10.181 -2.7155  0.2916  1.9728
   24CHL1   C20 1752   2.808   0.771   9.350  0.0084  1.0593  0.5273
   24CHL1   H20 1753   2.887   0.839   9.310 -1.6847  2.0394 -1.3045
   24CHL1   C21 1754   2.670   0.825   9.297  0.2073  0.4367  0.2030
   24CHL1  H21A 1755   2.580   0.763   9.317  0.5815 -0.4717 -0.8454
   24CHL1  H21B 1756   2.687   0.846   9.189  2.7856 -0.7066  0.3117
   24CHL1  H21C 1757   2.644   0.925   9.338  1.6869  0.4911  1.0760
   24CHL1   C22 1758   2.838   0.635   9.288 -0.0459 -0.0112  0.2705
   24CHL1  H22A 1759   2.936   0.598   9.326  0.9877  1.7982 -0.5240
   24CHL1  H22B 1760   2.760   0.564   9.324  0.1229 -0.1348  0.3922
   24CHL1   C23 1761   2.834   0.613   9.133 -0.3180 -0.1097  0.0401
   24CHL1  H23A 1762   2.732   0.623   9.089  0.8240 -1.4554 -3.2694
   24CHL1  H23B 1763   2.894   0.696   9.090 -0.2404  0.3560  1.0383
   24CHL1   C24 1764   2.889   0.474   9.095  0.1474  0.0773  0.1780
   24CHL1  H24A 1765   2.994   0.479   9.131  0.3205  1.4080 -0.4657
   24CHL1  H24B 1766   2.839   0.398   9.158 -0.6928  1.5651  1.3507
   24CHL1   C25 1767   2.896   0.457   8.942 -0.5600 -0.3535 -0.3095
   24CHL1   H25 1768   2.962   0.538   8.902 -1.4437  0.5766  0.0887
   24CHL1   C26 1769   2.967   0.316   8.915 -0.4014 -0.0194  0.3820
   24CHL1  H26A 1770   3.059   0.297   8.975 -0.7312  0.6447  1.1154
   24CHL1  H26B 1771   2.894   0.234   8.927  0.2198 -0.2148  3.7560
   24CHL1  H26C 1772   2.984   0.319   8.805 -0.5940 -1.9750  0.2742
   24CHL1   C27 1773   2.758   0.467   8.873  0.2665  0.5205 -0.3210
   24CHL1  H27A 1774   2.715   0.569   8.889  0.2091  0.1571  2.1325
   24CHL1  H27B 1775   2.750   0.438   8.766 -0.5743 -3.6716  0.7178
   24CHL1  H27C 1776   2.689   0.398   8.925 -0.2335  0.4760 -1.0317
   25CHL1    C3 1777   3.762   4.557  10.408 -0.3408  0.1891 -0.0519
   25CHL1    H3 1778   3.861   4.602  10.389 -0.1640 -0.5514 -0.9673
   25CHL1    O3 1779   3.755   4.518  10.547 -0.0154 -0.1451  0.1382
   25CHL1   H3' 1780   3.662   4.496  10.554 -0.2308  1.0546  1.6129
   25CHL1    C4 1781   3.648   4.648  10.376 -0.0368  0.5279 -0.1052
   25CHL1   H4A 1782   3.550   4.611  10.413 -0.3614  1.2080 -0.2800
   25CHL1   H4B 1783   3.662   4.744  10.430  1.3718  1.6171 -2.2417
   25CHL1    C5 1784   3.638   4.684  10.227 -0.0031 -0.3119 -1.1684
   25CHL1    C6 1785   3.653   4.813  10.188 -0.1049 -0.1142  0.1569
   25CHL1    H6 1786   3.652   4.888  10.268 -1.8835  0.3396 -0.2431
   25CHL1    C7 1787   3.643   4.859  10.041 -0.6344  0.2643 -0.7096
   25CHL1   H7A 1788   3.572   4.944  10.031 -0.7178  0.3837  0.7370
   25CHL1   H7B 1789   3.739   4.884   9.992 -0.0394 -2.9438 -1.4058
   25CHL1    C8 1790   3.573   4.742   9.956 -0.6301 -0.5820 -0.5172
   25CHL1    H8 1791   3.463   4.753   9.964 -0.7691  0.1570 -2.6991
   25CHL1   C14 1792   3.608   4.769   9.809 -0.5220 -0.1619  0.3507
   25CHL1   H14 1793   3.719   4.765   9.810 -0.5280 -0.3802  0.5562
   25CHL1   C15 1794   3.565   4.909   9.756  1.0665  0.8737 -0.0858
   25CHL1  H15A 1795   3.460   4.921   9.793  0.6810  3.2838 -1.7660
   25CHL1  H15B 1796   3.621   4.996   9.796  0.1087 -0.1431  3.9709
   25CHL1   C16 1797   3.560   4.887   9.603  0.4323  0.0523 -0.2517
   25CHL1  H16A 1798   3.465   4.922   9.557  1.4506  3.4873  0.0273
   25CHL1  H16B 1799   3.629   4.958   9.553 -0.4526 -0.2311 -1.9493
   25CHL1   C17 1800   3.576   4.737   9.575 -0.0922  0.8241 -0.3197
   25CHL1   H17 1801   3.681   4.733   9.540 -0.7513 -0.3194 -2.3449
   25CHL1   C13 1802   3.555   4.661   9.708  0.8016  0.1116  0.9606
   25CHL1   C18 1803   3.403   4.648   9.731 -0.8444  0.4806  0.1912
   25CHL1  H18A 1804   3.348   4.745   9.722 -0.7654  0.6611  1.3958
   25CHL1  H18B 1805   3.360   4.581   9.654  3.8555 -3.1802  0.2852
   25CHL1  H18C 1806   3.380   4.613   9.834 -1.0276  0.1833  0.0514
   25CHL1   C12 1807   3.635   4.535   9.736  0.0435  0.1747 -0.1391
   25CHL1  H12A 1808   3.608   4.454   9.665 -1.4407 -0.6974  1.3604
   25CHL1  H12B 1809   3.743   4.557   9.721  0.3135 -0.0769  1.2865
   25CHL1   C11 1810   3.620   4.483   9.884 -0.1423  0.0658 -0.2927
   25CHL1  H11A 1811   3.518   4.440   9.884  0.5675 -1.7197 -1.2702
   25CHL1  H11B 1812   3.692   4.400   9.899  0.8885  1.2223  1.6581
   25CHL1    C9 1813   3.630   4.604   9.987 -0.2785 -0.7745  0.2085
   25CHL1    H9 1814   3.737   4.630   9.972 -0.7896  1.2894 -0.1577
   25CHL1   C10 1815   3.617   4.568  10.132 -0.2470 -1.1857  0.1781
   25CHL1   C19 1816   3.484   4.511  10.156  0.0452  0.1185  0.8432
   25CHL1  H19A 1817   3.416   4.596  10.139 -1.2029 -0.7671  1.2772
   25CHL1  H19B 1818   3.457   4.426  10.090 -2.9180  1.4498  0.2014
   25CHL1  H19C 1819   3.474   4.467  10.258  0.5236 -0.4078  0.6733
   25CHL1    C1 1820   3.725   4.461  10.169  0.3627  0.3889 -0.1159
   25CHL1   H1A 1821   3.686   4.369  10.122  0.8425  0.2116 -0.1731
   25CHL1   H1B 1822   3.819   4.499  10.126 -0.6325  0.2550 -2.5312
   25CHL1    C2 1823   3.747   4.431  10.321 -0.0100 -0.1330 -0.3246
   25CHL1   H2A 1824   3.835   4.364  10.333  1.0349  1.4584  1.4614
   25CHL1   H2B 1825   3.663   4.372  10.362 -0.9570 -0.7095 -2.8958
   25CHL1   C20 1826   3.489   4.697   9.450  0.1754 -0.2544  0.7073
   25CHL1   H20 1827   3.381   4.719   9.468 -0.3062 -1.3766 -0.5720
   25CHL1   C21 1828   3.501   4.545   9.419 -0.0278 -0.5205  0.3675
   25CHL1  H21A 1829   3.609   4.524   9.403  0.0118  1.0078 -1.7963
   25CHL1  H21B 1830   3.442   4.519   9.329  1.9190 -2.1289 -0.4963
   25CHL1  H21C 1831   3.475   4.491   9.512 -1.3824  0.8515  0.8412
   25CHL1   C22 1832   3.528   4.779   9.321 -0.4324  0.0212 -0.1866
   25CHL1  H22A 1833   3.449   4.761   9.245 -0.1189 -0.0219 -0.5033
   25CHL1  H22B 1834   3.517   4.887   9.348 -2.3034  0.6385 -2.9811
   25CHL1   C23 1835   3.672   4.765   9.273 -0.3042  0.0193  0.4377
   25CHL1  H23A 1836   3.747   4.776   9.354 -1.5637  1.7018  1.4295
   25CHL1  H23B 1837   3.685   4.663   9.229 -1.5694 -0.2565  0.6832
   25CHL1   C24 1838   3.704   4.869   9.166  0.1612 -0.7245  0.1318
   25CHL1  H24A 1839   3.679   4.970   9.205  0.6864 -0.0590 -1.1935
   25CHL1  H24B 1840   3.813   4.880   9.149 -0.3933  2.6930 -2.1263
   25CHL1   C25 1841   3.628   4.848   9.030  0.3523 -0.4271 -0.0495
   25CHL1   H25 1842   3.523   4.820   9.050  0.7288 -0.5777  1.9426
   25CHL1   C26 1843   3.613   4.979   8.941  0.5320  0.1113  0.0763
   25CHL1  H26A 1844   3.711   5.025   8.920  0.2241  0.4837 -0.5503
   25CHL1  H26B 1845   3.569   4.951   8.843  1.5712 -0.8484 -0.1369
   25CHL1  H26C 1846   3.549   5.049   9.000  1.7822  0.0196  1.6059
   25CHL1   C27 1847   3.693   4.730   8.949  0.6937 -0.2534 -0.6966
   25CHL1  H27A 1848   3.801   4.746   8.925  0.2082  2.0067 -1.5832
   25CHL1  H27B 1849   3.681   4.635   9.004  0.6756 -0.6010 -1.2869
   25CHL1  H27C 1850   3.644   4.728   8.849  1.1977  0.5259 -0.9678
   26CHL1    C3 1851   1.898   5.722  10.145  0.4313  0.2095  0.1388
   26CHL1    H3 1852   1.805   5.775  10.115  1.3065  0.7466 -1.7846
   26CHL1    O3 1853   1.930   5.749  10.279 -0.6403 -0.0404  0.2359
   26CHL1   H3' 1854   1.857   5.711  10.329 -0.7931 -0.9237 -0.6317
   26CHL1    C4 1855   1.879   5.571  10.116 -0.6473 -0.2248 -0.3715
   26CHL1   H4A 1856   1.969   5.511  10.141 -0.1047  0.7839  0.1405
   26CHL1   H4B 1857   1.793   5.549  10.183 -1.1658 -0.6810 -1.1701
   26CHL1    C5 1858   1.842   5.552   9.969  0.0888  0.7335 -0.3996
   26CHL1    C6 1859   1.723   5.494   9.939 -0.0155 -0.5144 -0.2362
   26CHL1    H6 1860   1.655   5.464  10.020 -0.1014  2.0157  0.7177
   26CHL1    C7 1861   1.670   5.482   9.800 -0.5042 -0.6266  0.1590
   26CHL1   H7A 1862   1.613   5.388   9.783  0.1465 -1.0599  0.2993
   26CHL1   H7B 1863   1.608   5.570   9.774 -1.1180 -1.8076 -2.7980
   26CHL1    C8 1864   1.783   5.483   9.694 -0.0418 -0.3932 -0.7608
   26CHL1    H8 1865   1.841   5.389   9.700  1.7579  0.5819 -1.8520
   26CHL1   C14 1866   1.712   5.506   9.560 -0.1044  0.0639  0.4734
   26CHL1   H14 1867   1.677   5.611   9.574 -2.0547 -0.7778  2.4490
   26CHL1   C15 1868   1.580   5.424   9.531  0.6983  0.3270 -0.1799
   26CHL1  H15A 1869   1.611   5.319   9.551  0.5664  0.2481 -0.3789
   26CHL1  H15B 1870   1.498   5.471   9.589 -0.0078  0.2903 -1.1153
   26CHL1   C16 1871   1.571   5.445   9.377 -0.8958 -0.6895  0.0104
   26CHL1  H16A 1872   1.569   5.342   9.334  1.1534 -0.4746 -0.7208
   26CHL1  H16B 1873   1.473   5.493   9.353 -0.1500  0.7979 -0.1931
   26CHL1   C17 1874   1.699   5.523   9.324  0.4708  0.2665  0.4726
   26CHL1   H17 1875   1.677   5.631   9.331  0.7619  0.6699 -2.8821
   26CHL1   C13 1876   1.802   5.506   9.433 -0.0809  0.1385 -0.3543
   26CHL1   C18 1877   1.873   5.366   9.416 -0.1996  0.0034  0.0441
   26CHL1  H18A 1878   1.946   5.339   9.495 -3.0231 -0.1008  2.8394
   26CHL1  H18B 1879   1.797   5.286   9.425  0.4885 -0.6099  0.5414
   26CHL1  H18C 1880   1.911   5.355   9.312  0.0785  2.4213 -0.1831
   26CHL1   C12 1881   1.909   5.612   9.453  0.1413  0.6122 -0.1015
   26CHL1  H12A 1882   1.980   5.606   9.368 -1.0274 -0.6506 -1.0234
   26CHL1  H12B 1883   1.858   5.711   9.457 -1.3793 -0.1808  1.2410
   26CHL1   C11 1884   1.979   5.599   9.588  0.0537 -0.4242  0.6587
   26CHL1  H11A 1885   2.056   5.519   9.597  0.1887 -0.1152  3.0782
   26CHL1  H11B 1886   2.029   5.698   9.592 -1.7977  0.5484  0.6175
   26CHL1    C9 1887   1.879   5.597   9.713  0.1234  0.2626 -0.2061
   26CHL1    H9 1888   1.813   5.686   9.707 -1.3077 -0.5965  1.5919
   26CHL1   C10 1889   1.931   5.602   9.863  0.5096  0.7826  0.1302
   26CHL1   C19 1890   2.059   5.511   9.865  0.6500  0.3051 -0.1774
   26CHL1  H19A 1891   2.106   5.480   9.961 -2.2273 -1.0567  0.9176
   26CHL1  H19B 1892   2.033   5.419   9.808 -1.4588  0.3137  0.6927
   26CHL1  H19C 1893   2.138   5.568   9.812  0.2786  0.4755 -0.5473
   26CHL1    C1 1894   1.956   5.744   9.906 -0.1072  0.5519  1.1209
   26CHL1   H1A 1895   2.039   5.785   9.844 -0.0512 -0.1304  0.7357
   26CHL1   H1B 1896   1.864   5.804   9.890 -0.1304  0.1298 -0.5047
   26CHL1    C2 1897   2.005   5.777  10.057  0.5787  0.0421  0.1944
   26CHL1   H2A 1898   2.015   5.887  10.063  1.0552 -0.0386  1.2420
   26CHL1   H2B 1899   2.107   5.734  10.072  0.4925  0.2242  1.3806
   26CHL1   C20 1900   1.737   5.486   9.178  0.2259  0.5287 -0.0204
   26CHL1   H20 1901   1.779   5.384   9.169 -0.9637  0.1252 -1.4516
   26CHL1   C21 1902   1.845   5.590   9.137  0.5249 -0.1116 -0.0206
   26CHL1  H21A 1903   1.940   5.565   9.189  0.6866  0.2689 -0.1284
   26CHL1  H21B 1904   1.813   5.693   9.163  2.1583  0.4948 -0.3067
   26CHL1  H21C 1905   1.865   5.589   9.028 -0.6083  0.2013 -0.2458
   26CHL1   C22 1906   1.616   5.484   9.082  0.1310  0.8384  0.4508
   26CHL1  H22A 1907   1.538   5.410   9.111  1.9018 -1.5549 -0.5132
   26CHL1  H22B 1908   1.558   5.579   9.078 -0.1788  0.6301 -0.2623
   26CHL1   C23 1909   1.651   5.449   8.935  0.5019 -0.1777 -0.1792
   26CHL1  H23A 1910   1.729   5.518   8.894  2.1364 -0.5935  2.0467
   26CHL1  H23B 1911   1.692   5.346   8.940 -2.1551 -1.3273 -0.4874
   26CHL1   C24 1912   1.521   5.447   8.849  0.3794  0.5157 -0.2473
   26CHL1  H24A 1913   1.438   5.409   8.913  0.5402 -1.6438 -1.2029
   26CHL1  H24B 1914   1.507   5.555   8.828 -2.2209  0.3240  0.1470
   26CHL1   C25 1915   1.535   5.363   8.720 -0.1994 -0.3915 -0.0683
   26CHL1   H25 1916   1.451   5.397   8.656 -0.9349 -1.0004  0.5553
   26CHL1   C26 1917   1.660   5.401   8.631 -0.1468 -0.6387 -0.4121
   26CHL1  H26A 1918   1.757   5.388   8.684  0.3322  3.6032  0.0728
   26CHL1  H26B 1919   1.658   5.363   8.527  0.9361 -0.3606 -0.5347
   26CHL1  H26C 1920   1.655   5.511   8.621  0.4839 -0.4760  0.8962
   26CHL1   C27 1921   1.528   5.213   8.742 -0.4796 -0.1419 -0.0995
   26CHL1  H27A 1922   1.434   5.195   8.799  0.6290  1.3747  2.3738
   26CHL1  H27B 1923   1.526   5.159   8.645  0.9381  1.0442 -0.8294
   26CHL1  H27C 1924   1.612   5.167   8.798 -0.3767 -0.7106 -0.7012
   27CHL1    C3 1925   2.244   4.067  10.294  0.0016  0.4001  0.8723
   27CHL1    H3 1926   2.170   3.985  10.288 -0.0516  0.3669  1.9103
   27CHL1    O3 1927   2.276   4.083  10.429 -0.1853 -0.1332  0.1052
   27CHL1   H3' 1928   2.304   4.174  10.438  4.6461 -1.2641 -0.6739
   27CHL1    C4 1929   2.369   4.011  10.219 -0.3865 -0.3885  0.3121
   27CHL1   H4A 1930   2.447   4.090  10.230 -1.8352  1.4529 -1.6104
   27CHL1   H4B 1931   2.394   3.908  10.250  0.6400  0.0656  1.0854
   27CHL1    C5 1932   2.352   4.012  10.070  0.5142 -0.0169  0.6617
   27CHL1    C6 1933   2.390   3.901  10.008  0.5951 -0.1723 -0.2454
   27CHL1    H6 1934   2.444   3.817  10.055  1.0546 -0.7371 -1.7303
   27CHL1    C7 1935   2.371   3.880   9.861  0.1969 -0.5469  0.2063
   27CHL1   H7A 1936   2.469   3.851   9.817  0.7878 -1.1055  1.8373
   27CHL1   H7B 1937   2.295   3.801   9.845 -1.2791  0.5995  1.2114
   27CHL1    C8 1938   2.333   4.008   9.785 -0.3097  0.1550 -0.2675
   27CHL1    H8 1939   2.426   4.067   9.776  1.3535 -2.4569 -1.4770
   27CHL1   C14 1940   2.290   3.965   9.645  0.0807 -0.1274 -0.3300
   27CHL1   H14 1941   2.199   3.901   9.653 -0.1422 -0.3606 -3.5267
   27CHL1   C15 1942   2.386   3.880   9.557  0.5586 -0.2412  0.4159
   27CHL1  H15A 1943   2.492   3.912   9.570  0.7086 -0.0786 -1.0175
   27CHL1  H15B 1944   2.381   3.772   9.580  0.5545 -0.3086  0.1038
   27CHL1   C16 1945   2.339   3.905   9.418  0.6880  0.3489 -0.0861
   27CHL1  H16A 1946   2.422   3.937   9.352  1.7211 -0.4517  0.7991
   27CHL1  H16B 1947   2.295   3.811   9.379  2.7747 -0.3085 -1.0081
   27CHL1   C17 1948   2.240   4.028   9.421 -0.5374 -0.0351 -0.0203
   27CHL1   H17 1949   2.136   3.987   9.421 -0.7310  0.4424  0.4727
   27CHL1   C13 1950   2.262   4.092   9.565  0.0732  0.0723  0.7760
   27CHL1   C18 1951   2.384   4.185   9.559  0.0337 -0.3872  0.5199
   27CHL1  H18A 1952   2.475   4.155   9.503  0.2567  0.4598  0.4251
   27CHL1  H18B 1953   2.347   4.275   9.505  1.5237  0.1553  0.3735
   27CHL1  H18C 1954   2.427   4.220   9.655  0.4348 -0.8280  0.5071
   27CHL1   C12 1955   2.142   4.165   9.629  0.3240  0.6768  0.4891
   27CHL1  H12A 1956   2.115   4.256   9.571 -0.3406 -0.3257 -0.7937
   27CHL1  H12B 1957   2.051   4.101   9.629  0.0045  1.0165 -2.1764
   27CHL1   C11 1958   2.177   4.204   9.772  0.4226  0.0145 -0.0068
   27CHL1  H11A 1959   2.247   4.290   9.762  0.2187  0.1144 -0.5669
   27CHL1  H11B 1960   2.084   4.244   9.817  0.7132  0.5881  0.0941
   27CHL1    C9 1961   2.228   4.092   9.865  0.3187 -0.0750  0.4566
   27CHL1    H9 1962   2.144   4.022   9.879  0.8267 -0.5559  1.2001
   27CHL1   C10 1963   2.284   4.136  10.000 -0.5108  0.0323 -0.3600
   27CHL1   C19 1964   2.392   4.253   9.988 -0.4376  0.5775  0.5894
   27CHL1  H19A 1965   2.376   4.341   9.922  0.4807 -1.0421 -1.9541
   27CHL1  H19B 1966   2.427   4.294  10.085 -3.4245 -0.9497  2.4422
   27CHL1  H19C 1967   2.486   4.211   9.946 -0.2728  1.9164 -0.4855
   27CHL1    C1 1968   2.163   4.188  10.086  0.6069  0.5956 -0.3483
   27CHL1   H1A 1969   2.130   4.289  10.054 -2.0490  0.3243  1.2101
   27CHL1   H1B 1970   2.078   4.118  10.071  2.1352 -0.9477 -2.1894
   27CHL1    C2 1971   2.195   4.202  10.237  0.3347  0.3592 -0.3571
   27CHL1   H2A 1972   2.095   4.215  10.284 -0.1747 -1.8098 -0.7319
   27CHL1   H2B 1973   2.252   4.296  10.253 -0.4655  0.8547 -0.3083
   27CHL1   C20 1974   2.247   4.114   9.299 -0.1558 -0.5214  0.3306
   27CHL1   H20 1975   2.353   4.147   9.297  0.4508 -2.2926  1.2076
   27CHL1   C21 1976   2.143   4.232   9.306 -0.2703  0.3345 -0.0880
   27CHL1  H21A 1977   2.132   4.285   9.209 -1.0564  1.3020  0.5064
   27CHL1  H21B 1978   2.175   4.310   9.378 -2.9012  0.5682  0.9329
   27CHL1  H21C 1979   2.043   4.186   9.325 -0.0782 -0.2924 -0.5752
   27CHL1   C22 1980   2.217   4.037   9.164 -0.3527 -0.0197 -0.1451
   27CHL1  H22A 1981   2.277   3.944   9.158 -0.8820 -0.4751  1.0987
   27CHL1  H22B 1982   2.110   4.007   9.157 -0.2205 -0.0426 -3.1516
   27CHL1   C23 1983   2.246   4.116   9.036 -0.3597 -0.0231 -0.9055
   27CHL1  H23A 1984   2.168   4.194   9.020 -2.8040 -1.4935  2.6946
   27CHL1  H23B 1985   2.342   4.171   9.049  0.7092 -1.3691 -2.6249
   27CHL1   C24 1986   2.272   4.041   8.905  0.1128  0.1595 -0.9293
   27CHL1  H24A 1987   2.366   3.983   8.923 -0.3931  0.3085  3.2535
   27CHL1  H24B 1988   2.192   3.966   8.887  2.6189 -2.8175 -0.5057
   27CHL1   C25 1989   2.286   4.128   8.781  0.1298 -0.2051  0.5827
   27CHL1   H25 1990   2.208   4.205   8.769 -0.0350 -0.3130  0.9755
   27CHL1   C26 1991   2.423   4.198   8.771  0.4876  0.1127  0.1884
   27CHL1  H26A 1992   2.431   4.286   8.838 -0.6243  0.1495  0.2854
   27CHL1  H26B 1993   2.506   4.125   8.779  0.1660 -0.2203  0.5140
   27CHL1  H26C 1994   2.431   4.238   8.667  0.2316  0.6605  0.3745
   27CHL1   C27 1995   2.274   4.041   8.652 -0.3240 -0.0391  0.3912
   27CHL1  H27A 1996   2.310   4.092   8.561  2.3236  0.1632  1.4789
   27CHL1  H27B 1997   2.340   3.952   8.653 -0.6741 -0.3049  0.0714
   27CHL1  H27C 1998   2.172   3.998   8.637 -0.3672  0.4829 -0.9272
   28CHL1    C3 1999   3.975   1.694  10.070  0.1766  0.5743 -0.4487
   28CHL1    H3 2000   3.918   1.598  10.066  0.6108  0.2030  1.4247
   28CHL1    O3 2001   4.001   1.723  10.206  0.2370  0.1806  0.2988
   28CHL1   H3' 2002   4.073   1.787  10.203  1.4405 -1.1647 -1.3049
   28CHL1    C4 2003   4.111   1.658  10.006  0.1363  0.1447  0.3592
   28CHL1   H4A 2004   4.178   1.738  10.045  0.2132  0.1041  0.3105
   28CHL1   H4B 2005   4.150   1.557  10.031  1.6530 -0.2248 -2.9827
   28CHL1    C5 2006   4.118   1.660   9.860 -1.2402 -0.2100 -0.4837
   28CHL1    C6 2007   4.171   1.559   9.785 -0.6700 -0.7623  0.1195
   28CHL1    H6 2008   4.227   1.479   9.837 -0.9507  0.2968  2.1343
   28CHL1    C7 2009   4.187   1.564   9.637 -0.3809  0.3372  0.8466
   28CHL1   H7A 2010   4.282   1.515   9.606 -0.7941  0.2614 -0.3494
   28CHL1   H7B 2011   4.111   1.502   9.585  1.5912 -0.2414 -1.5895
   28CHL1    C8 2012   4.177   1.708   9.584  0.2765 -0.5131 -0.3091
   28CHL1    H8 2013   4.271   1.763   9.605  0.3643  0.3588 -2.7104
   28CHL1   C14 2014   4.166   1.709   9.430  0.1783 -0.2018  0.6288
   28CHL1   H14 2015   4.080   1.641   9.413  1.2126 -1.3725 -0.1106
   28CHL1   C15 2016   4.285   1.646   9.357  0.7914 -1.1690 -0.4990
   28CHL1  H15A 2017   4.379   1.687   9.400  1.0938  0.0207 -2.1758
   28CHL1  H15B 2018   4.279   1.536   9.365 -0.7606 -1.1532 -1.0883
   28CHL1   C16 2019   4.277   1.700   9.211 -0.7301  0.4125 -0.4104
   28CHL1  H16A 2020   4.382   1.732   9.190 -0.7899  0.6030 -0.4158
   28CHL1  H16B 2021   4.242   1.608   9.159  0.7426 -0.3561 -0.1126
   28CHL1   C17 2022   4.167   1.812   9.211  0.5078 -0.3860  0.5953
   28CHL1   H17 2023   4.071   1.766   9.178  0.3773  0.7303 -0.6436
   28CHL1   C13 2024   4.150   1.841   9.362 -0.4994  0.0321 -0.3836
   28CHL1   C18 2025   4.262   1.944   9.397  0.0686 -0.3090 -0.4828
   28CHL1  H18A 2026   4.360   1.906   9.359  0.1669  0.8562 -1.4367
   28CHL1  H18B 2027   4.252   2.044   9.350  0.4815 -0.4057 -0.7864
   28CHL1  H18C 2028   4.285   1.953   9.505 -0.0637  1.8415 -0.6052
   28CHL1   C12 2029   4.013   1.902   9.405 -0.0775  0.1848  0.4359
   28CHL1  H12A 2030   3.994   2.003   9.362 -2.6530 -0.3344  0.2075
   28CHL1  H12B 2031   3.944   1.826   9.363  1.3684 -0.2699 -1.2921
   28CHL1   C11 2032   3.996   1.911   9.560 -0.2769  0.2324 -0.5009
   28CHL1  H11A 2033   4.060   1.993   9.598 -1.0250 -0.0738  1.5547
   28CHL1  H11B 2034   3.891   1.931   9.588  0.1723  1.5035  0.3610
   28CHL1    C9 2035   4.048   1.776   9.635  0.3525 -0.1045  0.1203
   28CHL1    H9 2036   3.968   1.703   9.612  0.6793 -0.7408  0.9522
   28CHL1   C10 2037   4.052   1.778   9.790 -0.1634  0.0536  0.2178
   28CHL1   C19 2038   4.146   1.907   9.813 -0.2769 -0.4446 -0.2764
   28CHL1  H19A 2039   4.075   1.992   9.800 -0.7458 -0.7059  0.5207
   28CHL1  H19B 2040   4.190   1.911   9.915  0.8693  2.0686 -0.8004
   28CHL1  H19C 2041   4.233   1.905   9.744 -2.0958 -1.5597 -2.6876
   28CHL1    C1 2042   3.911   1.807   9.848 -0.0478  0.0382  0.1614
   28CHL1   H1A 2043   3.868   1.904   9.816  0.6761  0.9158  1.7312
   28CHL1   H1B 2044   3.842   1.727   9.813  0.4714 -0.0863 -0.6143
   28CHL1    C2 2045   3.908   1.811  10.004  0.3300 -0.6139 -0.2308
   28CHL1   H2A 2046   3.807   1.826  10.049  0.1467 -1.4844 -0.3289
   28CHL1   H2B 2047   3.967   1.899  10.037  0.9894 -0.9928 -0.3890
   28CHL1   C20 2048   4.194   1.920   9.103  0.1403  0.0774 -0.0871
   28CHL1   H20 2049   4.298   1.955   9.116  0.1219 -0.5832  2.5811
   28CHL1   C21 2050   4.086   2.029   9.111 -0.5455 -0.1273 -0.0649
   28CHL1  H21A 2051   3.987   1.978   9.102 -1.2705  0.4583  3.2956
   28CHL1  H21B 2052   4.102   2.102   9.029  0.8066  2.8040  2.6074
   28CHL1  H21C 2053   4.091   2.100   9.196 -0.5320  0.6126 -0.6633
   28CHL1   C22 2054   4.197   1.856   8.963 -0.3418 -0.4653 -0.0416
   28CHL1  H22A 2055   4.259   1.764   8.970 -0.1274 -0.2483  1.1196
   28CHL1  H22B 2056   4.098   1.813   8.937 -0.4406 -0.5814  0.5185
   28CHL1   C23 2057   4.255   1.941   8.856 -0.2457 -0.7624 -0.2821
   28CHL1  H23A 2058   4.245   2.051   8.861 -0.7610 -0.6205 -3.0296
   28CHL1  H23B 2059   4.365   1.926   8.849 -0.5059 -1.7928 -3.7242
   28CHL1   C24 2060   4.199   1.900   8.714 -0.1610 -0.0287 -0.2501
   28CHL1  H24A 2061   4.249   1.802   8.700 -0.8097 -0.3858 -0.1145
   28CHL1  H24B 2062   4.088   1.896   8.718 -0.2831  0.7195 -2.0249
   28CHL1   C25 2063   4.228   1.996   8.600 -0.2616 -0.0824  0.4511
   28CHL1   H25 2064   4.175   2.094   8.607 -2.2918 -1.0268 -0.6806
   28CHL1   C26 2065   4.374   2.046   8.588 -0.3423  0.3531  0.5106
   28CHL1  H26A 2066   4.379   2.135   8.522 -4.0347  1.5453  1.6087
   28CHL1  H26B 2067   4.400   2.091   8.686  1.4715  4.7733 -1.7078
   28CHL1  H26C 2068   4.448   1.968   8.561 -0.4794  0.6375 -0.7542
   28CHL1   C27 2069   4.186   1.939   8.458 -0.1881 -0.2279  0.1548
   28CHL1  H27A 2070   4.254   1.855   8.433  2.0685  1.4834  0.3143
   28CHL1  H27B 2071   4.080   1.904   8.456 -0.3185  0.0626  1.4124
   28CHL1  H27C 2072   4.199   2.018   8.381  1.5509  1.1862  1.8307
   29CHL1    C3 2073   1.899   2.087   6.789  0.7963 -0.0207  0.4799
   29CHL1    H3 2074   1.810   2.026   6.814  0.6489  0.1636  0.4057
   29CHL1    O3 2075   1.908   2.109   6.651  0.5723 -0.0642  0.2216
   29CHL1   H3' 2076   1.953   2.034   6.611  1.1818  1.2102 -1.6050
   29CHL1    C4 2077   1.884   2.221   6.871  0.6405  0.2861 -0.2373
   29CHL1   H4A 2078   1.961   2.298   6.846 -0.1942  1.2147 -0.0173
   29CHL1   H4B 2079   1.787   2.260   6.832  0.3848  1.0675  1.1318
   29CHL1    C5 2080   1.884   2.205   7.023  0.5429  0.3469 -0.5792
   29CHL1    C6 2081   1.781   2.243   7.095  0.4537  0.3489  0.4172
   29CHL1    H6 2082   1.699   2.290   7.038  2.1121  0.5257 -1.9514
   29CHL1    C7 2083   1.773   2.229   7.241  0.3276  0.0986 -0.0828
   29CHL1   H7A 2084   1.746   2.330   7.277  2.8071  0.6604  0.3813
   29CHL1   H7B 2085   1.691   2.161   7.273  0.2802 -0.2028 -0.8355
   29CHL1    C8 2086   1.910   2.188   7.315 -1.1763 -0.0654  0.5663
   29CHL1    H8 2087   1.966   2.283   7.306 -2.6528  0.6659 -1.8706
   29CHL1   C14 2088   1.881   2.136   7.454 -0.4798  0.0159  0.1770
   29CHL1   H14 2089   1.830   2.040   7.431  0.7874 -0.2923 -1.6247
   29CHL1   C15 2090   1.790   2.220   7.548 -0.3918  0.6848  0.4546
   29CHL1  H15A 2091   1.815   2.328   7.538 -0.2524  0.5901 -0.3297
   29CHL1  H15B 2092   1.679   2.218   7.536 -0.4440  1.1306  0.8446
   29CHL1   C16 2093   1.827   2.171   7.690 -0.7587 -0.2603 -0.5664
   29CHL1  H16A 2094   1.866   2.247   7.760 -1.3893 -0.4273 -0.0293
   29CHL1  H16B 2095   1.740   2.118   7.734 -0.7611 -2.0688 -2.5777
   29CHL1   C17 2096   1.935   2.056   7.668 -0.0418  1.1777 -0.2865
   29CHL1   H17 2097   1.885   1.958   7.652  2.4213 -0.7090  2.4157
   29CHL1   C13 2098   2.003   2.092   7.538  0.3438  0.2125  0.2236
   29CHL1   C18 2099   2.107   2.203   7.563 -0.3019  0.3046 -0.6617
   29CHL1  H18A 2100   2.207   2.159   7.586 -0.9726 -0.6562  0.5005
   29CHL1  H18B 2101   2.121   2.263   7.470  0.9953 -2.2088 -2.2294
   29CHL1  H18C 2102   2.075   2.273   7.643 -1.4646  0.7264 -1.4788
   29CHL1   C12 2103   2.064   1.973   7.454 -0.8368  0.0207 -0.3924
   29CHL1  H12A 2104   2.158   1.939   7.501 -0.6473  0.0635 -0.7385
   29CHL1  H12B 2105   1.992   1.888   7.460 -0.9516  0.2076  1.7155
   29CHL1   C11 2106   2.103   2.009   7.310 -0.3841 -0.2986  0.1117
   29CHL1  H11A 2107   2.184   2.084   7.323  0.5331 -1.5328  2.0476
   29CHL1  H11B 2108   2.141   1.919   7.258  1.2499  0.5307 -0.1788
   29CHL1    C9 2109   1.978   2.076   7.235 -0.8003 -0.1748 -0.0440
   29CHL1    H9 2110   1.903   1.994   7.232  1.5776 -2.5015  0.5244
   29CHL1   C10 2111   1.998   2.120   7.086  0.3863 -0.6032 -0.0535
   29CHL1   C19 2112   2.129   2.199   7.073  0.1155  0.4868 -0.2641
   29CHL1  H19A 2113   2.135   2.274   7.155  1.8002 -0.0159  0.1150
   29CHL1  H19B 2114   2.217   2.133   7.087 -0.2271  0.3098  1.1571
   29CHL1  H19C 2115   2.152   2.247   6.975  2.0518 -4.9430 -2.8699
   29CHL1    C1 2116   2.014   1.994   7.000 -0.2484  0.2132  0.8523
   29CHL1   H1A 2117   2.106   1.939   7.029 -0.1976 -0.3466 -0.2821
   29CHL1   H1B 2118   1.942   1.913   7.025  0.2271 -0.7726 -0.7586
   29CHL1    C2 2119   2.015   2.005   6.843 -0.1162 -0.6665  0.5300
   29CHL1   H2A 2120   2.010   1.905   6.796 -0.1815 -0.5354  0.2568
   29CHL1   H2B 2121   2.112   2.053   6.818  0.6278 -1.9016  0.9725
   29CHL1   C20 2122   2.018   2.028   7.795  0.2909  0.1844 -0.2954
   29CHL1   H20 2123   2.086   2.115   7.810 -0.7084  1.0153 -0.4218
   29CHL1   C21 2124   2.112   1.905   7.766 -0.0860 -0.2977  0.6809
   29CHL1  H21A 2125   2.190   1.924   7.689 -1.3512 -1.1766 -0.8930
   29CHL1  H21B 2126   2.043   1.830   7.722 -2.7598  2.8522 -1.0216
   29CHL1  H21C 2127   2.176   1.879   7.853  1.3143  4.4044  1.3229
   29CHL1   C22 2128   1.930   2.008   7.921 -0.0052  0.7746 -0.3240
   29CHL1  H22A 2129   1.865   2.098   7.928 -0.5141  0.4025 -0.1535
   29CHL1  H22B 2130   1.864   1.919   7.919 -0.5965  1.1938  0.0758
   29CHL1   C23 2131   2.010   2.001   8.053  0.0878  0.2011  0.3886
   29CHL1  H23A 2132   2.085   1.920   8.046 -0.3416 -0.1186 -0.7127
   29CHL1  H23B 2133   2.056   2.102   8.065  1.7847 -0.3159 -1.2699
   29CHL1   C24 2134   1.919   1.982   8.174  1.0154 -0.4198  0.1587
   29CHL1  H24A 2135   1.846   2.065   8.183 -0.1997 -1.5709  1.4187
   29CHL1  H24B 2136   1.856   1.893   8.156  0.2545 -0.3303  2.2302
   29CHL1   C25 2137   1.989   1.959   8.307  0.3085  0.0826 -0.0203
   29CHL1   H25 2138   2.036   1.858   8.301 -0.2856 -0.1609 -0.8643
   29CHL1   C26 2139   2.105   2.057   8.322 -0.8503 -0.1932  0.0640
   29CHL1  H26A 2140   2.169   2.035   8.410  0.6434 -0.6656 -1.0786
   29CHL1  H26B 2141   2.169   2.062   8.231  0.2254  1.3119  0.8607
   29CHL1  H26C 2142   2.058   2.157   8.330  0.4254  0.5145 -0.8284
   29CHL1   C27 2143   1.896   1.949   8.434  0.6443  0.2527  1.1274
   29CHL1  H27A 2144   1.824   1.865   8.427  0.8687  0.1828 -1.3613
   29CHL1  H27B 2145   1.952   1.948   8.529  1.8641 -1.1670  0.4388
   29CHL1  H27C 2146   1.830   2.039   8.428  0.7737  0.3423  1.0365
   30CHL1    C3 2147   0.297   4.632   7.208 -0.9347 -0.4559 -0.5106
   30CHL1    H3 2148   0.371   4.704   7.170 -1.7717 -0.2703 -1.8752
   30CHL1    O3 2149   0.297   4.517   7.128  0.2070 -0.2639  0.2105
   30CHL1   H3' 2150   0.272   4.546   7.040  0.8417 -0.8607 -0.1731
   30CHL1    C4 2151   0.332   4.590   7.354  0.2023  0.3464 -0.8922
   30CHL1   H4A 2152   0.246   4.524   7.381  1.4999 -1.0579 -0.0885
   30CHL1   H4B 2153   0.425   4.531   7.364 -0.2084 -0.3494 -1.0714
   30CHL1    C5 2154   0.336   4.718   7.440 -0.1019 -0.4191 -0.0986
   30CHL1    C6 2155   0.450   4.762   7.493 -0.4356 -0.8520  0.2980
   30CHL1    H6 2156   0.541   4.703   7.471  0.2088  1.2017 -3.3392
   30CHL1    C7 2157   0.452   4.867   7.600 -0.6566 -0.1964  0.6894
   30CHL1   H7A 2158   0.494   4.830   7.695  1.1197  1.5684  0.6552
   30CHL1   H7B 2159   0.516   4.952   7.568  0.7904 -2.0103 -1.5854
   30CHL1    C8 2160   0.314   4.913   7.646  0.5372 -0.3330 -0.7278
   30CHL1    H8 2161   0.267   4.842   7.718 -2.6644  1.2195 -1.0992
   30CHL1   C14 2162   0.330   5.047   7.714 -0.4150 -0.0754  0.2803
   30CHL1   H14 2163   0.365   5.117   7.635  0.6518 -0.1774  0.6518
   30CHL1   C15 2164   0.431   5.049   7.828 -0.1416 -0.4692 -1.0187
   30CHL1  H15A 2165   0.405   4.967   7.900  2.5667  0.4057  1.1214
   30CHL1  H15B 2166   0.539   5.035   7.806  0.4213  1.8366  0.0322
   30CHL1   C16 2167   0.387   5.178   7.899 -0.0583 -1.2598 -0.0453
   30CHL1  H16A 2168   0.359   5.154   8.004  1.2149  1.6887  1.0794
   30CHL1  H16B 2169   0.468   5.254   7.898  0.0485 -1.3321  1.1666
   30CHL1   C17 2170   0.260   5.232   7.822 -0.2031  0.1911  0.2335
   30CHL1   H17 2171   0.305   5.289   7.739  2.2450 -0.3102  1.1432
   30CHL1   C13 2172   0.203   5.108   7.759 -0.0788  0.4936  0.4720
   30CHL1   C18 2173   0.130   5.031   7.876 -0.2762  0.5841 -0.0185
   30CHL1  H18A 2174   0.042   5.083   7.921 -0.7768  0.1206 -0.4536
   30CHL1  H18B 2175   0.103   4.929   7.842 -0.1817  0.0338  1.4642
   30CHL1  H18C 2176   0.208   5.009   7.952 -0.7514  0.1274  0.3455
   30CHL1   C12 2177   0.107   5.129   7.648 -0.1450  0.5252  0.5070
   30CHL1  H12A 2178   0.007   5.166   7.680 -0.1669  0.7045  0.2349
   30CHL1  H12B 2179   0.147   5.202   7.575 -0.5867 -0.4554 -0.7460
   30CHL1   C11 2180   0.080   4.995   7.572  0.1266  0.0718  0.8619
   30CHL1  H11A 2181   0.027   4.926   7.641  0.1789 -2.2003 -1.2135
   30CHL1  H11B 2182   0.018   4.998   7.480  1.8973 -0.7270 -0.4106
   30CHL1    C9 2183   0.221   4.930   7.526 -0.1314  0.3413  0.1091
   30CHL1    H9 2184   0.269   5.007   7.460  1.1387  0.8976  1.6170
   30CHL1   C10 2185   0.206   4.790   7.451  0.7636 -0.0705  0.1570
   30CHL1   C19 2186   0.113   4.705   7.533 -0.1120 -0.3868 -0.2366
   30CHL1  H19A 2187   0.152   4.684   7.634  0.1514  0.4886 -0.1529
   30CHL1  H19B 2188   0.014   4.750   7.553  0.8037  2.1629 -1.0669
   30CHL1  H19C 2189   0.088   4.610   7.481  0.1461  0.0457 -1.1760
   30CHL1    C1 2190   0.153   4.817   7.304  0.4982  0.1416 -0.2531
   30CHL1   H1A 2191   0.051   4.860   7.307  1.5659  3.4406 -3.7820
   30CHL1   H1B 2192   0.210   4.902   7.261 -1.2177  0.8748 -1.1889
   30CHL1    C2 2193   0.160   4.700   7.206 -0.0797  0.7223  0.3392
   30CHL1   H2A 2194   0.133   4.744   7.108 -1.5237  2.0057  1.2583
   30CHL1   H2B 2195   0.083   4.622   7.223 -0.8831  1.1197 -1.2653
   30CHL1   C20 2196   0.174   5.322   7.914  0.1759  0.5096  0.2839
   30CHL1   H20 2197   0.141   5.257   7.998  1.2705  3.4114  3.1751
   30CHL1   C21 2198   0.053   5.378   7.842  0.0456 -0.3292 -0.4483
   30CHL1  H21A 2199  -0.029   5.304   7.833 -0.7930  0.4965  0.2797
   30CHL1  H21B 2200   0.065   5.421   7.740  0.4973  0.5828 -0.0152
   30CHL1  H21C 2201  -0.001   5.460   7.892 -0.9192  0.1946 -2.2748
   30CHL1   C22 2202   0.252   5.433   7.990 -0.0357 -0.1339  0.1722
   30CHL1  H22A 2203   0.189   5.467   8.074  0.1619  1.6753 -0.3468
   30CHL1  H22B 2204   0.349   5.399   8.031  0.6906  1.4413 -0.1655
   30CHL1   C23 2205   0.302   5.556   7.905  0.6115  0.0072 -0.2023
   30CHL1  H23A 2206   0.368   5.522   7.823 -0.2701 -1.6477 -0.2666
   30CHL1  H23B 2207   0.209   5.594   7.858  0.8712 -1.1276 -1.7138
   30CHL1   C24 2208   0.363   5.671   7.989 -0.0090 -0.1588 -0.6027
   30CHL1  H24A 2209   0.292   5.678   8.074 -0.9453 -0.9263 -1.2988
   30CHL1  H24B 2210   0.463   5.645   8.031  0.6089  1.0471 -1.2472
   30CHL1   C25 2211   0.384   5.804   7.915 -0.2908 -0.1888 -0.1530
   30CHL1   H25 2212   0.450   5.789   7.827 -3.4333 -1.3137 -2.5095
   30CHL1   C26 2213   0.256   5.864   7.852  0.4126  0.0407  0.0325
   30CHL1  H26A 2214   0.201   5.795   7.785  2.0104  0.5328 -1.8787
   30CHL1  H26B 2215   0.183   5.915   7.919  0.5556 -0.1942  0.3671
   30CHL1  H26C 2216   0.301   5.950   7.797 -0.7337  0.5551 -0.1290
   30CHL1   C27 2217   0.444   5.906   8.008  0.0573  0.0513  0.2413
   30CHL1  H27A 2218   0.465   5.993   7.941  0.1398 -0.2084 -0.0736
   30CHL1  H27B 2219   0.381   5.956   8.085  0.3755  0.2736  0.3575
   30CHL1  H27C 2220   0.539   5.877   8.057  0.5023  1.2982  0.1419
   31CHL1    C3 2221   0.290   1.682   6.715 -0.0324 -0.0623  0.1206
   31CHL1    H3 2222   0.219   1.765   6.732 -0.0687  0.6611 -3.0588
   31CHL1    O3 2223   0.306   1.689   6.572 -0.0122 -0.4696 -0.6439
   31CHL1   H3' 2224   0.348   1.610   6.538  0.2033 -0.9768  0.7324
   31CHL1    C4 2225   0.425   1.688   6.785 -0.3488 -0.7496  0.7661
   31CHL1   H4A 2226   0.496   1.607   6.759 -0.5599 -0.1308 -2.0721
   31CHL1   H4B 2227   0.470   1.785   6.755  0.9609 -1.6821 -0.4836
   31CHL1    C5 2228   0.413   1.670   6.934  0.5938  0.1569  0.2262
   31CHL1    C6 2229   0.441   1.774   7.020  0.3783  0.9523 -0.3287
   31CHL1    H6 2230   0.490   1.865   6.982  0.7457  0.7012 -0.4544
   31CHL1    C7 2231   0.415   1.773   7.168 -0.2766 -0.0449  0.6210
   31CHL1   H7A 2232   0.509   1.811   7.212  0.7515  0.6063 -1.9569
   31CHL1   H7B 2233   0.332   1.843   7.194 -0.3707  0.2004 -0.2936
   31CHL1    C8 2234   0.398   1.626   7.211 -0.1046 -0.7432 -0.1661
   31CHL1    H8 2235   0.500   1.581   7.205  0.9553  1.5245 -0.5757
   31CHL1   C14 2236   0.357   1.626   7.359  0.0286  0.0538 -0.6044
   31CHL1   H14 2237   0.259   1.677   7.358  0.3463  0.7330  0.7635
   31CHL1   C15 2238   0.438   1.704   7.458  0.3540  0.2631 -0.1467
   31CHL1  H15A 2239   0.548   1.689   7.452  0.6406  1.0194  2.3374
   31CHL1  H15B 2240   0.420   1.813   7.442  1.5269  0.6649  1.0717
   31CHL1   C16 2241   0.392   1.646   7.594 -0.4569  0.3830  0.2088
   31CHL1  H16A 2242   0.485   1.614   7.645  0.0268 -0.8157 -1.3702
   31CHL1  H16B 2243   0.343   1.719   7.663 -0.2073  0.0582  0.7337
   31CHL1   C17 2244   0.292   1.535   7.568 -0.3600  0.3636 -0.3680
   31CHL1   H17 2245   0.192   1.580   7.553  0.2204  1.4890 -1.0462
   31CHL1   C13 2246   0.328   1.495   7.427 -0.0106  0.6279  0.4572
   31CHL1   C18 2247   0.456   1.405   7.432  0.5265 -0.1388 -0.2817
   31CHL1  H18A 2248   0.532   1.445   7.502  0.2492 -0.4677  0.2142
   31CHL1  H18B 2249   0.434   1.309   7.484 -0.3279  0.5541  0.6672
   31CHL1  H18C 2250   0.507   1.380   7.336 -2.1089 -1.1052 -1.5269
   31CHL1   C12 2251   0.218   1.420   7.345  0.6219 -0.8503 -0.9667
   31CHL1  H12A 2252   0.197   1.324   7.395 -1.3349 -0.0164 -0.0834
   31CHL1  H12B 2253   0.126   1.480   7.363  0.6339 -0.3520 -2.4092
   31CHL1   C11 2254   0.248   1.415   7.187 -0.1272 -0.0771  0.1024
   31CHL1  H11A 2255   0.335   1.345   7.194 -1.5037 -1.9786 -0.7492
   31CHL1  H11B 2256   0.165   1.367   7.130 -3.5754  0.0313  4.5120
   31CHL1    C9 2257   0.289   1.556   7.127  0.1547  0.4209  0.4431
   31CHL1    H9 2258   0.198   1.619   7.139 -0.8307 -0.9048  0.0682
   31CHL1   C10 2259   0.333   1.550   6.978 -0.9061  0.8365 -0.9797
   31CHL1   C19 2260   0.420   1.422   6.960  0.4594  0.1476 -0.4301
   31CHL1  H19A 2261   0.358   1.331   6.973 -2.1692  1.8951 -0.0174
   31CHL1  H19B 2262   0.476   1.412   6.865  1.8493  0.9088  0.2799
   31CHL1  H19C 2263   0.499   1.422   7.037 -1.2854 -0.0273  1.4422
   31CHL1    C1 2264   0.199   1.531   6.899  0.9537 -0.2471  0.7147
   31CHL1   H1A 2265   0.150   1.436   6.930  2.5833 -0.3941  3.1202
   31CHL1   H1B 2266   0.136   1.619   6.924  1.0247 -0.3375  1.2330
   31CHL1    C2 2267   0.221   1.542   6.751 -0.9144 -0.1913  0.4914
   31CHL1   H2A 2268   0.124   1.549   6.696  0.0198 -2.0975 -1.5466
   31CHL1   H2B 2269   0.280   1.460   6.706 -0.9985  0.2722 -0.5072
   31CHL1   C20 2270   0.279   1.432   7.680 -0.0620 -0.0307 -0.8544
   31CHL1   H20 2271   0.385   1.398   7.678  0.9184  2.7548 -0.4847
   31CHL1   C21 2272   0.185   1.314   7.650  0.0903 -0.3669  0.6268
   31CHL1  H21A 2273   0.231   1.252   7.571  1.6608  0.3229  0.9642
   31CHL1  H21B 2274   0.085   1.359   7.633  0.0499  1.0605  3.8164
   31CHL1  H21C 2275   0.170   1.245   7.736 -2.0945 -0.8056 -0.0560
   31CHL1   C22 2276   0.271   1.489   7.826  0.2334 -0.2104  0.0663
   31CHL1  H22A 2277   0.350   1.563   7.847 -0.1215  0.3480 -0.5234
   31CHL1  H22B 2278   0.188   1.562   7.829 -0.7632 -1.3087  0.2084
   31CHL1   C23 2279   0.270   1.375   7.928  0.3349 -0.5305  0.2080
   31CHL1  H23A 2280   0.171   1.327   7.944  0.8771 -2.0131 -0.6930
   31CHL1  H23B 2281   0.338   1.293   7.898  0.6269 -0.7464  1.4053
   31CHL1   C24 2282   0.317   1.431   8.065  0.1236  0.3085  0.8189
   31CHL1  H24A 2283   0.415   1.481   8.048 -0.8586  1.5805 -1.5435
   31CHL1  H24B 2284   0.251   1.515   8.094 -1.0408  0.1616 -1.2174
   31CHL1   C25 2285   0.318   1.329   8.174  0.2930  0.2151  0.5756
   31CHL1   H25 2286   0.373   1.237   8.142  2.9857  1.8868  0.1453
   31CHL1   C26 2287   0.401   1.382   8.287 -0.8869 -0.7215 -0.0644
   31CHL1  H26A 2288   0.494   1.434   8.254 -0.1805 -1.3813  0.8388
   31CHL1  H26B 2289   0.345   1.470   8.325  0.3570  0.7893 -1.5837
   31CHL1  H26C 2290   0.419   1.312   8.371  0.7394  1.8085  1.8678
   31CHL1   C27 2291   0.185   1.291   8.230  0.8350 -0.0250 -0.3588
   31CHL1  H27A 2292   0.126   1.235   8.154  0.9630 -0.6516 -0.0001
   31CHL1  H27B 2293   0.119   1.379   8.249  1.5980  0.6060 -0.5876
   31CHL1  H27C 2294   0.197   1.236   8.326  0.3685 -1.2689 -0.9897
   32CHL1    C3 2295   6.127   1.093   6.895  0.1804 -0.8151  0.0919
   32CHL1    H3 2296   6.017   1.110   6.896  0.4323  1.3451 -1.9386
   32CHL1    O3 2297   6.171   1.116   6.763  0.1652  0.5715  0.5013
   32CHL1   H3' 2298   6.171   1.034   6.714 -1.3395  1.5349 -1.2229
   32CHL1    C4 2299   6.203   1.202   6.979  1.0820  0.1376  0.2474
   32CHL1   H4A 2300   6.310   1.200   6.951  0.7677  0.8480 -1.0939
   32CHL1   H4B 2301   6.163   1.300   6.946 -1.7997 -0.9568  0.1422
   32CHL1    C5 2302   6.176   1.182   7.128  0.5459 -0.3384 -0.7432
   32CHL1    C6 2303   6.132   1.283   7.206 -0.2644 -0.3495  0.0865
   32CHL1    H6 2304   6.122   1.379   7.151  2.4847 -0.0099  0.0281
   32CHL1    C7 2305   6.115   1.284   7.355 -0.1554 -0.7505 -0.0304
   32CHL1   H7A 2306   6.170   1.370   7.398 -3.2265  0.8889  0.9149
   32CHL1   H7B 2307   6.006   1.296   7.376  0.3176  1.5061  1.4160
   32CHL1    C8 2308   6.153   1.151   7.417 -0.2862  0.0518  0.2799
   32CHL1    H8 2309   6.263   1.158   7.434 -0.2494  0.8119 -0.2362
   32CHL1   C14 2310   6.084   1.136   7.557 -0.2389  0.2439 -0.0223
   32CHL1   H14 2311   5.979   1.149   7.525  0.1427 -0.9484 -1.9063
   32CHL1   C15 2312   6.097   1.234   7.662 -0.4014 -1.1712 -0.1611
   32CHL1  H15A 2313   6.194   1.283   7.684 -1.8311  1.3465  1.0185
   32CHL1  H15B 2314   6.037   1.322   7.631  2.0348  0.5341 -0.3083
   32CHL1   C16 2315   6.032   1.175   7.786 -0.8998 -0.4358  0.4349
   32CHL1  H16A 2316   6.107   1.185   7.867 -0.1996  1.5527 -0.4024
   32CHL1  H16B 2317   5.940   1.224   7.826 -0.5590  1.0323 -0.4986
   32CHL1   C17 2318   6.021   1.018   7.758  0.3176 -0.2961 -0.5874
   32CHL1   H17 2319   5.917   0.990   7.732  0.4148  1.5867 -3.5700
   32CHL1   C13 2320   6.109   1.004   7.635 -0.0418  0.4392  0.0086
   32CHL1   C18 2321   6.258   0.992   7.680 -0.4323 -0.6280  0.2879
   32CHL1  H18A 2322   6.319   0.976   7.588 -0.5325  1.0646 -0.1041
   32CHL1  H18B 2323   6.295   1.080   7.737 -0.3073 -0.8915  0.6170
   32CHL1  H18C 2324   6.282   0.907   7.746 -0.2778 -0.5845  0.2893
   32CHL1   C12 2325   6.069   0.893   7.542 -0.1738 -0.2755  0.1435
   32CHL1  H12A 2326   6.100   0.793   7.579  2.0595  0.0009 -0.7988
   32CHL1  H12B 2327   5.959   0.883   7.527 -0.6220  0.5585  2.4438
   32CHL1   C11 2328   6.147   0.892   7.406  1.0115 -0.4475 -0.3669
   32CHL1  H11A 2329   6.254   0.877   7.432  0.7047 -0.5376  0.9358
   32CHL1  H11B 2330   6.097   0.808   7.353 -1.5335  1.4504 -1.1739
   32CHL1    C9 2331   6.126   1.030   7.326  0.2809  0.6061  0.5800
   32CHL1    H9 2332   6.017   1.026   7.305  0.8921 -2.8824 -2.9306
   32CHL1   C10 2333   6.189   1.036   7.187 -0.1866 -0.6842 -0.9681
   32CHL1   C19 2334   6.344   1.020   7.204  0.3319  0.2998  0.4415
   32CHL1  H19A 2335   6.382   1.093   7.279 -0.3865  1.2932 -0.1394
   32CHL1  H19B 2336   6.373   0.919   7.242  0.7560  0.4788  0.5947
   32CHL1  H19C 2337   6.397   1.024   7.107  0.9413 -0.3809  0.7352
   32CHL1    C1 2338   6.118   0.935   7.098 -0.2738  0.2277  0.5451
   32CHL1   H1A 2339   6.137   0.830   7.128 -1.6762  0.1287  1.1732
   32CHL1   H1B 2340   6.010   0.954   7.111 -0.8349 -1.9720 -0.4247
   32CHL1    C2 2341   6.161   0.951   6.953  0.7420  0.0774 -0.6951
   32CHL1   H2A 2342   6.100   0.882   6.890 -0.7718  1.4737 -0.8291
   32CHL1   H2B 2343   6.267   0.940   6.923  0.5101  1.0751 -2.0058
   32CHL1   C20 2344   6.046   0.930   7.886 -0.3455 -0.5513 -0.1567
   32CHL1   H20 2345   6.153   0.930   7.913 -0.4134  0.1722  0.1393
   32CHL1   C21 2346   6.007   0.779   7.853  0.1267 -0.5311 -0.0244
   32CHL1  H21A 2347   5.898   0.782   7.832 -0.4830  4.4951  2.3429
   32CHL1  H21B 2348   6.034   0.719   7.943  1.8124  1.8422  1.1607
   32CHL1  H21C 2349   6.063   0.736   7.768 -0.2952  1.3454 -1.3164
   32CHL1   C22 2350   5.956   0.973   8.000  0.9200 -0.7139 -0.2446
   32CHL1  H22A 2351   5.992   1.076   8.022  2.2987 -1.6419  2.3404
   32CHL1  H22B 2352   5.848   0.978   7.975  0.5911  1.0674  1.2550
   32CHL1   C23 2353   5.976   0.891   8.123 -0.2217  0.5922 -0.3839
   32CHL1  H23A 2354   5.893   0.818   8.116  0.3254 -0.1307  0.5572
   32CHL1  H23B 2355   6.072   0.835   8.114  0.1527  1.3712 -1.5524
   32CHL1   C24 2356   5.975   0.970   8.252 -0.2538  0.4544  0.4217
   32CHL1  H24A 2357   6.071   1.026   8.247 -0.1714  0.2893  0.1163
   32CHL1  H24B 2358   5.889   1.037   8.234 -0.6639 -0.5449 -1.7295
   32CHL1   C25 2359   5.961   0.895   8.383 -0.1587 -0.0375 -0.6443
   32CHL1   H25 2360   5.946   0.961   8.471 -1.4070 -1.3806  0.1752
   32CHL1   C26 2361   5.828   0.817   8.369 -0.4161 -0.8330 -0.7041
   32CHL1  H26A 2362   5.747   0.891   8.354  0.1997  0.4605  1.7137
   32CHL1  H26B 2363   5.828   0.732   8.298  0.0904 -0.4776 -1.1404
   32CHL1  H26C 2364   5.794   0.773   8.465 -1.8777 -0.8179 -1.2043
   32CHL1   C27 2365   6.074   0.791   8.413  0.6135 -0.2907 -0.3406
   32CHL1  H27A 2366   6.086   0.759   8.518  0.4284 -1.0794 -0.5512
   32CHL1  H27B 2367   6.066   0.696   8.355 -0.6928 -0.5550  0.2291
   32CHL1  H27C 2368   6.176   0.832   8.400  0.6455  0.1692  1.1782
   33CHL1    C3 2369   1.067   6.350   6.795 -0.3399  0.7093  0.5120
   33CHL1    H3 2370   1.173   6.319   6.795 -0.6201 -0.2706 -0.1548
   33CHL1    O3 2371   1.008   6.347   6.668 -0.5117  0.4668  0.2667
   33CHL1   H3' 2372   0.919   6.314   6.684 -0.3358 -0.1676 -0.0165
   33CHL1    C4 2373   0.993   6.250   6.890 -0.1740 -0.5435  0.8687
   33CHL1   H4A 2374   0.884   6.269   6.890  0.2556  2.4756  1.9066
   33CHL1   H4B 2375   0.995   6.150   6.841 -0.7771 -0.0576 -0.1522
   33CHL1    C5 2376   1.031   6.256   7.035 -0.3215 -0.1470 -0.0732
   33CHL1    C6 2377   1.084   6.149   7.099  0.0911 -0.4873 -0.4314
   33CHL1    H6 2378   1.088   6.049   7.053 -0.5227 -0.7613  0.0955
   33CHL1    C7 2379   1.125   6.152   7.247  0.7285  0.1160  0.2384
   33CHL1   H7A 2380   1.078   6.074   7.311 -1.3881 -0.1858 -1.5768
   33CHL1   H7B 2381   1.236   6.140   7.248  0.7936  0.6348 -0.2528
   33CHL1    C8 2382   1.091   6.287   7.321 -0.2787  0.0379  0.2548
   33CHL1    H8 2383   0.983   6.277   7.342  0.2555 -2.7605  2.2927
   33CHL1   C14 2384   1.175   6.296   7.444 -0.4038  0.3349 -0.1404
   33CHL1   H14 2385   1.282   6.300   7.413  0.5295  1.5211  2.9081
   33CHL1   C15 2386   1.190   6.181   7.547 -0.6461 -0.1418  0.5060
   33CHL1  H15A 2387   1.096   6.121   7.549 -1.0304  0.4401  0.2064
   33CHL1  H15B 2388   1.265   6.109   7.508 -2.7222 -1.6856 -0.8352
   33CHL1   C16 2389   1.227   6.238   7.687 -0.9807  0.6055  0.5804
   33CHL1  H16A 2390   1.136   6.226   7.750 -2.7082  1.4507 -1.5873
   33CHL1  H16B 2391   1.321   6.198   7.729 -0.5876  0.2469 -0.6180
   33CHL1   C17 2392   1.251   6.387   7.655  0.2109 -0.2806 -1.1138
   33CHL1   H17 2393   1.356   6.390   7.618  0.0202  0.4677 -1.6111
   33CHL1   C13 2394   1.156   6.416   7.533  0.3734  0.0016  0.1660
   33CHL1   C18 2395   1.006   6.420   7.591 -0.1963  0.2841  0.0255
   33CHL1  H18A 2396   0.986   6.522   7.631 -1.2256  0.3078 -0.5206
   33CHL1  H18B 2397   0.938   6.386   7.510  3.0416 -2.3178 -1.8719
   33CHL1  H18C 2398   0.991   6.346   7.673 -0.0313  1.8877  1.5693
   33CHL1   C12 2399   1.189   6.534   7.440 -0.5505  0.1077 -0.6454
   33CHL1  H12A 2400   1.174   6.632   7.491  0.5338 -0.4543  0.8578
   33CHL1  H12B 2401   1.298   6.519   7.423 -0.5734 -3.4754  1.3244
   33CHL1   C11 2402   1.102   6.533   7.316 -0.2188 -0.7702 -0.6247
   33CHL1  H11A 2403   0.998   6.552   7.349 -0.5233 -1.7247 -0.9895
   33CHL1  H11B 2404   1.139   6.607   7.243 -0.2407 -0.2110 -0.0760
   33CHL1    C9 2405   1.114   6.402   7.232 -0.3592  0.2216  0.1038
   33CHL1    H9 2406   1.224   6.393   7.217 -0.1948  2.1408 -0.1187
   33CHL1   C10 2407   1.038   6.396   7.099  0.1919  0.1315  0.5531
   33CHL1   C19 2408   0.892   6.433   7.124 -0.3777 -0.0060 -0.3228
   33CHL1  H19A 2409   0.846   6.368   7.201 -0.1812  2.0764  1.6299
   33CHL1  H19B 2410   0.867   6.536   7.157  0.5997  0.7557 -1.8412
   33CHL1  H19C 2411   0.818   6.421   7.041  0.8908 -2.0969 -1.2536
   33CHL1    C1 2412   1.103   6.494   7.000 -0.1462 -0.0240  0.2268
   33CHL1   H1A 2413   1.101   6.595   7.045 -0.0233 -0.3486  0.9677
   33CHL1   H1B 2414   1.210   6.463   7.005 -0.7170 -1.8927  2.5312
   33CHL1    C2 2415   1.060   6.493   6.847 -0.1464  0.0662  0.1340
   33CHL1   H2A 2416   1.123   6.554   6.778  0.6404 -0.8281  0.0481
   33CHL1   H2B 2417   0.955   6.530   6.841 -0.5961 -1.3029 -1.8237
   33CHL1   C20 2418   1.235   6.494   7.766  0.4859  0.1145 -0.4975
   33CHL1   H20 2419   1.134   6.539   7.768  0.2163 -0.2631 -2.6803
   33CHL1   C21 2420   1.350   6.599   7.732  0.6823 -0.1577 -1.3343
   33CHL1  H21A 2421   1.445   6.546   7.754  0.2703 -0.3410  0.1542
   33CHL1  H21B 2422   1.345   6.688   7.799  2.8845 -0.2964 -0.9067
   33CHL1  H21C 2423   1.349   6.627   7.625  1.3920 -2.7172 -2.0807
   33CHL1   C22 2424   1.264   6.428   7.908  0.2386  0.1295  0.5142
   33CHL1  H22A 2425   1.204   6.336   7.924 -1.2208  1.0213  0.3638
   33CHL1  H22B 2426   1.374   6.423   7.918  0.0443 -4.5172  3.0193
   33CHL1   C23 2427   1.211   6.515   8.027 -0.1060  0.0215 -0.6177
   33CHL1  H23A 2428   1.248   6.619   8.015  1.2424 -0.4597 -0.7621
   33CHL1  H23B 2429   1.101   6.517   8.009  0.0565  0.9977 -1.6331
   33CHL1   C24 2430   1.249   6.462   8.163  0.4236  0.8205 -0.3806
   33CHL1  H24A 2431   1.223   6.355   8.151  4.3378 -0.0425 -3.0429
   33CHL1  H24B 2432   1.359   6.454   8.173  0.3234 -0.3516 -0.0584
   33CHL1   C25 2433   1.182   6.530   8.280  0.4444 -1.1302  0.2999
   33CHL1   H25 2434   1.074   6.544   8.258  0.3051  0.4150  1.7867
   33CHL1   C26 2435   1.188   6.445   8.407  0.7324 -0.1173 -0.3248
   33CHL1  H26A 2436   1.290   6.422   8.442  0.9583 -0.4779 -1.2045
   33CHL1  H26B 2437   1.133   6.494   8.491 -0.2854 -2.1575  0.2608
   33CHL1  H26C 2438   1.139   6.346   8.391 -1.1690  0.6391  0.4474
   33CHL1   C27 2439   1.228   6.682   8.300 -0.0191  0.0742  0.0245
   33CHL1  H27A 2440   1.183   6.749   8.224 -0.5260 -0.5703 -0.2573
   33CHL1  H27B 2441   1.191   6.712   8.401 -0.3206 -0.0376 -0.0509
   33CHL1  H27C 2442   1.338   6.692   8.296  0.1745 -2.0646 -1.9681
   34CHL1    C3 2443   3.557   5.353   7.101  0.6093  1.4621 -0.2771
   34CHL1    H3 2444   3.666   5.339   7.120  1.0178  2.1102 -1.9473
   34CHL1    O3 2445   3.530   5.314   6.971  0.1683  0.0983  0.3251
   34CHL1   H3' 2446   3.549   5.394   6.923  2.5925  0.7817  2.2181
   34CHL1    C4 2447   3.474   5.261   7.188  0.7921 -0.1466 -0.6365
   34CHL1   H4A 2448   3.374   5.287   7.148  1.5717  3.1712 -0.6856
   34CHL1   H4B 2449   3.481   5.154   7.158  1.2020  0.7135 -4.0025
   34CHL1    C5 2450   3.479   5.284   7.337 -0.0666 -0.0121 -0.1264
   34CHL1    C6 2451   3.500   5.186   7.424 -0.3293  0.3110  0.0438
   34CHL1    H6 2452   3.507   5.084   7.382 -2.6050 -0.0043  0.3156
   34CHL1    C7 2453   3.505   5.205   7.571  0.1146  0.4163 -0.2125
   34CHL1   H7A 2454   3.434   5.135   7.619 -0.9685  2.2469  0.9913
   34CHL1   H7B 2455   3.606   5.182   7.610  0.3630  1.1718 -0.3963
   34CHL1    C8 2456   3.469   5.343   7.626 -0.3066 -0.7730  0.3310
   34CHL1    H8 2457   3.357   5.341   7.627 -0.6100  2.5948 -3.0534
   34CHL1   C14 2458   3.519   5.377   7.763 -0.2273  0.0749  0.1331
   34CHL1   H14 2459   3.629   5.389   7.753 -0.2628 -0.0433 -0.4112
   34CHL1   C15 2460   3.503   5.266   7.872  0.0416 -0.4284  0.3348
   34CHL1  H15A 2461   3.406   5.213   7.872 -0.8003  1.0523  0.4614
   34CHL1  H15B 2462   3.580   5.187   7.858 -0.0012 -0.3249 -0.5531
   34CHL1   C16 2463   3.517   5.339   8.004 -0.9459  0.0472 -0.5501
   34CHL1  H16A 2464   3.425   5.326   8.063 -0.1950  2.2297  1.2467
   34CHL1  H16B 2465   3.603   5.299   8.062 -0.4617 -1.3009 -2.0940
   34CHL1   C17 2466   3.536   5.488   7.970 -0.4681 -0.2232  0.2439
   34CHL1   H17 2467   3.647   5.500   7.976 -0.3738 -1.5928  3.2446
   34CHL1   C13 2468   3.486   5.507   7.828  0.6700 -0.4138 -0.0497
   34CHL1   C18 2469   3.324   5.528   7.834  0.1501  0.1811 -0.1758
   34CHL1  H18A 2470   3.290   5.631   7.855 -0.9648 -0.1511 -0.3048
   34CHL1  H18B 2471   3.295   5.512   7.729 -0.0389 -0.3253 -0.0523
   34CHL1  H18C 2472   3.284   5.450   7.904 -1.1543  1.3493  0.4223
   34CHL1   C12 2473   3.542   5.612   7.734 -0.2718 -0.6784 -0.1270
   34CHL1  H12A 2474   3.515   5.716   7.760  2.0270  0.1279 -0.7759
   34CHL1  H12B 2475   3.653   5.612   7.740 -0.1134  0.1526 -2.2000
   34CHL1   C11 2476   3.513   5.593   7.587 -0.4131 -0.0360 -0.1356
   34CHL1  H11A 2477   3.405   5.617   7.571  0.1533  1.7252 -1.6251
   34CHL1  H11B 2478   3.562   5.670   7.524 -1.1197  0.9162  0.4510
   34CHL1    C9 2479   3.527   5.453   7.522 -0.5093  0.1374 -0.3010
   34CHL1    H9 2480   3.636   5.429   7.516 -0.9242 -1.7141 -1.3710
   34CHL1   C10 2481   3.471   5.433   7.381 -0.3305 -0.1510  0.0366
   34CHL1   C19 2482   3.325   5.483   7.377 -0.6591 -0.7272  0.1026
   34CHL1  H19A 2483   3.265   5.457   7.287  1.9649 -0.8253 -1.7201
   34CHL1  H19B 2484   3.261   5.439   7.456 -2.6382 -0.6243 -1.3710
   34CHL1  H19C 2485   3.316   5.593   7.392 -0.9090 -0.7299 -0.0316
   34CHL1    C1 2486   3.557   5.516   7.281 -1.0121  0.8092 -0.5048
   34CHL1   H1A 2487   3.558   5.624   7.309  0.3366  0.9744 -1.1446
   34CHL1   H1B 2488   3.660   5.480   7.299 -2.1442 -1.7597  1.5520
   34CHL1    C2 2489   3.533   5.500   7.129 -0.8675  0.0920 -0.3627
   34CHL1   H2A 2490   3.613   5.555   7.074  2.1615 -2.7116  0.9061
   34CHL1   H2B 2491   3.432   5.538   7.104 -1.0132  0.4173  0.6806
   34CHL1   C20 2492   3.495   5.577   8.086 -0.2323  0.1421  0.1138
   34CHL1   H20 2493   3.387   5.557   8.098 -0.3853 -0.0480 -1.4487
   34CHL1   C21 2494   3.517   5.719   8.039 -1.0094 -0.0631  0.3879
   34CHL1  H21A 2495   3.622   5.736   8.008 -0.0740 -2.4970  1.8874
   34CHL1  H21B 2496   3.489   5.785   8.123  0.5987 -0.2986  1.1463
   34CHL1  H21C 2497   3.447   5.739   7.955 -0.6130  0.6108  0.2112
   34CHL1   C22 2498   3.559   5.551   8.222 -1.1672 -0.2869 -0.2502
   34CHL1  H22A 2499   3.536   5.446   8.251  0.6705 -1.3249 -2.2633
   34CHL1  H22B 2500   3.668   5.555   8.201 -1.6777  1.5843 -3.1204
   34CHL1   C23 2501   3.528   5.647   8.339 -0.2970 -0.0405 -0.9430
   34CHL1  H23A 2502   3.543   5.753   8.309 -0.8212 -0.0759 -1.3384
   34CHL1  H23B 2503   3.422   5.629   8.366 -0.0446  0.2443  0.3475
   34CHL1   C24 2504   3.599   5.611   8.470  0.2223 -0.4226 -0.1634
   34CHL1  H24A 2505   3.574   5.505   8.493 -2.7114  0.8575  3.5013
   34CHL1  H24B 2506   3.709   5.629   8.468  0.4892 -1.9464 -0.7998
   34CHL1   C25 2507   3.547   5.683   8.592  0.0186 -0.2526  0.1587
   34CHL1   H25 2508   3.436   5.679   8.592 -0.3050  3.9324  0.3292
   34CHL1   C26 2509   3.599   5.612   8.719 -0.3671 -0.3511 -0.1415
   34CHL1  H26A 2510   3.710   5.606   8.706 -0.2187  0.2240  0.7864
   34CHL1  H26B 2511   3.562   5.673   8.804  0.7791  1.5167 -0.9015
   34CHL1  H26C 2512   3.560   5.509   8.731  0.3224 -0.5281  0.6768
   34CHL1   C27 2513   3.598   5.825   8.590 -0.0564 -0.3405  0.0138
   34CHL1  H27A 2514   3.540   5.873   8.672 -2.0525  0.1821 -1.5859
   34CHL1  H27B 2515   3.707   5.836   8.606 -0.2969  3.7153  0.0327
   34CHL1  H27C 2516   3.571   5.878   8.496 -1.6347  0.4350  0.8561
   35CHL1    C3 2517   4.480   5.371   7.195  0.3265  0.0996 -0.1576
   35CHL1    H3 2518   4.575   5.413   7.234 -0.2294  1.4022 -0.1634
   35CHL1    O3 2519   4.471   5.412   7.061  0.1174 -0.1375 -0.5927
   35CHL1   H3' 2520   4.518   5.348   7.006  2.6851 -0.4934  1.7614
   35CHL1    C4 2521   4.478   5.220   7.207  0.3336 -0.6126  0.4035
   35CHL1   H4A 2522   4.380   5.186   7.169  0.9205 -0.0540 -1.7638
   35CHL1   H4B 2523   4.561   5.179   7.145 -0.2346 -0.6802 -0.3264
   35CHL1    C5 2524   4.499   5.189   7.359  0.1173 -0.1187  0.1256
   35CHL1    C6 2525   4.612   5.127   7.398 -0.0374 -0.7851 -0.0374
   35CHL1    H6 2526   4.691   5.110   7.324 -0.8129  0.2712 -1.1409
   35CHL1    C7 2527   4.637   5.105   7.545 -0.2803 -0.0918 -0.4084
   35CHL1   H7A 2528   4.686   5.007   7.564 -1.1984 -0.4237  0.3044
   35CHL1   H7B 2529   4.708   5.180   7.587 -0.7477  1.4723 -2.2612
   35CHL1    C8 2530   4.508   5.111   7.640  0.2137  0.7381  0.7584
   35CHL1    H8 2531   4.441   5.026   7.614 -0.2204  1.4396 -0.4745
   35CHL1   C14 2532   4.541   5.099   7.790 -0.2143 -0.3014 -0.3071
   35CHL1   H14 2533   4.596   5.194   7.807 -0.3865 -0.0973 -0.8550
   35CHL1   C15 2534   4.627   4.983   7.836  0.5753 -0.6240  0.3241
   35CHL1  H15A 2535   4.589   4.892   7.785 -0.9478 -0.5564  1.2936
   35CHL1  H15B 2536   4.735   4.995   7.810  0.1298  1.3421 -0.8192
   35CHL1   C16 2537   4.602   4.976   7.986 -0.1051  0.1398  0.2403
   35CHL1  H16A 2538   4.569   4.871   8.000 -0.4524  0.1604 -0.3451
   35CHL1  H16B 2539   4.687   4.993   8.055 -2.5654 -0.2225  3.6095
   35CHL1   C17 2540   4.489   5.075   8.007 -0.1405 -0.5919 -0.7119
   35CHL1   H17 2541   4.533   5.171   8.040 -0.1510 -1.3395  1.6222
   35CHL1   C13 2542   4.414   5.100   7.874 -0.1288 -0.5777  0.4659
   35CHL1   C18 2543   4.328   4.972   7.841 -0.6482 -0.4921 -0.1866
   35CHL1  H18A 2544   4.237   4.983   7.905 -0.0555  1.3617  0.4115
   35CHL1  H18B 2545   4.304   4.971   7.733 -1.0691 -0.9283 -0.0937
   35CHL1  H18C 2546   4.381   4.875   7.854 -0.9710 -0.4821  1.4143
   35CHL1   C12 2547   4.346   5.236   7.847 -0.2768  0.6042  0.0794
   35CHL1  H12A 2548   4.256   5.247   7.912  0.0153  0.8371  0.4531
   35CHL1  H12B 2549   4.422   5.316   7.864  1.3793 -0.6598 -1.0885
   35CHL1   C11 2550   4.300   5.250   7.703 -0.1485 -0.5909  0.0402
   35CHL1  H11A 2551   4.214   5.183   7.682 -1.0010 -0.2728  2.2624
   35CHL1  H11B 2552   4.260   5.353   7.690 -0.3904 -0.5414  1.0863
   35CHL1    C9 2553   4.423   5.227   7.606  0.0267 -0.1230 -0.2149
   35CHL1    H9 2554   4.491   5.314   7.620  0.4938 -0.8650  2.5199
   35CHL1   C10 2555   4.391   5.245   7.454 -0.1565  1.4304 -0.0226
   35CHL1   C19 2556   4.264   5.169   7.417 -0.1734 -0.6980  0.3846
   35CHL1  H19A 2557   4.285   5.060   7.426 -2.5216 -1.4426 -1.9479
   35CHL1  H19B 2558   4.172   5.205   7.468 -1.3505 -0.0236 -2.0637
   35CHL1  H19C 2559   4.246   5.188   7.309 -1.2166  0.7831  0.7911
   35CHL1    C1 2560   4.367   5.388   7.424 -0.0047 -0.2518 -0.0647
   35CHL1   H1A 2561   4.286   5.436   7.484  0.7226 -1.3208  1.8437
   35CHL1   H1B 2562   4.459   5.441   7.457 -1.1394  3.0869 -1.8163
   35CHL1    C2 2563   4.358   5.419   7.277  0.4141  0.1451  0.2424
   35CHL1   H2A 2564   4.351   5.530   7.268 -3.0253 -0.0497 -0.9611
   35CHL1   H2B 2565   4.274   5.377   7.217 -1.0771  3.1569  0.0271
   35CHL1   C20 2566   4.400   5.032   8.132 -0.1595  0.1522 -0.3205
   35CHL1   H20 2567   4.342   4.939   8.111 -1.4154  0.4697  1.5045
   35CHL1   C21 2568   4.305   5.152   8.159  0.0181  0.3572  0.6428
   35CHL1  H21A 2569   4.365   5.246   8.158  1.4135 -0.4936 -0.1882
   35CHL1  H21B 2570   4.252   5.147   8.256  1.2140 -2.4112  1.2343
   35CHL1  H21C 2571   4.231   5.157   8.076  0.2295 -2.7235  0.1813
   35CHL1   C22 2572   4.469   4.993   8.261 -0.1143  0.3602 -0.1923
   35CHL1  H22A 2573   4.558   4.927   8.253 -0.7099 -0.5301  0.3692
   35CHL1  H22B 2574   4.513   5.084   8.308  1.8174 -0.9600  0.6947
   35CHL1   C23 2575   4.379   4.924   8.365 -0.1217 -0.3327  0.1028
   35CHL1  H23A 2576   4.295   4.995   8.381 -0.8967 -1.2775  0.3172
   35CHL1  H23B 2577   4.344   4.830   8.316  0.8485 -0.2067 -0.8691
   35CHL1   C24 2578   4.448   4.873   8.494 -0.4020  0.1638  0.1839
   35CHL1  H24A 2579   4.512   4.784   8.477  0.9132  0.9228  1.0594
   35CHL1  H24B 2580   4.520   4.947   8.532  1.1415 -1.5722  0.7785
   35CHL1   C25 2581   4.344   4.839   8.600  0.5223 -0.0480 -0.0383
   35CHL1   H25 2582   4.244   4.882   8.576  1.0372  1.2313  0.0113
   35CHL1   C26 2583   4.308   4.690   8.617  0.2320  0.3566  0.0716
   35CHL1  H26A 2584   4.397   4.636   8.656  0.2508  0.5370  0.2864
   35CHL1  H26B 2585   4.223   4.677   8.687 -0.1666  1.9999 -0.0504
   35CHL1  H26C 2586   4.275   4.651   8.519 -1.5965  0.4320  0.6160
   35CHL1   C27 2587   4.395   4.893   8.734 -0.0889  0.3947  0.4444
   35CHL1  H27A 2588   4.505   4.877   8.737 -0.1367  0.0373  0.3315
   35CHL1  H27B 2589   4.350   4.837   8.819 -1.3980 -1.2122 -1.2059
   35CHL1  H27C 2590   4.373   5.001   8.749  1.6731  0.6360  1.5882
   36CHL1    C3 2591   4.835   5.771   7.220 -0.8861 -0.7230  0.2036
   36CHL1    H3 2592   4.848   5.874   7.259  0.2458 -0.6313 -0.3680
   36CHL1    O3 2593   4.864   5.766   7.077 -0.0962  0.6072 -0.3683
   36CHL1   H3' 2594   4.796   5.814   7.029 -2.1669 -2.3102 -0.6007
   36CHL1    C4 2595   4.943   5.678   7.287 -0.6337  0.3461  0.2707
   36CHL1   H4A 2596   4.929   5.581   7.235  0.1524 -0.1868  1.0115
   36CHL1   H4B 2597   5.046   5.718   7.272  0.0156  0.3636  3.8468
   36CHL1    C5 2598   4.918   5.656   7.433 -0.8201  0.0500 -0.0551
   36CHL1    C6 2599   5.018   5.673   7.522  0.4301  0.0491  0.0909
   36CHL1    H6 2600   5.117   5.698   7.481  0.2308 -0.8515 -0.9638
   36CHL1    C7 2601   5.009   5.666   7.671 -0.6670 -0.0070  0.4799
   36CHL1   H7A 2602   5.090   5.599   7.705 -1.3426 -0.7614  0.6187
   36CHL1   H7B 2603   5.034   5.767   7.711 -0.7090 -0.5590  1.9630
   36CHL1    C8 2604   4.869   5.614   7.721 -0.1013 -0.3852  0.3707
   36CHL1    H8 2605   4.873   5.504   7.709  2.0023 -0.3845  0.7195
   36CHL1   C14 2606   4.833   5.650   7.863 -0.7068  0.0223  0.7028
   36CHL1   H14 2607   4.808   5.758   7.868 -1.9755 -0.2464  0.4308
   36CHL1   C15 2608   4.946   5.628   7.971 -0.4689  0.4897  0.1014
   36CHL1  H15A 2609   4.998   5.531   7.954 -2.0369 -0.4447  0.4070
   36CHL1  H15B 2610   5.024   5.707   7.968  2.7802 -2.4221  0.7611
   36CHL1   C16 2611   4.870   5.624   8.107  0.1394  0.8637  0.2808
   36CHL1  H16A 2612   4.898   5.527   8.154  1.2629 -0.0234 -2.0285
   36CHL1  H16B 2613   4.900   5.699   8.183 -1.0109 -1.1713  2.9102
   36CHL1   C17 2614   4.713   5.633   8.070  0.1402 -0.3827  0.0421
   36CHL1   H17 2615   4.694   5.742   8.063 -0.3805 -0.4541  0.2614
   36CHL1   C13 2616   4.708   5.584   7.922 -0.0458 -0.1146 -0.2831
   36CHL1   C18 2617   4.720   5.433   7.924 -0.0056 -0.2979  0.0647
   36CHL1  H18A 2618   4.620   5.395   7.956  0.6345 -2.0875  0.0849
   36CHL1  H18B 2619   4.747   5.390   7.825  1.7190 -1.4853  1.0004
   36CHL1  H18C 2620   4.796   5.398   7.997 -1.1283 -2.2424  0.3791
   36CHL1   C12 2621   4.585   5.625   7.841 -0.4823 -1.2758  0.6899
   36CHL1  H12A 2622   4.499   5.562   7.870 -1.2102 -0.4787  0.3197
   36CHL1  H12B 2623   4.562   5.732   7.861  2.1555 -0.3928 -0.5990
   36CHL1   C11 2624   4.614   5.606   7.691 -0.1313 -0.2583 -0.4453
   36CHL1  H11A 2625   4.608   5.496   7.680 -0.2751 -0.3210  0.2198
   36CHL1  H11B 2626   4.529   5.652   7.635 -0.2183 -2.1305 -1.9548
   36CHL1    C9 2627   4.751   5.661   7.630  0.5109 -0.0177  0.1160
   36CHL1    H9 2628   4.748   5.772   7.639 -0.3970  0.3054 -3.0384
   36CHL1   C10 2629   4.769   5.629   7.475 -0.3092 -0.2147  0.0396
   36CHL1   C19 2630   4.750   5.485   7.441 -0.0591  0.3632  0.2646
   36CHL1  H19A 2631   4.758   5.464   7.332  0.9131  0.8367  0.2293
   36CHL1  H19B 2632   4.828   5.427   7.495 -1.6279 -0.4709  1.7031
   36CHL1  H19C 2633   4.657   5.439   7.478  0.7566  0.2606  2.3051
   36CHL1    C1 2634   4.680   5.718   7.397  0.5952 -0.6231 -0.1543
   36CHL1   H1A 2635   4.578   5.676   7.411  1.6225 -2.9473  0.9216
   36CHL1   H1B 2636   4.694   5.819   7.439 -1.2509  0.7464 -2.5863
   36CHL1    C2 2637   4.693   5.731   7.248  0.1675  0.1906 -0.0393
   36CHL1   H2A 2638   4.625   5.808   7.207 -0.0261 -0.5077 -1.0699
   36CHL1   H2B 2639   4.671   5.637   7.192  0.6118  0.2275 -0.2858
   36CHL1   C20 2640   4.613   5.581   8.174 -0.3815 -1.0566  0.3180
   36CHL1   H20 2641   4.595   5.472   8.160 -1.9915 -0.5924 -1.8474
   36CHL1   C21 2642   4.483   5.656   8.152  0.5013  0.1395  0.2833
   36CHL1  H21A 2643   4.503   5.764   8.137 -3.0660  0.7153 -1.5861
   36CHL1  H21B 2644   4.417   5.643   8.240  0.8487 -3.0175  0.1820
   36CHL1  H21C 2645   4.430   5.616   8.063 -0.3586  2.2890 -0.2224
   36CHL1   C22 2646   4.674   5.600   8.316 -0.1035 -0.9635 -0.9864
   36CHL1  H22A 2647   4.764   5.536   8.329  0.4996  0.0778  0.1342
   36CHL1  H22B 2648   4.684   5.708   8.340 -1.7199 -1.0358  0.2534
   36CHL1   C23 2649   4.578   5.569   8.438 -0.1348  0.1868 -0.9032
   36CHL1  H23A 2650   4.629   5.599   8.532 -1.3890  1.0741 -0.4875
   36CHL1  H23B 2651   4.486   5.631   8.442  0.4760  1.2881 -2.5069
   36CHL1   C24 2652   4.536   5.420   8.433 -0.3280 -0.6780  0.7455
   36CHL1  H24A 2653   4.470   5.395   8.347 -0.4829  0.3813  0.5424
   36CHL1  H24B 2654   4.628   5.358   8.425  0.8455  1.0615  0.1615
   36CHL1   C25 2655   4.458   5.366   8.550  0.1639  0.8495  0.5355
   36CHL1   H25 2656   4.491   5.261   8.557 -3.6861 -0.7709 -2.1904
   36CHL1   C26 2657   4.485   5.438   8.677 -0.1396 -0.2895  0.0721
   36CHL1  H26A 2658   4.466   5.547   8.671 -0.3425 -0.2819  0.7828
   36CHL1  H26B 2659   4.413   5.413   8.758  1.4923 -0.0472  1.6545
   36CHL1  H26C 2660   4.589   5.427   8.715 -0.6525 -1.9469  1.1301
   36CHL1   C27 2661   4.303   5.361   8.520 -0.2317 -0.0532  0.2815
   36CHL1  H27A 2662   4.288   5.312   8.421 -1.0810 -0.2460  0.5048
   36CHL1  H27B 2663   4.236   5.302   8.585  1.0656 -0.7161  1.0538
   36CHL1  H27C 2664   4.264   5.463   8.500  0.3543  0.1675  0.2489
   37CHL1    C3 2665   3.805   1.783   6.984  0.4013  0.0031 -0.2553
   37CHL1    H3 2666   3.884   1.728   7.039  0.3615 -2.1315 -2.2241
   37CHL1    O3 2667   3.838   1.775   6.845  0.3746 -0.2500 -0.2622
   37CHL1   H3' 2668   3.762   1.811   6.798 -0.9518 -1.2747  0.9998
   37CHL1    C4 2669   3.675   1.703   7.028 -0.1307  0.0837  0.0454
   37CHL1   H4A 2670   3.603   1.748   6.955 -0.2476 -3.0033 -1.9293
   37CHL1   H4B 2671   3.686   1.594   7.011 -0.1396 -0.1511  1.4313
   37CHL1    C5 2672   3.642   1.735   7.170 -0.3019  0.2896 -0.0377
   37CHL1    C6 2673   3.627   1.633   7.252 -0.1390  0.0052  0.3018
   37CHL1    H6 2674   3.649   1.531   7.215  1.3237  0.0215  1.0604
   37CHL1    C7 2675   3.598   1.645   7.401 -0.5714 -0.4765  0.7330
   37CHL1   H7A 2676   3.523   1.565   7.417 -1.4218  0.3686  1.0191
   37CHL1   H7B 2677   3.688   1.622   7.463 -0.0158  2.0337  0.9789
   37CHL1    C8 2678   3.545   1.781   7.438  0.4904 -1.3024  0.2890
   37CHL1    H8 2679   3.442   1.791   7.397 -0.3087 -1.5430  2.1366
   37CHL1   C14 2680   3.521   1.800   7.592 -0.0558  0.1646  0.2078
   37CHL1   H14 2681   3.626   1.793   7.628  0.1909 -1.7595 -0.7982
   37CHL1   C15 2682   3.440   1.698   7.669 -0.5974 -0.4467  1.1516
   37CHL1  H15A 2683   3.351   1.672   7.607 -0.3815 -0.4315  0.8334
   37CHL1  H15B 2684   3.493   1.601   7.682 -1.9239 -1.3698  0.0970
   37CHL1   C16 2685   3.398   1.783   7.790  0.1455 -0.1785 -0.0208
   37CHL1  H16A 2686   3.290   1.809   7.783  0.1868  0.0206  0.0753
   37CHL1  H16B 2687   3.429   1.730   7.883 -2.9288 -0.3556  1.0183
   37CHL1   C17 2688   3.471   1.922   7.782 -0.3245 -0.5082  0.4141
   37CHL1   H17 2689   3.575   1.912   7.818  0.9256  2.6952 -1.8560
   37CHL1   C13 2690   3.485   1.939   7.631  0.6047 -0.7150  0.1628
   37CHL1   C18 2691   3.351   1.987   7.564  0.6585 -0.3208  0.0800
   37CHL1  H18A 2692   3.267   1.923   7.597 -1.6912  1.9546 -1.1418
   37CHL1  H18B 2693   3.329   2.089   7.603 -1.4534 -1.2543  1.5292
   37CHL1  H18C 2694   3.351   2.000   7.454  0.6815  1.8700  0.2955
   37CHL1   C12 2695   3.598   2.032   7.580  0.1442  0.2880  0.0366
   37CHL1  H12A 2696   3.571   2.138   7.601  0.9053  0.3803  0.5698
   37CHL1  H12B 2697   3.686   2.004   7.642  0.0118  0.9761  0.5503
   37CHL1   C11 2698   3.619   2.026   7.428 -0.0785 -0.3379 -0.0822
   37CHL1  H11A 2699   3.541   2.083   7.373  0.2681 -1.1401 -1.4413
   37CHL1  H11B 2700   3.709   2.090   7.416  0.2688 -0.6210  0.9367
   37CHL1    C9 2701   3.646   1.882   7.376  0.2359 -0.2167 -0.2109
   37CHL1    H9 2702   3.745   1.851   7.415  0.1114 -0.9834 -0.4808
   37CHL1   C10 2703   3.646   1.878   7.218  0.9589  0.6974 -1.0074
   37CHL1   C19 2704   3.523   1.954   7.152 -0.1464  0.3085 -0.6709
   37CHL1  H19A 2705   3.516   1.953   7.042  1.7530  0.2170 -0.8222
   37CHL1  H19B 2706   3.432   1.907   7.197  0.1326 -1.3190 -1.7311
   37CHL1  H19C 2707   3.533   2.063   7.168 -0.3867 -0.0296  2.5287
   37CHL1    C1 2708   3.777   1.937   7.170  0.7829  0.4232 -0.4118
   37CHL1   H1A 2709   3.776   2.041   7.209  1.9072 -0.0623  1.0131
   37CHL1   H1B 2710   3.848   1.877   7.231  1.7146  1.8388 -0.0642
   37CHL1    C2 2711   3.804   1.934   7.022 -0.1288 -0.2674 -0.3528
   37CHL1   H2A 2712   3.898   1.987   6.996  0.2417  0.3530  2.0213
   37CHL1   H2B 2713   3.725   1.994   6.973 -1.3272 -1.6497 -0.1970
   37CHL1   C20 2714   3.419   2.040   7.875 -0.3384  0.2258  0.1153
   37CHL1   H20 2715   3.327   2.071   7.821  0.8763  0.3313 -1.9775
   37CHL1   C21 2716   3.514   2.159   7.885 -0.7297 -0.1774  0.1251
   37CHL1  H21A 2717   3.605   2.141   7.947 -2.0381  1.5626  2.7811
   37CHL1  H21B 2718   3.464   2.249   7.926 -1.8646 -1.1262  0.9170
   37CHL1  H21C 2719   3.557   2.181   7.785  0.8998 -0.1626  0.7858
   37CHL1   C22 2720   3.387   1.991   8.024 -0.3846  0.1603 -0.2273
   37CHL1  H22A 2721   3.297   1.926   8.012  0.8581 -1.3850 -1.6948
   37CHL1  H22B 2722   3.466   1.925   8.068 -2.2555 -1.4954  0.8404
   37CHL1   C23 2723   3.346   2.102   8.118  0.2811 -0.4436 -0.1235
   37CHL1  H23A 2724   3.405   2.196   8.112 -1.7296  1.0590  1.6897
   37CHL1  H23B 2725   3.243   2.137   8.094 -0.0396 -0.6038  0.9353
   37CHL1   C24 2726   3.344   2.052   8.265 -0.7123  0.0075 -0.0763
   37CHL1  H24A 2727   3.292   1.954   8.271  0.8276 -0.8634 -0.3002
   37CHL1  H24B 2728   3.454   2.046   8.281 -0.4993  0.3002 -1.3543
   37CHL1   C25 2729   3.284   2.155   8.364  0.2297  0.8985  0.0248
   37CHL1   H25 2730   3.319   2.258   8.339  1.8834  0.1251 -1.0099
   37CHL1   C26 2731   3.132   2.149   8.356 -0.4293  0.2102  0.2044
   37CHL1  H26A 2732   3.103   2.179   8.253  2.5300  0.7928 -0.5358
   37CHL1  H26B 2733   3.096   2.044   8.368  0.7555 -0.3631 -1.0634
   37CHL1  H26C 2734   3.081   2.216   8.429  1.6367 -1.1394  3.0882
   37CHL1   C27 2735   3.332   2.119   8.513 -0.1642  1.2680  0.4298
   37CHL1  H27A 2736   3.443   2.117   8.514 -0.1677 -0.2465  1.1131
   37CHL1  H27B 2737   3.305   2.199   8.585  1.1461  0.4191  1.9394
   37CHL1  H27C 2738   3.283   2.026   8.550 -1.8496  1.8195 -0.3507
   38CHL1    C3 2739   6.600   2.642   6.742  0.3632 -0.6738  0.9292
   38CHL1    H3 2740   6.648   2.740   6.761  0.9244 -0.4714 -1.2829
   38CHL1    O3 2741   6.587   2.619   6.602  0.2118  0.3762  0.7929
   38CHL1   H3' 2742   6.522   2.550   6.591  1.5494 -1.1390  1.9358
   38CHL1    C4 2743   6.684   2.533   6.811 -0.5005 -0.4167  0.4424
   38CHL1   H4A 2744   6.649   2.430   6.787 -1.1166  0.0147 -0.5309
   38CHL1   H4B 2745   6.787   2.538   6.770 -1.1838  0.5524 -1.2311
   38CHL1    C5 2746   6.703   2.549   6.963  0.2142 -0.3067  0.6649
   38CHL1    C6 2747   6.825   2.569   7.025  0.5287  0.3381  0.4274
   38CHL1    H6 2748   6.916   2.560   6.964 -0.7780 -1.3106 -1.4163
   38CHL1    C7 2749   6.842   2.584   7.172 -0.4887  0.7567 -0.1071
   38CHL1   H7A 2750   6.919   2.512   7.210 -1.1022  0.4796  0.6425
   38CHL1   H7B 2751   6.875   2.687   7.197 -1.9212  1.0175  0.8210
   38CHL1    C8 2752   6.707   2.550   7.253 -0.7496 -0.7269 -0.2303
   38CHL1    H8 2753   6.693   2.440   7.262  1.1009 -0.8775  1.5265
   38CHL1   C14 2754   6.714   2.598   7.398  0.1175  0.3152 -1.2237
   38CHL1   H14 2755   6.724   2.708   7.384 -2.9336  0.9594  0.6614
   38CHL1   C15 2756   6.838   2.562   7.478 -0.6075  0.3643  0.3946
   38CHL1  H15A 2757   6.855   2.454   7.459 -2.3712  0.2531 -0.7743
   38CHL1  H15B 2758   6.932   2.620   7.467  0.9263 -2.1522 -0.5753
   38CHL1   C16 2759   6.794   2.584   7.623  0.0842  0.1108  0.1786
   38CHL1  H16A 2760   6.803   2.482   7.668 -0.7767 -0.3138 -0.5630
   38CHL1  H16B 2761   6.859   2.656   7.677  0.7081 -1.7109  1.9910
   38CHL1   C17 2762   6.650   2.627   7.611  0.5895 -0.3372 -0.3060
   38CHL1   H17 2763   6.652   2.738   7.600  0.3978 -0.4423 -1.6591
   38CHL1   C13 2764   6.592   2.571   7.476  0.1395  0.0119 -0.3260
   38CHL1   C18 2765   6.547   2.428   7.484 -0.6685 -0.1434 -0.8798
   38CHL1  H18A 2766   6.517   2.395   7.382 -1.4383 -1.4533 -0.2537
   38CHL1  H18B 2767   6.634   2.362   7.507  0.7732  0.3857 -4.1646
   38CHL1  H18C 2768   6.454   2.417   7.543  0.2032  0.5257  0.6596
   38CHL1   C12 2769   6.482   2.655   7.421 -0.4578 -0.0975  0.2692
   38CHL1  H12A 2770   6.388   2.642   7.478 -2.3447 -0.5716 -2.7272
   38CHL1  H12B 2771   6.507   2.763   7.417 -0.8500  0.0869  2.1416
   38CHL1   C11 2772   6.455   2.611   7.272 -0.2549 -0.0890 -0.1608
   38CHL1  H11A 2773   6.404   2.513   7.273  1.9057 -1.2714 -0.4203
   38CHL1  H11B 2774   6.387   2.689   7.229  0.8467  1.8038  1.3822
   38CHL1    C9 2775   6.583   2.606   7.186 -0.2292 -0.2120 -0.3833
   38CHL1    H9 2776   6.612   2.713   7.175  2.4559 -0.6966  1.0973
   38CHL1   C10 2777   6.566   2.556   7.040 -0.0105 -0.0399  0.1618
   38CHL1   C19 2778   6.486   2.423   7.047 -0.0030  0.1661 -0.2433
   38CHL1  H19A 2779   6.543   2.355   7.113  2.0388  0.9400 -1.1147
   38CHL1  H19B 2780   6.379   2.426   7.075  0.1694  0.0267  0.4437
   38CHL1  H19C 2781   6.480   2.368   6.950 -3.4228  0.7756 -0.4957
   38CHL1    C1 2782   6.478   2.662   6.960  0.3676  0.8417  0.1704
   38CHL1   H1A 2783   6.381   2.662   7.014  1.8642  0.8853  3.0620
   38CHL1   H1B 2784   6.517   2.763   6.982  0.4914  1.1193 -1.2507
   38CHL1    C2 2785   6.465   2.649   6.808 -0.1740  0.0936 -0.1125
   38CHL1   H2A 2786   6.407   2.733   6.765  0.1716 -0.0399 -0.8554
   38CHL1   H2B 2787   6.409   2.558   6.779 -2.2792  0.8972  1.2356
   38CHL1   C20 2788   6.570   2.605   7.746  0.0769  0.1818  0.0353
   38CHL1   H20 2789   6.460   2.611   7.731 -0.3688 -0.2044  2.5999
   38CHL1   C21 2790   6.600   2.729   7.842 -0.4114  0.7931  0.4924
   38CHL1  H21A 2791   6.535   2.716   7.931 -1.3741  2.0955  0.0048
   38CHL1  H21B 2792   6.569   2.828   7.802 -2.6682  0.4524  1.2528
   38CHL1  H21C 2793   6.708   2.733   7.867 -0.1599 -3.3490  0.8350
   38CHL1   C22 2794   6.601   2.482   7.823 -0.4853 -0.0580 -0.3362
   38CHL1  H22A 2795   6.610   2.395   7.754 -0.3924  0.5998 -1.1658
   38CHL1  H22B 2796   6.698   2.492   7.877  0.9029  0.6470 -2.7982
   38CHL1   C23 2797   6.477   2.432   7.902 -0.5279 -0.9412  0.6494
   38CHL1  H23A 2798   6.438   2.524   7.951 -1.6882 -0.1152 -1.6460
   38CHL1  H23B 2799   6.398   2.402   7.830  0.7091  0.6817 -1.5039
   38CHL1   C24 2800   6.509   2.317   7.998  0.1717 -0.3763 -0.3774
   38CHL1  H24A 2801   6.560   2.237   7.940  3.0984  1.1210 -0.0425
   38CHL1  H24B 2802   6.593   2.350   8.062  1.4770 -1.2756 -1.5644
   38CHL1   C25 2803   6.404   2.268   8.104  0.5927 -0.2953 -0.0374
   38CHL1   H25 2804   6.319   2.221   8.050  1.6003 -0.6640 -1.3518
   38CHL1   C26 2805   6.470   2.161   8.197 -0.7067  0.1864  0.1309
   38CHL1  H26A 2806   6.407   2.139   8.286 -1.1284 -0.2128 -0.2569
   38CHL1  H26B 2807   6.495   2.080   8.125 -0.0183 -0.6829  1.3201
   38CHL1  H26C 2808   6.564   2.196   8.244 -0.4664  0.5552 -0.5993
   38CHL1   C27 2809   6.349   2.392   8.173 -0.1398  0.0965  0.0509
   38CHL1  H27A 2810   6.420   2.466   8.215 -0.8624  0.1877  1.1746
   38CHL1  H27B 2811   6.279   2.437   8.099  1.7157  1.2966 -1.0420
   38CHL1  H27C 2812   6.291   2.345   8.256  2.4963 -1.9525  0.8760
   39CHL1    C3 2813   5.662   1.515   6.876  0.6073 -0.7393 -0.1963
   39CHL1    H3 2814   5.612   1.422   6.910 -0.5229 -0.7698 -1.8448
   39CHL1    O3 2815   5.661   1.501   6.736 -0.3942 -0.6107  0.8577
   39CHL1   H3' 2816   5.743   1.460   6.708 -1.3252 -0.0679 -3.3503
   39CHL1    C4 2817   5.579   1.636   6.921 -0.2935 -0.2851  0.2821
   39CHL1   H4A 2818   5.624   1.730   6.885  0.9876 -1.0714 -0.2353
   39CHL1   H4B 2819   5.474   1.639   6.885  0.2919  0.0223 -1.5097
   39CHL1    C5 2820   5.588   1.652   7.074  0.4061 -0.5862  0.1361
   39CHL1    C6 2821   5.484   1.649   7.157  0.6362 -0.3039  0.3229
   39CHL1    H6 2822   5.383   1.654   7.114  0.9660 -0.0233 -0.4228
   39CHL1    C7 2823   5.485   1.664   7.305  0.3130 -0.2677  0.3061
   39CHL1   H7A 2824   5.407   1.740   7.324 -0.2323  0.2949 -3.3865
   39CHL1   H7B 2825   5.452   1.568   7.350 -1.6132  0.6525  0.9532
   39CHL1    C8 2826   5.626   1.691   7.362 -0.3201  0.1983  0.3085
   39CHL1    H8 2827   5.654   1.799   7.362  1.1868 -0.1751  0.2700
   39CHL1   C14 2828   5.625   1.647   7.511 -0.0060  0.0712  0.5252
   39CHL1   H14 2829   5.604   1.538   7.517  0.5393 -0.2404 -1.9700
   39CHL1   C15 2830   5.516   1.700   7.591  0.3726 -0.0239 -0.8932
   39CHL1  H15A 2831   5.501   1.809   7.583 -1.0306  0.0134  1.3545
   39CHL1  H15B 2832   5.417   1.650   7.583 -0.1326  0.5264  1.1302
   39CHL1   C16 2833   5.567   1.670   7.735  0.2324 -0.9368  0.0794
   39CHL1  H16A 2834   5.555   1.755   7.805  0.4880  0.2926 -1.3115
   39CHL1  H16B 2835   5.501   1.592   7.777 -0.6534 -0.0140  0.4256
   39CHL1   C17 2836   5.709   1.615   7.734  0.7146 -0.5504  0.9814
   39CHL1   H17 2837   5.718   1.504   7.726  0.8265 -0.7046  2.8896
   39CHL1   C13 2838   5.758   1.662   7.587 -0.3171 -0.4247  0.5079
   39CHL1   C18 2839   5.813   1.806   7.594 -0.0254  0.3358 -0.5856
   39CHL1  H18A 2840   5.756   1.869   7.666 -0.4800 -0.6164 -0.0920
   39CHL1  H18B 2841   5.906   1.823   7.652 -1.1051  3.9681  0.3868
   39CHL1  H18C 2842   5.829   1.856   7.496  0.5610  1.4822  0.0746
   39CHL1   C12 2843   5.856   1.569   7.512 -0.4062  0.8659  0.6650
   39CHL1  H12A 2844   5.957   1.566   7.558 -0.3092  1.7177  0.5208
   39CHL1  H12B 2845   5.824   1.463   7.516 -1.3729  1.1558  0.8407
   39CHL1   C11 2846   5.875   1.609   7.362 -0.1336  0.3646 -0.4735
   39CHL1  H11A 2847   5.928   1.707   7.361  0.8211 -0.1078  0.4800
   39CHL1  H11B 2848   5.934   1.527   7.316 -0.1101 -0.6699  1.2918
   39CHL1    C9 2849   5.736   1.607   7.286  0.2910  0.9644 -0.6791
   39CHL1    H9 2850   5.703   1.501   7.288 -1.3653  1.3003 -3.9259
   39CHL1   C10 2851   5.738   1.638   7.127 -0.3813 -0.0999 -0.0146
   39CHL1   C19 2852   5.817   1.776   7.106 -0.0997  0.5125  0.3792
   39CHL1  H19A 2853   5.812   1.806   6.999  0.4939  0.1012  0.2312
   39CHL1  H19B 2854   5.774   1.859   7.167 -0.4078 -0.4705  1.5327
   39CHL1  H19C 2855   5.925   1.762   7.129  0.1743  0.7228 -0.7412
   39CHL1    C1 2856   5.815   1.531   7.058 -0.1069 -0.3756 -0.1906
   39CHL1   H1A 2857   5.921   1.542   7.089  0.2940 -0.0168 -1.6187
   39CHL1   H1B 2858   5.780   1.428   7.084 -1.0502 -0.0629 -0.2142
   39CHL1    C2 2859   5.811   1.522   6.908 -0.4794 -0.8800 -0.7218
   39CHL1   H2A 2860   5.861   1.428   6.877  2.0506 -0.7086  2.3152
   39CHL1   H2B 2861   5.872   1.602   6.861 -0.3878 -1.5957 -1.8521
   39CHL1   C20 2862   5.795   1.643   7.853  1.0893  0.3870  0.7086
   39CHL1   H20 2863   5.792   1.753   7.866 -0.9417  0.6900 -1.5426
   39CHL1   C21 2864   5.936   1.601   7.824  0.3991  0.0041  0.7700
   39CHL1  H21A 2865   5.998   1.627   7.913  2.9386  0.1438 -0.9322
   39CHL1  H21B 2866   5.986   1.652   7.739  1.4899 -1.9416  0.1663
   39CHL1  H21C 2867   5.947   1.492   7.806  0.8859 -0.1665  1.9654
   39CHL1   C22 2868   5.729   1.575   7.980 -0.4911  0.3163 -0.1447
   39CHL1  H22A 2869   5.619   1.582   7.984 -0.7935 -2.0845 -1.9018
   39CHL1  H22B 2870   5.744   1.465   7.979  0.7445  0.4276  1.8502
   39CHL1   C23 2871   5.798   1.637   8.103 -0.0741  0.1973 -1.2321
   39CHL1  H23A 2872   5.908   1.635   8.092 -0.2155  1.3144 -3.3197
   39CHL1  H23B 2873   5.761   1.742   8.101 -2.2420 -0.4503  0.5463
   39CHL1   C24 2874   5.768   1.570   8.240  0.1981 -0.5196  0.0500
   39CHL1  H24A 2875   5.814   1.644   8.308  1.3567 -0.3379 -0.8912
   39CHL1  H24B 2876   5.663   1.578   8.275 -0.0881  1.4811 -1.1311
   39CHL1   C25 2877   5.828   1.428   8.260  0.0027 -0.2847 -0.3867
   39CHL1   H25 2878   5.801   1.358   8.178 -0.0538  0.4206 -0.9839
   39CHL1   C26 2879   5.982   1.437   8.264  0.2606  0.3522  0.1044
   39CHL1  H26A 2880   6.026   1.469   8.167 -1.0737  0.2827 -0.5405
   39CHL1  H26B 2881   6.017   1.501   8.348  1.2373 -0.1691  0.1127
   39CHL1  H26C 2882   6.017   1.333   8.283 -1.3931  0.2337  3.0875
   39CHL1   C27 2883   5.772   1.368   8.392  0.1889  0.7447 -0.0276
   39CHL1  H27A 2884   5.830   1.280   8.427  0.5919  1.1312  0.2956
   39CHL1  H27B 2885   5.774   1.439   8.477  0.6559  1.5401 -0.6905
   39CHL1  H27C 2886   5.663   1.348   8.382  0.5415 -0.9321 -0.8419
   40CHL1    C3 2887   1.534   1.734   6.777 -0.1314 -0.0761 -0.4048
   40CHL1    H3 2888   1.496   1.631   6.793 -1.0028  0.4225  0.9166
   40CHL1    O3 2889   1.538   1.760   6.637  0.2947  0.7640 -0.9455
   40CHL1   H3' 2890   1.447   1.756   6.609  0.1160  2.1254 -0.6196
   40CHL1    C4 2891   1.446   1.830   6.857 -0.3802  0.6176  0.5569
   40CHL1   H4A 2892   1.494   1.930   6.849 -1.2518  0.9933 -0.0713
   40CHL1   H4B 2893   1.342   1.833   6.819  0.2262 -0.6984 -1.3662
   40CHL1    C5 2894   1.439   1.799   7.002 -0.3139 -0.7774  0.3128
   40CHL1    C6 2895   1.323   1.766   7.066 -0.5327 -0.4807  0.6777
   40CHL1    H6 2896   1.226   1.780   7.017 -0.0230  1.3874  0.1126
   40CHL1    C7 2897   1.314   1.740   7.217  0.1569 -0.4950  0.8615
   40CHL1   H7A 2898   1.245   1.822   7.245  0.0168  1.1683 -3.6140
   40CHL1   H7B 2899   1.274   1.638   7.236 -0.0569 -0.2886  1.5396
   40CHL1    C8 2900   1.448   1.764   7.293  0.2212 -0.3278  0.6591
   40CHL1    H8 2901   1.449   1.874   7.309 -5.1845  0.0174  0.5326
   40CHL1   C14 2902   1.453   1.696   7.434 -0.0732  0.7250  0.1233
   40CHL1   H14 2903   1.468   1.591   7.401  0.5437  1.1069 -0.8522
   40CHL1   C15 2904   1.335   1.699   7.525  0.4729 -0.6149 -0.2583
   40CHL1  H15A 2905   1.282   1.793   7.552  2.8303  0.7133  0.0057
   40CHL1  H15B 2906   1.256   1.627   7.491 -2.4328  2.6715 -1.0814
   40CHL1   C16 2907   1.387   1.642   7.662  0.2864 -1.1776  0.4278
   40CHL1  H16A 2908   1.355   1.720   7.734  2.2129  0.1238 -0.0400
   40CHL1  H16B 2909   1.342   1.546   7.697 -2.2196 -0.0204  0.5941
   40CHL1   C17 2910   1.539   1.631   7.639 -0.9422  0.0443  0.9959
   40CHL1   H17 2911   1.534   1.526   7.603  1.7379  0.8977 -2.4327
   40CHL1   C13 2912   1.573   1.724   7.525  0.4967 -0.2584  0.8309
   40CHL1   C18 2913   1.564   1.870   7.571 -0.1311 -1.4789  0.4260
   40CHL1  H18A 2914   1.467   1.895   7.618  0.3829  1.2558  0.1983
   40CHL1  H18B 2915   1.649   1.891   7.640  0.0380  0.6184 -0.3494
   40CHL1  H18C 2916   1.578   1.945   7.490 -1.6346 -2.0355 -0.3869
   40CHL1   C12 2917   1.698   1.689   7.441  0.3860 -0.8043 -0.5312
   40CHL1  H12A 2918   1.782   1.728   7.502 -0.1917  0.5161 -0.5414
   40CHL1  H12B 2919   1.700   1.578   7.450  0.9820 -0.6899  1.0541
   40CHL1   C11 2920   1.702   1.755   7.300 -0.5877 -0.9373 -0.5773
   40CHL1  H11A 2921   1.716   1.863   7.323 -0.8127 -0.3821 -2.8181
   40CHL1  H11B 2922   1.797   1.722   7.253  0.4556  0.3964  0.4785
   40CHL1    C9 2923   1.570   1.730   7.207  0.1833 -0.0855  0.0095
   40CHL1    H9 2924   1.568   1.620   7.188 -2.0271  0.1560 -1.6057
   40CHL1   C10 2925   1.574   1.790   7.068  0.0152  0.0127  0.2575
   40CHL1   C19 2926   1.630   1.933   7.094 -0.0201  0.5947  0.7984
   40CHL1  H19A 2927   1.738   1.913   7.111  0.3362 -0.0033 -1.8312
   40CHL1  H19B 2928   1.623   2.003   7.008  1.3808  1.3237  1.2446
   40CHL1  H19C 2929   1.574   1.997   7.167 -0.9157 -0.3652  0.9759
   40CHL1    C1 2930   1.679   1.701   6.990 -0.2727 -0.3287  0.0898
   40CHL1   H1A 2931   1.778   1.719   7.036 -0.4731  2.4336 -0.3902
   40CHL1   H1B 2932   1.653   1.597   7.018  3.8606 -1.5614  0.0755
   40CHL1    C2 2933   1.683   1.725   6.836 -0.1304 -0.2186  0.0287
   40CHL1   H2A 2934   1.738   1.642   6.786  0.0978 -0.3418  0.4865
   40CHL1   H2B 2935   1.734   1.822   6.819  0.1733 -0.0063  2.0134
   40CHL1   C20 2936   1.621   1.627   7.769  0.2708  0.5103 -0.7493
   40CHL1   H20 2937   1.684   1.719   7.772  0.7830  0.2136 -1.8309
   40CHL1   C21 2938   1.705   1.504   7.743  0.3732 -0.3217 -0.1356
   40CHL1  H21A 2939   1.743   1.514   7.639 -1.6788  0.2838 -0.8670
   40CHL1  H21B 2940   1.637   1.417   7.760  0.2231 -0.2282 -0.2604
   40CHL1  H21C 2941   1.789   1.505   7.816  0.8038  1.2354 -0.6192
   40CHL1   C22 2942   1.540   1.618   7.904 -0.1554  0.0926 -0.1892
   40CHL1  H22A 2943   1.497   1.719   7.921  1.4812  0.9491 -1.0097
   40CHL1  H22B 2944   1.463   1.537   7.903  0.9749 -1.2179 -4.2422
   40CHL1   C23 2945   1.623   1.576   8.030  0.2263 -0.0311 -0.2472
   40CHL1  H23A 2946   1.647   1.468   8.032  3.9894  0.6465  1.6078
   40CHL1  H23B 2947   1.718   1.634   8.023  0.4156 -0.5494 -2.5826
   40CHL1   C24 2948   1.555   1.604   8.172  0.3796  0.0185  0.6959
   40CHL1  H24A 2949   1.524   1.711   8.167  0.8192  0.0965 -1.0964
   40CHL1  H24B 2950   1.465   1.540   8.181  0.0417  0.5655  1.2176
   40CHL1   C25 2951   1.649   1.576   8.291 -0.0196 -1.0704  0.4609
   40CHL1   H25 2952   1.744   1.632   8.286  0.5383 -2.1192 -2.0677
   40CHL1   C26 2953   1.568   1.612   8.421  0.2071  0.6336 -0.7174
   40CHL1  H26A 2954   1.603   1.534   8.491 -0.8257  3.1619  2.9038
   40CHL1  H26B 2955   1.597   1.707   8.470 -0.8610  0.0845  1.0627
   40CHL1  H26C 2956   1.457   1.606   8.409  0.3262  0.7923 -2.1351
   40CHL1   C27 2957   1.709   1.432   8.284  0.0362  0.2637  0.3151
   40CHL1  H27A 2958   1.618   1.368   8.278  0.3310 -0.3673  1.9832
   40CHL1  H27B 2959   1.759   1.422   8.185 -1.1314  4.1652 -0.8259
   40CHL1  H27C 2960   1.777   1.402   8.366  0.0017  1.1728  0.6822
   41CHL1    C3 2961   2.327   1.088   6.994  0.1885 -0.4113 -0.6972
   41CHL1    H3 2962   2.225   1.130   7.009  0.4467  0.2024 -0.6111
   41CHL1    O3 2963   2.364   1.110   6.862  0.1243  0.1869  0.6928
   41CHL1   H3' 2964   2.420   1.035   6.841  0.2607  0.8309 -1.4052
   41CHL1    C4 2965   2.431   1.160   7.085  0.1816  0.3766  0.2134
   41CHL1   H4A 2966   2.527   1.111   7.056 -1.8645 -3.7913 -0.2157
   41CHL1   H4B 2967   2.453   1.265   7.056  1.5359  0.5106  1.5945
   41CHL1    C5 2968   2.411   1.135   7.233 -0.2760 -0.5163  0.0852
   41CHL1    C6 2969   2.396   1.244   7.314  0.7855 -0.9109 -0.2982
   41CHL1    H6 2970   2.403   1.346   7.272  1.3460 -0.9303 -0.2504
   41CHL1    C7 2971   2.364   1.239   7.463  0.2466  0.0578  0.7620
   41CHL1   H7A 2972   2.422   1.314   7.521 -1.5255  2.5404 -0.5044
   41CHL1   H7B 2973   2.257   1.264   7.480  0.2780  0.4819  0.3873
   41CHL1    C8 2974   2.393   1.096   7.518 -0.0591 -0.3444 -0.7519
   41CHL1    H8 2975   2.503   1.084   7.521 -0.3390 -4.1126 -0.6233
   41CHL1   C14 2976   2.319   1.066   7.647  0.3436  0.0217  0.6485
   41CHL1   H14 2977   2.210   1.069   7.627  0.1697  0.9853  1.6380
   41CHL1   C15 2978   2.329   1.174   7.759 -0.2594 -0.3888 -0.4148
   41CHL1  H15A 2979   2.434   1.207   7.752  0.2507 -2.1229 -1.5990
   41CHL1  H15B 2980   2.262   1.260   7.737 -0.8395 -0.9125 -0.7385
   41CHL1   C16 2981   2.292   1.103   7.890 -0.1984  0.8255  0.6700
   41CHL1  H16A 2982   2.350   1.137   7.979 -2.8978  2.4099  1.9634
   41CHL1  H16B 2983   2.187   1.128   7.914 -1.5179  0.7747 -4.0655
   41CHL1   C17 2984   2.295   0.948   7.855  0.0123 -0.3163  0.1530
   41CHL1   H17 2985   2.186   0.932   7.841 -0.6099  1.7877  1.9021
   41CHL1   C13 2986   2.355   0.931   7.718 -0.4217 -0.4205  0.4370
   41CHL1   C18 2987   2.510   0.935   7.735 -0.8033  0.7748  1.1421
   41CHL1  H18A 2988   2.552   1.025   7.785  0.1661  0.9164  0.1024
   41CHL1  H18B 2989   2.547   0.848   7.793  0.0026  2.3939  3.2028
   41CHL1  H18C 2990   2.563   0.937   7.638 -1.9962 -1.7567  0.3699
   41CHL1   C12 2991   2.304   0.819   7.636 -0.1210  0.1337 -0.2542
   41CHL1  H12A 2992   2.330   0.719   7.676 -1.2353 -0.3270 -0.6391
   41CHL1  H12B 2993   2.193   0.828   7.626 -0.3250 -0.7485  1.0409
   41CHL1   C11 2994   2.358   0.846   7.493  0.2244  0.1458  0.5491
   41CHL1  H11A 2995   2.467   0.827   7.505  0.3803  1.0061  0.5630
   41CHL1  H11B 2996   2.309   0.773   7.424 -0.6087  2.2948 -1.2571
   41CHL1    C9 2997   2.344   0.986   7.430  0.2532  0.8631  0.4132
   41CHL1    H9 2998   2.235   1.006   7.421 -0.0662 -1.3472 -1.8850
   41CHL1   C10 2999   2.398   0.987   7.281  0.3076 -0.3219  0.5249
   41CHL1   C19 3000   2.542   0.928   7.266 -0.0862 -0.2494  0.1597
   41CHL1  H19A 3001   2.544   0.817   7.268  1.4267 -0.2947 -1.6789
   41CHL1  H19B 3002   2.586   0.963   7.171 -2.1225 -1.6776 -1.4170
   41CHL1  H19C 3003   2.611   0.969   7.343  1.6520 -2.4430 -0.1247
   41CHL1    C1 3004   2.293   0.922   7.178 -0.2517  0.0086  0.2404
   41CHL1   H1A 3005   2.290   0.814   7.204 -0.1644  0.1439  0.8410
   41CHL1   H1B 3006   2.189   0.958   7.194 -1.3430 -2.7602 -0.1302
   41CHL1    C2 3007   2.332   0.939   7.026 -0.2683  0.9713 -0.0480
   41CHL1   H2A 3008   2.264   0.878   6.964 -0.5320 -1.1046  2.1363
   41CHL1   H2B 3009   2.431   0.895   7.003  0.8538  1.9154  2.5682
   41CHL1   C20 3010   2.344   0.863   7.971 -0.5298  0.2951  0.7592
   41CHL1   H20 3011   2.454   0.867   7.980  0.0891 -3.1750 -2.5612
   41CHL1   C21 3012   2.325   0.707   7.936 -0.0369 -0.8253  0.2806
   41CHL1  H21A 3013   2.226   0.698   7.886  0.9255  2.5177 -2.7263
   41CHL1  H21B 3014   2.333   0.642   8.025  1.1486 -0.0486  0.7664
   41CHL1  H21C 3015   2.406   0.673   7.868  1.9683  0.0682  2.1374
   41CHL1   C22 3016   2.279   0.892   8.107 -0.1901 -0.0319  0.2168
   41CHL1  H22A 3017   2.278   1.002   8.121 -1.8466 -0.1016  0.8679
   41CHL1  H22B 3018   2.172   0.870   8.091 -0.6821  0.5019  2.4399
   41CHL1   C23 3019   2.346   0.830   8.228 -0.0911  0.0466 -0.0816
   41CHL1  H23A 3020   2.346   0.721   8.207 -1.5255  0.3125 -1.7736
   41CHL1  H23B 3021   2.441   0.887   8.236 -0.6906  0.9324  1.1308
   41CHL1   C24 3022   2.266   0.860   8.352  0.2373  0.2237 -0.7274
   41CHL1  H24A 3023   2.240   0.968   8.361 -0.4208  0.0671 -0.6971
   41CHL1  H24B 3024   2.167   0.813   8.337 -0.0848  0.8673 -0.6616
   41CHL1   C25 3025   2.311   0.807   8.485  0.6346 -0.0540  0.3755
   41CHL1   H25 3026   2.313   0.695   8.482  0.7728 -0.0935 -3.6376
   41CHL1   C26 3027   2.457   0.850   8.521 -0.3392 -0.1568  1.0592
   41CHL1  H26A 3028   2.538   0.798   8.465  0.1486  2.2282 -0.6020
   41CHL1  H26B 3029   2.475   0.959   8.507  0.8777 -0.5214 -0.4955
   41CHL1  H26C 3030   2.483   0.831   8.628 -0.4485 -2.3228  0.7543
   41CHL1   C27 3031   2.223   0.868   8.593  0.0425  0.2759 -0.3741
   41CHL1  H27A 3032   2.224   0.806   8.685 -1.0469 -1.5489 -1.5249
   41CHL1  H27B 3033   2.252   0.974   8.607  1.4181  0.0022 -1.0490
   41CHL1  H27C 3034   2.117   0.865   8.558  0.0668 -0.5534 -0.4074
   42CHL1    C3 3035   4.109   3.182   6.963 -0.0171  0.5444  0.5041
   42CHL1    H3 3036   4.112   3.286   6.924  3.5568 -0.2577 -1.8524
   42CHL1    O3 3037   4.029   3.102   6.878 -0.1524 -0.2448  0.5575
   42CHL1   H3' 3038   4.063   3.104   6.788 -1.5260 -1.0121 -0.0102
   42CHL1    C4 3039   4.256   3.137   6.978  0.4336  1.1656  0.1465
   42CHL1   H4A 3040   4.241   3.027   6.976 -1.0432  1.2481  2.5813
   42CHL1   H4B 3041   4.290   3.168   6.877 -1.0943  1.2218 -0.3836
   42CHL1    C5 3042   4.335   3.193   7.091 -0.2020 -0.1549  0.2653
   42CHL1    C6 3043   4.445   3.271   7.055  0.4608 -0.3771  0.2254
   42CHL1    H6 3044   4.487   3.274   6.954 -1.8960  0.0936 -0.8049
   42CHL1    C7 3045   4.508   3.355   7.157 -0.2005  0.6341 -0.1827
   42CHL1   H7A 3046   4.619   3.357   7.151 -0.1232 -0.2726  0.7475
   42CHL1   H7B 3047   4.473   3.460   7.148 -2.2041  0.1650  1.3991
   42CHL1    C8 3048   4.481   3.310   7.306 -0.2147 -0.4980  0.2177
   42CHL1    H8 3049   4.523   3.207   7.313  2.8580  0.4668 -1.9540
   42CHL1   C14 3050   4.547   3.411   7.398  0.0744  0.4316  0.5376
   42CHL1   H14 3051   4.513   3.515   7.381  1.4276  0.7889 -0.1865
   42CHL1   C15 3052   4.704   3.415   7.389  0.0656  0.7316  0.6546
   42CHL1  H15A 3053   4.746   3.313   7.384 -2.2047 -0.2016 -0.9318
   42CHL1  H15B 3054   4.744   3.464   7.298 -1.3720 -1.9561 -1.5472
   42CHL1   C16 3055   4.739   3.490   7.520 -0.0665  0.4198 -0.5470
   42CHL1  H16A 3056   4.830   3.437   7.555 -1.0781 -0.4147  0.9030
   42CHL1  H16B 3057   4.741   3.599   7.498 -0.2379  0.9113  1.6862
   42CHL1   C17 3058   4.611   3.479   7.615  0.5638  0.5316  0.6448
   42CHL1   H17 3059   4.555   3.574   7.596  1.9723  1.1397 -0.7123
   42CHL1   C13 3060   4.519   3.377   7.548 -0.3386  0.6390  0.6463
   42CHL1   C18 3061   4.571   3.242   7.591  0.1880  0.4567  0.4056
   42CHL1  H18A 3062   4.681   3.236   7.576  0.1264 -0.2837  0.2506
   42CHL1  H18B 3063   4.560   3.219   7.699  0.9241 -2.2317 -0.0206
   42CHL1  H18C 3064   4.535   3.163   7.523  0.2657  1.9768 -1.4955
   42CHL1   C12 3065   4.372   3.383   7.575  0.0622  0.4210  0.6660
   42CHL1  H12A 3066   4.370   3.341   7.678 -1.3796  0.9838  0.8815
   42CHL1  H12B 3067   4.341   3.488   7.560  1.5522  0.5802 -1.8251
   42CHL1   C11 3068   4.289   3.300   7.477 -0.3822  0.8083  0.2619
   42CHL1  H11A 3069   4.304   3.195   7.511 -1.1153  0.2517 -1.0624
   42CHL1  H11B 3070   4.180   3.322   7.480 -0.5715 -0.1143  3.5422
   42CHL1    C9 3071   4.329   3.308   7.329  0.2683  0.1222  0.2419
   42CHL1    H9 3072   4.303   3.410   7.294  0.3297  0.0248 -0.0904
   42CHL1   C10 3073   4.265   3.208   7.232  0.2403  0.3915  0.3899
   42CHL1   C19 3074   4.274   3.059   7.289  0.0960  0.1056 -0.7991
   42CHL1  H19A 3075   4.202   3.034   7.370  0.3406  1.5230 -0.1153
   42CHL1  H19B 3076   4.245   2.982   7.214 -1.3931  0.4668 -0.6390
   42CHL1  H19C 3077   4.379   3.047   7.321 -0.5473 -0.6270  1.2209
   42CHL1    C1 3078   4.117   3.243   7.218 -0.0345  0.4685  0.1884
   42CHL1   H1A 3079   4.073   3.211   7.315  1.8460 -3.1689  0.0391
   42CHL1   H1B 3080   4.108   3.351   7.195  1.7573  0.9851  1.6582
   42CHL1    C2 3081   4.046   3.168   7.105  0.0493  1.2838  0.7329
   42CHL1   H2A 3082   3.938   3.194   7.100 -0.0379  0.7020 -1.9307
   42CHL1   H2B 3083   4.043   3.063   7.139 -0.0406  0.8485 -0.5477
   42CHL1   C20 3084   4.624   3.458   7.767 -0.3533  0.6203  0.2520
   42CHL1   H20 3085   4.541   3.399   7.810 -1.6791  1.4623 -1.0667
   42CHL1   C21 3086   4.613   3.592   7.838 -0.3098  0.1220  0.3240
   42CHL1  H21A 3087   4.513   3.632   7.810 -0.9896 -0.4647  1.8116
   42CHL1  H21B 3088   4.683   3.673   7.809 -0.1450 -0.5451 -1.2136
   42CHL1  H21C 3089   4.610   3.581   7.949 -1.1469 -0.9147  0.2112
   42CHL1   C22 3090   4.760   3.395   7.809  0.9596 -0.0332  0.4933
   42CHL1  H22A 3091   4.770   3.307   7.741 -1.0040  0.5312 -0.6096
   42CHL1  H22B 3092   4.843   3.469   7.805  3.0382 -2.2655  0.4464
   42CHL1   C23 3093   4.752   3.334   7.951 -0.6885 -0.0396 -0.1391
   42CHL1  H23A 3094   4.767   3.427   8.010  2.2763 -0.8944  0.6543
   42CHL1  H23B 3095   4.663   3.269   7.962 -0.0183 -1.0078 -0.2722
   42CHL1   C24 3096   4.874   3.245   7.986 -0.5244 -0.0593 -0.4776
   42CHL1  H24A 3097   4.883   3.153   7.925 -0.3189  0.0099 -0.5503
   42CHL1  H24B 3098   4.958   3.308   7.950  0.4649 -0.8003  0.4653
   42CHL1   C25 3099   4.894   3.226   8.144 -0.7058  0.8087  0.1068
   42CHL1   H25 3100   4.795   3.211   8.191  0.0296  0.3635  1.5691
   42CHL1   C26 3101   4.982   3.093   8.181  0.0717 -0.3976  0.1205
   42CHL1  H26A 3102   4.931   3.011   8.125 -1.0619 -0.8061  1.6885
   42CHL1  H26B 3103   5.081   3.100   8.131 -0.9596  1.0895 -1.8518
   42CHL1  H26C 3104   4.979   3.061   8.287 -2.1281 -0.8636 -0.0268
   42CHL1   C27 3105   4.963   3.347   8.215  0.6354 -0.2312  0.2087
   42CHL1  H27A 3106   4.985   3.317   8.319 -2.4378 -0.6214  0.8673
   42CHL1  H27B 3107   4.896   3.436   8.210  4.2054  2.5997 -2.8916
   42CHL1  H27C 3108   5.050   3.377   8.153 -0.0866 -1.7324 -1.6569
   43CHL1    C3 3109   4.951   1.557   6.937 -0.1537 -0.3297  0.1561
   43CHL1    H3 3110   4.993   1.455   6.931  0.5775 -0.0968  1.0702
   43CHL1    O3 3111   5.000   1.617   6.811  0.2964  0.3542 -0.3211
   43CHL1   H3' 3112   4.922   1.615   6.755  0.3036 -1.3526 -0.3314
   43CHL1    C4 3113   4.799   1.573   6.948  0.9417 -0.2387 -0.1088
   43CHL1   H4A 3114   4.780   1.682   6.939  0.6840 -0.1633  1.2220
   43CHL1   H4B 3115   4.749   1.519   6.864  1.0005 -0.5458  0.0537
   43CHL1    C5 3116   4.735   1.528   7.079 -0.2978  0.1146  0.1005
   43CHL1    C6 3117   4.641   1.442   7.081  0.2963  0.3117 -0.1443
   43CHL1    H6 3118   4.599   1.414   6.983  1.7092  1.5451 -1.1459
   43CHL1    C7 3119   4.592   1.383   7.212 -0.3475  0.6715  0.4616
   43CHL1   H7A 3120   4.487   1.351   7.197  0.4610 -2.1785  0.1928
   43CHL1   H7B 3121   4.636   1.284   7.237 -1.0417  1.0315  3.4023
   43CHL1    C8 3122   4.619   1.467   7.336 -0.5302  0.3958 -0.1314
   43CHL1    H8 3123   4.575   1.568   7.324 -0.0839  0.2759 -3.6773
   43CHL1   C14 3124   4.570   1.396   7.463 -0.3660  0.0377  0.3558
   43CHL1   H14 3125   4.623   1.299   7.458 -0.4960  0.0143 -0.8822
   43CHL1   C15 3126   4.422   1.355   7.468  0.5651  0.8549 -0.4060
   43CHL1  H15A 3127   4.353   1.439   7.449 -1.3759 -0.5628 -0.0033
   43CHL1  H15B 3128   4.399   1.273   7.397 -0.8130  2.3332 -1.7376
   43CHL1   C16 3129   4.408   1.302   7.615  0.0694 -0.0224  0.4713
   43CHL1  H16A 3130   4.329   1.372   7.651  0.0541 -0.1476  0.6812
   43CHL1  H16B 3131   4.373   1.197   7.620 -0.3508 -0.0812 -2.2808
   43CHL1   C17 3132   4.541   1.354   7.694 -0.1507 -0.1932  0.6946
   43CHL1   H17 3133   4.602   1.261   7.693 -0.9483 -0.7444  1.6590
   43CHL1   C13 3134   4.603   1.457   7.600  0.6147 -0.9132  0.2984
   43CHL1   C18 3135   4.515   1.590   7.624  0.3764  0.5816  0.5594
   43CHL1  H18A 3136   4.406   1.579   7.640 -0.0287  0.3791 -1.9248
   43CHL1  H18B 3137   4.563   1.647   7.706 -0.5941 -0.1427  1.6560
   43CHL1  H18C 3138   4.527   1.651   7.532  3.6022 -1.3634 -0.4778
   43CHL1   C12 3139   4.753   1.483   7.597 -0.4484 -1.2579 -0.9534
   43CHL1  H12A 3140   4.784   1.530   7.693 -1.1957 -0.1772 -1.2118
   43CHL1  H12B 3141   4.809   1.387   7.599 -1.0938 -1.6775 -2.0944
   43CHL1   C11 3142   4.809   1.552   7.474  0.1198  0.0578  0.7046
   43CHL1  H11A 3143   4.752   1.648   7.480 -2.5719 -1.2834 -1.0399
   43CHL1  H11B 3144   4.915   1.584   7.476  0.0118  0.4686  0.1714
   43CHL1    C9 3145   4.771   1.499   7.338 -0.2621  0.6374  0.0554
   43CHL1    H9 3146   4.824   1.401   7.336  0.7206  1.1569 -0.5436
   43CHL1   C10 3147   4.814   1.574   7.207 -0.0403  0.1890  0.1045
   43CHL1   C19 3148   4.783   1.724   7.229  0.3207  0.0084 -0.6498
   43CHL1  H19A 3149   4.843   1.763   7.314 -2.1039  1.2322  0.6122
   43CHL1  H19B 3150   4.806   1.775   7.134  1.6200  0.7582  0.0495
   43CHL1  H19C 3151   4.679   1.745   7.262  0.6845  1.6145 -0.4863
   43CHL1    C1 3152   4.962   1.565   7.190 -0.7148  0.4510  1.3511
   43CHL1   H1A 3153   5.014   1.616   7.274 -0.7576  1.6259  0.6866
   43CHL1   H1B 3154   5.009   1.465   7.202 -0.3702  0.5035  0.4796
   43CHL1    C2 3155   5.019   1.621   7.056  0.1399  0.3658 -0.3730
   43CHL1   H2A 3156   5.127   1.597   7.060  0.0524 -0.4090 -2.0520
   43CHL1   H2B 3157   5.017   1.732   7.057  0.0205  0.3755  1.4010
   43CHL1   C20 3158   4.543   1.388   7.843  0.3373  0.9508  0.2065
   43CHL1   H20 3159   4.582   1.491   7.858  0.2899  1.6252 -3.3404
   43CHL1   C21 3160   4.654   1.297   7.903  0.4396  0.3258  0.0394
   43CHL1  H21A 3161   4.687   1.327   8.005 -0.1504  0.9427  0.0526
   43CHL1  H21B 3162   4.743   1.310   7.838 -0.4377  0.8062 -1.0839
   43CHL1  H21C 3163   4.625   1.189   7.905 -0.1672  0.4479  2.6692
   43CHL1   C22 3164   4.397   1.382   7.900  0.2149 -0.4143  0.3565
   43CHL1  H22A 3165   4.333   1.448   7.837  2.0703 -0.0517 -1.2555
   43CHL1  H22B 3166   4.373   1.273   7.895  1.2961 -0.6274 -0.5022
   43CHL1   C23 3167   4.381   1.431   8.047 -0.3103  0.1767 -0.7340
   43CHL1  H23A 3168   4.428   1.361   8.120  0.4786 -1.2058 -2.5074
   43CHL1  H23B 3169   4.442   1.524   8.058 -0.0523 -0.0109 -0.5647
   43CHL1   C24 3170   4.236   1.459   8.089 -0.0729 -0.2281  0.4343
   43CHL1  H24A 3171   4.194   1.530   8.015  1.3516 -1.4301 -1.6241
   43CHL1  H24B 3172   4.173   1.367   8.078 -0.0424 -0.0029 -2.5423
   43CHL1   C25 3173   4.223   1.516   8.235 -0.3326 -0.6342  0.6183
   43CHL1   H25 3174   4.247   1.434   8.307  0.9706 -1.7580 -0.9949
   43CHL1   C26 3175   4.304   1.641   8.268 -0.3194  0.0393  0.2085
   43CHL1  H26A 3176   4.289   1.655   8.377 -0.8289 -0.9694  0.2871
   43CHL1  H26B 3177   4.410   1.619   8.243  0.4164  0.2411  2.8557
   43CHL1  H26C 3178   4.285   1.735   8.213 -1.9917 -0.3192  0.1238
   43CHL1   C27 3179   4.079   1.551   8.274  0.3334  0.4946  0.4560
   43CHL1  H27A 3180   4.080   1.624   8.358 -1.1220  2.0626 -0.7982
   43CHL1  H27B 3181   4.016   1.579   8.187  1.8750  0.6686 -0.6385
   43CHL1  H27C 3182   4.030   1.459   8.312  1.9408  0.0380  1.4974
   44CHL1    C3 3183   4.058   1.210   6.833 -0.4524  0.3707 -0.3668
   44CHL1    H3 3184   4.084   1.103   6.843 -0.9355  0.1581 -1.2902
   44CHL1    O3 3185   4.063   1.250   6.700 -0.1774  0.5753  0.2203
   44CHL1   H3' 3186   4.034   1.341   6.704  1.9140  1.4956 -2.6788
   44CHL1    C4 3187   3.918   1.228   6.876  0.3462  0.6238  0.2910
   44CHL1   H4A 3188   3.881   1.331   6.857 -2.5125 -0.6267 -1.6993
   44CHL1   H4B 3189   3.854   1.165   6.810  1.3196  0.2346 -0.2931
   44CHL1    C5 3190   3.891   1.193   7.022  0.3546 -0.1957  0.5566
   44CHL1    C6 3191   3.806   1.097   7.063  0.1367  0.1976  0.1601
   44CHL1    H6 3192   3.751   1.034   6.992  0.5067 -1.5238  1.3368
   44CHL1    C7 3193   3.785   1.063   7.204  0.2352 -0.1725  0.0203
   44CHL1   H7A 3194   3.680   1.035   7.225 -0.5126  0.8247 -2.1056
   44CHL1   H7B 3195   3.847   0.971   7.219  1.5666  0.5510 -0.8332
   44CHL1    C8 3196   3.840   1.169   7.305  0.3090 -0.0320  0.1301
   44CHL1    H8 3197   3.759   1.246   7.304 -0.5804 -0.8861 -2.4307
   44CHL1   C14 3198   3.842   1.108   7.440  0.3774  0.3494 -0.6753
   44CHL1   H14 3199   3.914   1.025   7.431 -1.6033 -1.4048 -1.1083
   44CHL1   C15 3200   3.719   1.035   7.493 -0.1719  0.4981 -0.4576
   44CHL1  H15A 3201   3.622   1.080   7.463  0.2208  0.7961 -1.2986
   44CHL1  H15B 3202   3.726   0.927   7.467 -2.2719  0.7503 -2.3591
   44CHL1   C16 3203   3.742   1.047   7.650 -0.1792  0.0496 -0.0951
   44CHL1  H16A 3204   3.660   1.107   7.695  0.4050  0.7428  0.0502
   44CHL1  H16B 3205   3.746   0.950   7.705  0.4562 -0.4145 -0.9439
   44CHL1   C17 3206   3.880   1.112   7.668 -0.5438  0.1766  0.3895
   44CHL1   H17 3207   3.956   1.031   7.665  0.6317  1.2183  1.1832
   44CHL1   C13 3208   3.889   1.199   7.551 -0.1719  0.1266  0.6034
   44CHL1   C18 3209   3.807   1.332   7.559 -0.4436  0.1949 -0.2430
   44CHL1  H18A 3210   3.860   1.381   7.644  3.5428 -2.9589 -0.6212
   44CHL1  H18B 3211   3.800   1.395   7.468  0.1335  0.2975 -0.2197
   44CHL1  H18C 3212   3.702   1.318   7.593 -0.3774  0.0169 -0.1065
   44CHL1   C12 3213   4.032   1.245   7.513 -0.4314 -0.1471  0.2850
   44CHL1  H12A 3214   4.058   1.319   7.592 -0.5887 -0.0434  0.2400
   44CHL1  H12B 3215   4.090   1.150   7.513 -0.5222 -0.2211 -1.1253
   44CHL1   C11 3216   4.043   1.305   7.375  0.3004  0.3047 -0.1699
   44CHL1  H11A 3217   4.000   1.407   7.370  1.1347  0.6782  0.1547
   44CHL1  H11B 3218   4.150   1.317   7.347  1.0348  1.9023  2.9038
   44CHL1    C9 3219   3.975   1.218   7.265  0.2235 -0.4184  0.0140
   44CHL1    H9 3220   4.022   1.119   7.252 -0.8362 -0.8441 -0.7051
   44CHL1   C10 3221   3.980   1.272   7.119  0.5223 -0.0218 -0.3056
   44CHL1   C19 3222   3.926   1.420   7.124  0.2022  0.6699  0.0760
   44CHL1  H19A 3223   3.826   1.416   7.174  0.6416 -1.6408  0.8977
   44CHL1  H19B 3224   3.995   1.492   7.173  0.5576  1.1340 -1.0719
   44CHL1  H19C 3225   3.908   1.466   7.024 -2.2522  2.1659  1.1084
   44CHL1    C1 3226   4.131   1.270   7.072  0.7661  0.3976  0.9585
   44CHL1   H1A 3227   4.192   1.322   7.148  1.6791 -0.2402  0.6812
   44CHL1   H1B 3228   4.153   1.162   7.089  0.1394  0.4921  2.5796
   44CHL1    C2 3229   4.146   1.299   6.918 -0.0001  0.4539  1.0517
   44CHL1   H2A 3230   4.249   1.268   6.893 -0.4244  0.0078 -0.2471
   44CHL1   H2B 3231   4.130   1.404   6.885 -0.5543 -0.3692 -1.5151
   44CHL1   C20 3232   3.889   1.165   7.811  0.3069 -0.3675 -0.0174
   44CHL1   H20 3233   3.821   1.252   7.822  0.4968 -0.0168 -1.3422
   44CHL1   C21 3234   4.038   1.199   7.849  0.6839 -0.0126  0.4685
   44CHL1  H21A 3235   4.024   1.255   7.944  1.0879  1.5369 -0.3423
   44CHL1  H21B 3236   4.083   1.278   7.784  2.1333 -0.2583  1.1256
   44CHL1  H21C 3237   4.103   1.110   7.860 -0.0408 -0.4670  1.0798
   44CHL1   C22 3238   3.858   1.054   7.910 -0.3223  0.2851  0.4822
   44CHL1  H22A 3239   3.758   1.005   7.904  0.5146 -1.3849 -0.3036
   44CHL1  H22B 3240   3.929   0.970   7.898  0.7533  1.2750 -0.1977
   44CHL1   C23 3241   3.854   1.095   8.059 -0.4674  0.1420  0.6662
   44CHL1  H23A 3242   3.832   1.003   8.118 -0.7725  1.3063  2.4799
   44CHL1  H23B 3243   3.955   1.121   8.096  0.3329 -2.4256  0.4308
   44CHL1   C24 3244   3.755   1.210   8.087  0.6755  0.2052 -0.1582
   44CHL1  H24A 3245   3.800   1.304   8.047  2.5861 -1.4766 -2.2120
   44CHL1  H24B 3246   3.672   1.198   8.014 -1.6414 -0.0986  2.3556
   44CHL1   C25 3247   3.701   1.227   8.236  0.3332  1.0609 -0.2552
   44CHL1   H25 3248   3.614   1.296   8.230  0.6497  1.6739  1.5200
   44CHL1   C26 3249   3.668   1.091   8.298 -0.7737  0.0657 -0.8830
   44CHL1  H26A 3250   3.759   1.029   8.311  0.7762  2.3933 -0.0150
   44CHL1  H26B 3251   3.616   1.106   8.395 -1.4305  3.9550 -1.6898
   44CHL1  H26C 3252   3.593   1.039   8.235 -1.0186  0.6370 -1.0686
   44CHL1   C27 3253   3.800   1.294   8.323 -0.1926  0.4432 -0.4131
   44CHL1  H27A 3254   3.768   1.288   8.429  2.9199  0.5304  0.6514
   44CHL1  H27B 3255   3.897   1.239   8.315 -0.9966 -1.3728  1.4132
   44CHL1  H27C 3256   3.823   1.402   8.311  1.5504  0.4443  2.0740
   45CHL1    C3 3257   4.185   5.920   6.804 -0.0744  0.8491  0.7705
   45CHL1    H3 3258   4.150   5.815   6.799  0.5576  0.7024 -0.8350
   45CHL1    O3 3259   4.190   5.970   6.670  0.1790 -0.1762 -0.0857
   45CHL1   H3' 3260   4.174   6.064   6.680 -1.2270 -0.4560  0.5829
   45CHL1    C4 3261   4.084   6.004   6.873  0.0376  0.1350 -0.3175
   45CHL1   H4A 3262   4.112   6.112   6.878 -2.6862  0.9157 -0.5044
   45CHL1   H4B 3263   3.990   6.005   6.813  1.5372  2.2005 -2.8579
   45CHL1    C5 3264   4.064   5.947   7.014 -0.4736 -0.6734 -0.3340
   45CHL1    C6 3265   3.948   5.899   7.053  0.8837 -0.7204 -0.2779
   45CHL1    H6 3266   3.865   5.914   6.982  0.9819 -0.5364 -0.3529
   45CHL1    C7 3267   3.921   5.838   7.194  0.6316 -0.4321  0.3501
   45CHL1   H7A 3268   3.828   5.877   7.239  0.7684  1.2843 -0.7367
   45CHL1   H7B 3269   3.908   5.728   7.185  2.7583 -1.0111  3.0082
   45CHL1    C8 3270   4.030   5.875   7.296  0.0610 -0.3766 -0.5887
   45CHL1    H8 3271   4.020   5.982   7.325  2.9849 -0.2705  0.3158
   45CHL1   C14 3272   4.010   5.780   7.419 -0.0685  0.1910  0.1880
   45CHL1   H14 3273   4.018   5.674   7.387 -0.5183 -0.4834  2.1896
   45CHL1   C15 3274   3.881   5.796   7.501  0.0158  0.6672 -0.0844
   45CHL1  H15A 3275   3.835   5.896   7.503 -1.8951 -0.1767 -0.0141
   45CHL1  H15B 3276   3.815   5.720   7.454  1.2398  0.4791 -1.6073
   45CHL1   C16 3277   3.908   5.732   7.635 -0.5904  0.1030  0.5858
   45CHL1  H16A 3278   3.864   5.795   7.716 -0.9132  0.8558 -0.1646
   45CHL1  H16B 3279   3.852   5.636   7.644 -0.5405 -0.1798 -1.6012
   45CHL1   C17 3280   4.061   5.702   7.639  0.4558  0.2717 -0.0552
   45CHL1   H17 3281   4.071   5.600   7.596 -0.2236  0.5659 -0.9684
   45CHL1   C13 3282   4.117   5.802   7.532  0.4147 -0.6417  0.4636
   45CHL1   C18 3283   4.106   5.954   7.587 -1.2515  0.6470 -0.3073
   45CHL1  H18A 3284   4.003   5.958   7.629 -0.9273 -1.5482  0.8444
   45CHL1  H18B 3285   4.189   5.980   7.656  0.9516 -1.2121 -2.1014
   45CHL1  H18C 3286   4.109   6.034   7.510  0.0346 -1.1952 -2.2757
   45CHL1   C12 3287   4.257   5.777   7.469 -0.0296  0.6490  0.7292
   45CHL1  H12A 3288   4.349   5.796   7.528  0.7294 -0.4728 -0.0590
   45CHL1  H12B 3289   4.263   5.669   7.447  0.8936  1.1778 -2.0503
   45CHL1   C11 3290   4.283   5.861   7.339  0.2216 -0.3191  1.1982
   45CHL1  H11A 3291   4.304   5.968   7.364  2.2985 -0.8210  1.8413
   45CHL1  H11B 3292   4.375   5.824   7.289  1.1947  2.5934  0.6247
   45CHL1    C9 3293   4.167   5.850   7.234 -0.1751 -0.1344  0.2341
   45CHL1    H9 3294   4.160   5.749   7.188 -2.9910  0.3621 -0.6260
   45CHL1   C10 3295   4.190   5.943   7.103  0.2298 -0.4469 -0.2869
   45CHL1   C19 3296   4.223   6.088   7.146 -0.3614  0.5080 -0.1197
   45CHL1  H19A 3297   4.154   6.110   7.230 -2.2716 -1.4100 -1.1002
   45CHL1  H19B 3298   4.323   6.077   7.194 -0.6527 -0.5622  0.2640
   45CHL1  H19C 3299   4.217   6.172   7.072 -1.0467  0.2636 -0.3491
   45CHL1    C1 3300   4.302   5.882   7.016  0.0675 -0.0557  0.2137
   45CHL1   H1A 3301   4.395   5.902   7.073 -0.0297  0.5494  0.1716
   45CHL1   H1B 3302   4.295   5.772   7.007 -0.5491 -0.0385  0.4389
   45CHL1    C2 3303   4.320   5.933   6.871  0.8674 -0.6712  0.2947
   45CHL1   H2A 3304   4.378   5.856   6.816  1.1329 -1.5617  1.7670
   45CHL1   H2B 3305   4.348   6.040   6.857 -2.1090  0.2530  0.7367
   45CHL1   C20 3306   4.100   5.719   7.783 -0.2926 -0.8358  0.3472
   45CHL1   H20 3307   4.079   5.823   7.817 -1.7229 -0.8073 -0.5179
   45CHL1   C21 3308   4.252   5.705   7.788 -0.2536 -0.1594 -0.3960
   45CHL1  H21A 3309   4.286   5.711   7.894 -0.7179 -5.0297  0.2704
   45CHL1  H21B 3310   4.287   5.793   7.730 -0.1836  0.4742  0.5853
   45CHL1  H21C 3311   4.269   5.606   7.740 -1.4350 -0.6962  0.2273
   45CHL1   C22 3312   4.027   5.628   7.886  0.4612  0.0864 -0.3665
   45CHL1  H22A 3313   3.918   5.612   7.874  0.4928  0.2705 -0.9639
   45CHL1  H22B 3314   4.081   5.531   7.882 -0.1000 -0.2640  0.4684
   45CHL1   C23 3315   4.041   5.675   8.027 -0.4399 -0.7117  0.3637
   45CHL1  H23A 3316   4.146   5.706   8.049 -0.2875 -1.4433  0.7101
   45CHL1  H23B 3317   3.981   5.768   8.030 -0.7855 -0.8109 -1.8041
   45CHL1   C24 3318   4.009   5.572   8.130  0.0252  0.2944 -0.0085
   45CHL1  H24A 3319   3.902   5.540   8.121  0.0846 -0.0181  0.3776
   45CHL1  H24B 3320   4.065   5.477   8.119 -0.5694 -0.0406 -0.1870
   45CHL1   C25 3321   4.022   5.614   8.279 -0.2856  0.1038 -0.5182
   45CHL1   H25 3322   4.126   5.650   8.294 -1.3840  2.6793  1.8843
   45CHL1   C26 3323   3.920   5.726   8.306 -0.3148 -0.0977 -0.8924
   45CHL1  H26A 3324   3.907   5.752   8.414  1.1279  1.1027 -0.9697
   45CHL1  H26B 3325   3.948   5.811   8.240  2.8228  0.6630  1.1723
   45CHL1  H26C 3326   3.817   5.690   8.282 -0.8477  1.7344 -1.5806
   45CHL1   C27 3327   4.008   5.492   8.363  0.1829  0.0176 -0.2401
   45CHL1  H27A 3328   4.092   5.423   8.339  0.1449  0.2433 -1.0210
   45CHL1  H27B 3329   4.019   5.526   8.469 -2.4162  0.9194 -0.1972
   45CHL1  H27C 3330   3.904   5.454   8.367 -0.0226  0.6384  1.4465
   46CHL1    C3 3331   4.770   0.056   6.893  0.0631 -0.1365 -0.2285
   46CHL1    H3 3332   4.874   0.017   6.890  0.7945  1.6418  0.7962
   46CHL1    O3 3333   4.723   0.093   6.768  0.2158  0.0575  0.1348
   46CHL1   H3' 3334   4.699   0.011   6.723 -0.8680  0.5456 -0.2180
   46CHL1    C4 3335   4.674  -0.037   6.963 -0.0776  0.1316  0.0870
   46CHL1   H4A 3336   4.574   0.010   6.970  0.8377  2.2585 -0.5120
   46CHL1   H4B 3337   4.657  -0.135   6.912  0.9738 -1.3792  2.4410
   46CHL1    C5 3338   4.716  -0.072   7.105  0.0489 -0.3480 -0.0766
   46CHL1    C6 3339   4.734  -0.194   7.141 -0.4880  0.1911 -0.3361
   46CHL1    H6 3340   4.719  -0.282   7.076  2.4005 -2.8223  2.6692
   46CHL1    C7 3341   4.788  -0.230   7.270 -0.3244 -0.0484 -0.2842
   46CHL1   H7A 3342   4.748  -0.329   7.304  2.1173 -1.1725 -0.4927
   46CHL1   H7B 3343   4.896  -0.252   7.269 -0.1140  0.9651 -0.4467
   46CHL1    C8 3344   4.769  -0.123   7.384  0.0195 -0.1369  0.3354
   46CHL1    H8 3345   4.661  -0.123   7.410 -0.0374  0.4809  0.1287
   46CHL1   C14 3346   4.842  -0.159   7.509 -0.7352  0.2681 -0.6882
   46CHL1   H14 3347   4.951  -0.155   7.486 -0.5007  3.0225  0.5840
   46CHL1   C15 3348   4.810  -0.295   7.572 -0.3992  0.3772 -0.0211
   46CHL1  H15A 3349   4.701  -0.313   7.571 -0.3050 -0.2000 -0.1478
   46CHL1  H15B 3350   4.858  -0.380   7.518 -0.7747  0.7987 -1.0552
   46CHL1   C16 3351   4.858  -0.285   7.720  0.3172 -0.6864  1.1446
   46CHL1  H16A 3352   4.776  -0.298   7.793 -0.4390  1.5293  0.7838
   46CHL1  H16B 3353   4.948  -0.336   7.758 -0.3753 -1.8374  1.2805
   46CHL1   C17 3354   4.905  -0.138   7.741  0.6212 -0.4294 -0.6682
   46CHL1   H17 3355   5.014  -0.143   7.720  0.5649 -1.2964 -0.8086
   46CHL1   C13 3356   4.835  -0.053   7.622 -0.2316 -0.3946 -1.2676
   46CHL1   C18 3357   4.692  -0.012   7.655  0.2944  0.2685  0.1163
   46CHL1  H18A 3358   4.630  -0.095   7.697 -0.8146 -0.7522 -3.1941
   46CHL1  H18B 3359   4.693   0.072   7.727  0.0196  0.3525  0.0244
   46CHL1  H18C 3360   4.635   0.017   7.563 -0.4535  0.7239  0.7104
   46CHL1   C12 3361   4.919   0.065   7.568  0.0342 -0.4524  0.0866
   46CHL1  H12A 3362   4.931   0.145   7.644 -0.9465 -0.3959  0.1895
   46CHL1  H12B 3363   5.022   0.023   7.556  0.5000  0.5279  0.5214
   46CHL1   C11 3364   4.869   0.114   7.430 -0.5911  0.4504 -0.3506
   46CHL1  H11A 3365   4.793   0.192   7.450  0.2956  1.1525  0.3400
   46CHL1  H11B 3366   4.960   0.165   7.393  1.3632 -0.1461  3.1275
   46CHL1    C9 3367   4.825   0.006   7.324 -0.0431 -0.1216 -0.2590
   46CHL1    H9 3368   4.920  -0.026   7.278 -0.1090  1.2886 -1.4547
   46CHL1   C10 3369   4.744   0.050   7.199 -0.6461 -0.2806  0.3382
   46CHL1   C19 3370   4.603   0.106   7.244 -0.3291 -0.0738 -0.2556
   46CHL1  H19A 3371   4.617   0.211   7.277  1.3749 -0.4046  0.1854
   46CHL1  H19B 3372   4.532   0.121   7.160  1.1290  0.5365 -1.4271
   46CHL1  H19C 3373   4.561   0.050   7.330  2.7731  0.2869  1.6625
   46CHL1    C1 3374   4.822   0.163   7.119  0.5580  0.5824  0.0765
   46CHL1   H1A 3375   4.825   0.256   7.180 -3.4522  0.8120  0.1410
   46CHL1   H1B 3376   4.927   0.131   7.101  1.0825  1.3049  1.6610
   46CHL1    C2 3377   4.774   0.190   6.978 -0.2818  0.4820 -0.3137
   46CHL1   H2A 3378   4.840   0.270   6.938 -0.3752 -0.0340 -1.5438
   46CHL1   H2B 3379   4.665   0.214   6.984 -0.7449 -1.3856 -0.7543
   46CHL1   C20 3380   4.880  -0.079   7.885  1.0025  0.2211  0.7714
   46CHL1   H20 3381   4.772  -0.064   7.906  0.9868  2.2006 -0.3992
   46CHL1   C21 3382   4.946   0.060   7.894  0.4895  0.2548  0.0719
   46CHL1  H21A 3383   4.898   0.150   7.851  0.8160  1.0782  1.3711
   46CHL1  H21B 3384   5.046   0.051   7.845  1.5774  2.7606  1.6710
   46CHL1  H21C 3385   4.990   0.077   7.995 -0.4536 -0.3111  0.5930
   46CHL1   C22 3386   4.928  -0.167   8.000 -0.0382 -0.3427 -0.4721
   46CHL1  H22A 3387   4.881  -0.133   8.095  1.9299  0.3452  0.3060
   46CHL1  H22B 3388   4.886  -0.269   7.986  0.1535 -0.3720 -0.8399
   46CHL1   C23 3389   5.078  -0.176   8.010 -0.3503  0.1238 -0.2498
   46CHL1  H23A 3390   5.121  -0.198   7.910 -0.7266 -0.2847 -0.3196
   46CHL1  H23B 3391   5.122  -0.080   8.047  0.5590 -0.7814  1.0941
   46CHL1   C24 3392   5.125  -0.281   8.114  0.1403  0.2004  0.1462
   46CHL1  H24A 3393   5.077  -0.261   8.212 -0.0019 -2.6124  0.7463
   46CHL1  H24B 3394   5.077  -0.378   8.089 -0.0438 -0.3202  2.3565
   46CHL1   C25 3395   5.281  -0.271   8.139 -0.1396 -0.6802  0.4470
   46CHL1   H25 3396   5.318  -0.169   8.120 -2.4750  0.0757 -0.4088
   46CHL1   C26 3397   5.319  -0.333   8.279 -0.3410 -0.6172  0.7767
   46CHL1  H26A 3398   5.426  -0.312   8.301  0.3396 -1.3963 -1.5289
   46CHL1  H26B 3399   5.250  -0.298   8.359 -1.9523 -3.0393  0.5557
   46CHL1  H26C 3400   5.301  -0.442   8.272 -3.1408 -0.2786  1.6610
   46CHL1   C27 3401   5.352  -0.360   8.031  0.1804 -0.0785 -0.2526
   46CHL1  H27A 3402   5.452  -0.387   8.070  0.4196  0.7756 -0.2451
   46CHL1  H27B 3403   5.281  -0.445   8.021 -1.0187  0.9932 -1.3414
   46CHL1  H27C 3404   5.359  -0.307   7.933  1.0188  0.7783  0.2538
   47CHL1    C3 3405   2.490   6.108   6.890 -0.8499  0.3971  0.1665
   47CHL1    H3 3406   2.546   6.198   6.858  1.6532 -0.7619  0.9930
   47CHL1    O3 3407   2.501   6.028   6.768  0.1381 -0.4999  0.2564
   47CHL1   H3' 3408   2.440   5.957   6.788  0.0128 -0.4800 -0.0634
   47CHL1    C4 3409   2.577   6.046   6.997  0.0138 -0.2658 -0.9000
   47CHL1   H4A 3410   2.548   5.941   7.021  0.8935  0.1231  2.3181
   47CHL1   H4B 3411   2.684   6.036   6.968  0.6820 -0.4661  1.4457
   47CHL1    C5 3412   2.569   6.117   7.130  0.4579  0.7227  0.0899
   47CHL1    C6 3413   2.669   6.161   7.207  0.1762  0.4017 -0.0963
   47CHL1    H6 3414   2.771   6.132   7.179 -0.1341 -1.5837  0.6334
   47CHL1    C7 3415   2.660   6.221   7.341  0.3767 -0.6137 -0.1223
   47CHL1   H7A 3416   2.719   6.164   7.415  1.1822  2.1654  1.5132
   47CHL1   H7B 3417   2.701   6.324   7.333 -1.4004 -0.0041 -2.3459
   47CHL1    C8 3418   2.515   6.218   7.405 -0.2312  0.3954 -0.4566
   47CHL1    H8 3419   2.491   6.118   7.449 -2.7757  0.6708 -1.0427
   47CHL1   C14 3420   2.506   6.314   7.519  0.0748  0.0978  0.7185
   47CHL1   H14 3421   2.522   6.417   7.481  3.9686  0.2972  2.4979
   47CHL1   C15 3422   2.609   6.309   7.642 -0.7380  0.9276 -0.0555
   47CHL1  H15A 3423   2.654   6.208   7.657  3.8511  2.5913 -1.0847
   47CHL1  H15B 3424   2.698   6.372   7.622  1.2335 -1.2389  1.2508
   47CHL1   C16 3425   2.535   6.360   7.763  0.9394  0.2480 -0.2065
   47CHL1  H16A 3426   2.516   6.267   7.820 -0.2508  0.1249 -0.7830
   47CHL1  H16B 3427   2.583   6.446   7.814 -1.6493  2.4080 -1.1935
   47CHL1   C17 3428   2.395   6.417   7.706  0.0585 -0.2628  0.4083
   47CHL1   H17 3429   2.425   6.516   7.666 -1.7227  0.5934  1.0707
   47CHL1   C13 3430   2.362   6.323   7.584  0.2502  0.4601  0.6382
   47CHL1   C18 3431   2.317   6.183   7.635 -0.0918 -0.0261  0.0965
   47CHL1  H18A 3432   2.413   6.135   7.664 -0.8227 -1.0430  0.9189
   47CHL1  H18B 3433   2.244   6.188   7.720  1.1926  0.6548  1.1925
   47CHL1  H18C 3434   2.280   6.124   7.549 -1.5510  2.3703 -1.0048
   47CHL1   C12 3435   2.274   6.384   7.474 -0.4966  0.7131 -0.3340
   47CHL1  H12A 3436   2.168   6.398   7.504 -0.5780  0.6172 -0.5697
   47CHL1  H12B 3437   2.304   6.485   7.436 -0.0568  0.5620 -0.3952
   47CHL1   C11 3438   2.271   6.298   7.347  0.3567 -0.5225  0.1802
   47CHL1  H11A 3439   2.217   6.202   7.359  1.7281 -1.0825  2.7460
   47CHL1  H11B 3440   2.211   6.363   7.280  0.1246  1.3619  2.0949
   47CHL1    C9 3441   2.416   6.257   7.297  0.2887 -0.4540  0.0107
   47CHL1    H9 3442   2.457   6.354   7.262  0.7666 -0.8976 -0.6899
   47CHL1   C10 3443   2.419   6.152   7.177  0.1641  0.1509 -0.9451
   47CHL1   C19 3444   2.359   6.017   7.219 -0.6732  0.0682  0.6403
   47CHL1  H19A 3445   2.250   6.028   7.238 -1.0463 -1.3350 -0.5359
   47CHL1  H19B 3446   2.352   5.938   7.142 -0.9010 -0.6144  1.3482
   47CHL1  H19C 3447   2.398   5.971   7.312  0.9257 -0.1410 -0.0995
   47CHL1    C1 3448   2.329   6.213   7.063 -0.3286  0.8172  0.2131
   47CHL1   H1A 3449   2.224   6.212   7.098  1.0120  0.0367  4.9950
   47CHL1   H1B 3450   2.371   6.313   7.039  2.7286 -0.3929  0.0129
   47CHL1    C2 3451   2.337   6.129   6.929 -0.7178  0.5417  0.0477
   47CHL1   H2A 3452   2.280   6.176   6.846 -1.0344  1.6908  0.8854
   47CHL1   H2B 3453   2.286   6.033   6.948 -0.9320  1.0324  2.1089
   47CHL1   C20 3454   2.298   6.435   7.824  0.6609  0.2430  1.0544
   47CHL1   H20 3455   2.279   6.333   7.864  2.0228 -1.2421 -1.7461
   47CHL1   C21 3456   2.157   6.488   7.776 -0.3850  0.1199 -0.5261
   47CHL1  H21A 3457   2.164   6.579   7.714  2.8092 -0.4505 -1.1606
   47CHL1  H21B 3458   2.092   6.506   7.865  0.3158 -0.4329  0.1143
   47CHL1  H21C 3459   2.106   6.401   7.729  0.9914 -1.5844  0.9432
   47CHL1   C22 3460   2.352   6.528   7.939 -0.1426 -0.4360 -0.0016
   47CHL1  H22A 3461   2.438   6.474   7.983  0.2333 -0.2364 -0.4859
   47CHL1  H22B 3462   2.382   6.628   7.903  0.3047  0.0903  1.7352
   47CHL1   C23 3463   2.251   6.549   8.062 -0.0006  0.0312 -0.0087
   47CHL1  H23A 3464   2.169   6.619   8.036 -1.3717 -0.5313  2.4665
   47CHL1  H23B 3465   2.204   6.450   8.080  1.3047 -0.7543 -0.7716
   47CHL1   C24 3466   2.327   6.589   8.189  0.1327 -0.7175 -0.3556
   47CHL1  H24A 3467   2.407   6.514   8.201 -0.2359 -1.7113 -3.2675
   47CHL1  H24B 3468   2.376   6.684   8.158  0.4870 -1.2589 -1.5226
   47CHL1   C25 3469   2.238   6.613   8.308  0.2345  0.2322  0.2432
   47CHL1   H25 3470   2.151   6.669   8.266 -2.8445 -1.8244  3.3024
   47CHL1   C26 3471   2.190   6.475   8.372 -1.1423  0.1449 -0.3401
   47CHL1  H26A 3472   2.126   6.500   8.459 -2.4401 -1.6118 -0.7316
   47CHL1  H26B 3473   2.127   6.415   8.302 -2.2047  1.4766 -0.5565
   47CHL1  H26C 3474   2.274   6.418   8.417 -2.4456 -1.2437  0.4531
   47CHL1   C27 3475   2.298   6.706   8.417  0.0510  0.3738  0.0430
   47CHL1  H27A 3476   2.340   6.648   8.502 -0.8282  2.1193  1.7322
   47CHL1  H27B 3477   2.359   6.785   8.368  1.4164 -1.8373 -2.1078
   47CHL1  H27C 3478   2.220   6.769   8.464  1.6397  1.9250  0.6768
   48CHL1    C3 3479   1.901   1.132   6.442 -0.2829  0.0846  0.3612
   48CHL1    H3 3480   1.952   1.033   6.444  0.8315  0.6506  0.1812
   48CHL1    O3 3481   1.889   1.172   6.304  0.5714  0.4881 -0.7319
   48CHL1   H3' 3482   1.852   1.261   6.307  0.7926  0.5650 -0.1860
   48CHL1    C4 3483   1.765   1.110   6.507 -0.3289  0.2573 -0.1790
   48CHL1   H4A 3484   1.685   1.179   6.474 -0.9579 -1.1693 -1.7975
   48CHL1   H4B 3485   1.736   1.012   6.462  0.1301 -0.0408  0.1623
   48CHL1    C5 3486   1.754   1.084   6.656 -0.3935 -0.8454 -0.4418
   48CHL1    C6 3487   1.691   0.981   6.712  0.5005  0.1829  0.2335
   48CHL1    H6 3488   1.634   0.901   6.664  1.3761 -0.0240 -0.4815
   48CHL1    C7 3489   1.682   0.970   6.859  0.7235 -0.0015 -0.0624
   48CHL1   H7A 3490   1.579   0.945   6.892  1.4999 -1.4654  1.4008
   48CHL1   H7B 3491   1.744   0.890   6.904  0.3999  1.0624  2.4338
   48CHL1    C8 3492   1.731   1.091   6.948  0.5249  0.4792 -0.0377
   48CHL1    H8 3493   1.648   1.164   6.954  0.2660  0.2789 -1.0489
   48CHL1   C14 3494   1.759   1.038   7.093 -0.1546 -0.1386 -0.0810
   48CHL1   H14 3495   1.837   0.959   7.086  1.4169  1.3242  0.1162
   48CHL1   C15 3496   1.646   0.963   7.161 -0.1948  0.8541 -0.5970
   48CHL1  H15A 3497   1.555   1.027   7.155 -1.1712 -0.0052  2.6842
   48CHL1  H15B 3498   1.622   0.860   7.128  1.7743  0.1930 -0.1167
   48CHL1   C16 3499   1.676   0.971   7.314  0.9525  0.1854 -0.4380
   48CHL1  H16A 3500   1.591   1.027   7.358  1.0969 -0.4932  0.7676
   48CHL1  H16B 3501   1.688   0.871   7.362  2.2470  1.4003  1.9620
   48CHL1   C17 3502   1.803   1.062   7.320  0.0458  0.4897 -0.6162
   48CHL1   H17 3503   1.890   0.992   7.314 -0.4926 -0.1590 -1.0398
   48CHL1   C13 3504   1.809   1.145   7.184  0.9293  0.1127 -0.9257
   48CHL1   C18 3505   1.714   1.268   7.208  0.0909  0.0838 -0.0191
   48CHL1  H18A 3506   1.674   1.312   7.115 -0.3576  1.0875  0.6217
   48CHL1  H18B 3507   1.631   1.248   7.279 -2.7106  1.7195 -2.6211
   48CHL1  H18C 3508   1.784   1.342   7.254  0.9504 -0.5972 -0.2065
   48CHL1   C12 3509   1.948   1.188   7.134 -0.7809  0.1305  0.2537
   48CHL1  H12A 3510   1.990   1.271   7.194 -3.9201  0.1219  2.7188
   48CHL1  H12B 3511   2.012   1.097   7.126 -1.3539 -0.1475 -1.8058
   48CHL1   C11 3512   1.935   1.241   6.990  0.1259 -0.4214 -0.3539
   48CHL1  H11A 3513   1.893   1.344   6.994  0.7100 -0.1482 -0.9889
   48CHL1  H11B 3514   2.037   1.248   6.946  1.2847 -0.0008  2.2265
   48CHL1    C9 3515   1.861   1.140   6.893 -0.4928  0.0148  0.3966
   48CHL1    H9 3516   1.921   1.046   6.895 -1.9165 -0.9091  1.6605
   48CHL1   C10 3517   1.844   1.188   6.740  0.4857 -0.1844  0.0261
   48CHL1   C19 3518   1.763   1.316   6.737  0.0263  0.1089 -1.2222
   48CHL1  H19A 3519   1.661   1.309   6.781  0.2226  0.8170 -0.6446
   48CHL1  H19B 3520   1.811   1.396   6.797  0.8176 -0.0992 -1.5702
   48CHL1  H19C 3521   1.757   1.363   6.636  1.0488 -1.9162 -2.2862
   48CHL1    C1 3522   1.987   1.200   6.673  0.5663 -0.2907  0.5635
   48CHL1   H1A 3523   2.053   1.275   6.721  2.0723 -0.8640 -0.5346
   48CHL1   H1B 3524   2.039   1.103   6.691  0.3230 -1.3462 -3.4873
   48CHL1    C2 3525   1.986   1.229   6.520 -0.3232  0.3868 -0.2201
   48CHL1   H2A 3526   2.091   1.232   6.482 -0.3240 -2.5933 -0.6703
   48CHL1   H2B 3527   1.938   1.328   6.505  0.5839  1.1420  1.5282
   48CHL1   C20 3528   1.812   1.142   7.454  0.7867 -0.5380  0.0573
   48CHL1   H20 3529   1.737   1.223   7.456  0.4223 -0.8645 -0.1901
   48CHL1   C21 3530   1.950   1.206   7.475 -0.2606 -0.7299 -0.1721
   48CHL1  H21A 3531   2.028   1.128   7.480  2.2261  1.6709  2.6020
   48CHL1  H21B 3532   1.951   1.256   7.574 -2.8717 -1.1784  0.1601
   48CHL1  H21C 3533   1.978   1.288   7.406  2.8647 -0.1809  1.5644
   48CHL1   C22 3534   1.785   1.046   7.583 -0.5187  0.1826  0.2110
   48CHL1  H22A 3535   1.700   0.978   7.561 -0.3884  0.0413  0.1453
   48CHL1  H22B 3536   1.880   0.991   7.599 -0.8942 -1.0681 -1.5923
   48CHL1   C23 3537   1.745   1.128   7.707  1.0150  0.2004  0.1889
   48CHL1  H23A 3538   1.792   1.229   7.701 -0.1227  0.6923 -1.0080
   48CHL1  H23B 3539   1.635   1.146   7.701  0.9834  0.1746  0.7031
   48CHL1   C24 3540   1.790   1.047   7.828  0.0524  0.9214 -0.0413
   48CHL1  H24A 3541   1.729   0.955   7.826  1.0886  0.1796  0.9295
   48CHL1  H24B 3542   1.896   1.012   7.827 -0.1981  0.1573 -0.2898
   48CHL1   C25 3543   1.769   1.130   7.953  0.8027 -0.3500  0.0573
   48CHL1   H25 3544   1.826   1.225   7.944  2.0794 -1.2312 -1.7598
   48CHL1   C26 3545   1.618   1.150   7.990 -0.2369 -0.7983 -0.3310
   48CHL1  H26A 3546   1.564   1.218   7.921 -0.8192  1.0961  1.8554
   48CHL1  H26B 3547   1.569   1.050   7.986  0.3280 -1.1259  0.4777
   48CHL1  H26C 3548   1.607   1.190   8.093 -1.5152 -0.7614 -0.4634
   48CHL1   C27 3549   1.837   1.066   8.077 -0.0591  0.1504  0.1955
   48CHL1  H27A 3550   1.851   1.137   8.162 -0.3419  0.9406 -0.4096
   48CHL1  H27B 3551   1.773   0.983   8.113  1.0395 -0.5791  0.5424
   48CHL1  H27C 3552   1.935   1.020   8.051  0.5420  1.5691 -0.1611
   49CHL1    C3 3553   1.390   3.064   6.547  0.1945 -0.4933 -0.0799
   49CHL1    H3 3554   1.384   2.955   6.565 -0.2055 -0.2124  1.7062
   49CHL1    O3 3555   1.419   3.085   6.408  0.5984  0.2447  0.2507
   49CHL1   H3' 3556   1.498   3.037   6.383  0.7496  0.8136 -0.4111
   49CHL1    C4 3557   1.259   3.135   6.582  0.5489 -0.2279  0.4733
   49CHL1   H4A 3558   1.257   3.245   6.573 -1.0590 -0.3895 -2.1318
   49CHL1   H4B 3559   1.190   3.090   6.507  1.4260 -1.0125  0.1109
   49CHL1    C5 3560   1.222   3.113   6.726 -0.3339  0.3506  0.3854
   49CHL1    C6 3561   1.110   3.046   6.759  0.8630  0.0300 -0.2646
   49CHL1    H6 3562   1.036   3.030   6.680  1.2379 -0.6927 -0.4790
   49CHL1    C7 3563   1.064   3.016   6.897 -0.4533 -0.3886  0.3391
   49CHL1   H7A 3564   0.958   3.045   6.912 -2.1024 -4.6099 -1.5870
   49CHL1   H7B 3565   1.074   2.907   6.919  2.2810  0.0983  1.9680
   49CHL1    C8 3566   1.153   3.088   7.007  0.1538 -0.1652 -0.2283
   49CHL1    H8 3567   1.134   3.197   6.991  0.2650 -0.2154 -0.7248
   49CHL1   C14 3568   1.126   3.043   7.143 -0.1541  0.8288  0.1270
   49CHL1   H14 3569   1.161   2.937   7.139  3.5562  1.8616  1.0778
   49CHL1   C15 3570   0.984   3.030   7.192  0.1680  1.3094  0.4866
   49CHL1  H15A 3571   0.920   3.115   7.159  1.1182  2.3110  1.1439
   49CHL1  H15B 3572   0.940   2.934   7.157 -0.3493  1.3231  1.0774
   49CHL1   C16 3573   0.992   3.018   7.335  0.4786 -0.4473 -0.2758
   49CHL1  H16A 3574   0.929   3.104   7.364  0.1557 -0.1229 -1.8731
   49CHL1  H16B 3575   0.974   2.920   7.384  1.5445  1.4011  4.3455
   49CHL1   C17 3576   1.139   3.058   7.384  0.1964  1.1031  0.4673
   49CHL1   H17 3577   1.186   2.957   7.390 -0.9754  0.4231 -1.2250
   49CHL1   C13 3578   1.204   3.112   7.259 -0.3182 -0.2139  0.5036
   49CHL1   C18 3579   1.169   3.261   7.252  0.1016 -0.4228 -0.0284
   49CHL1  H18A 3580   1.205   3.315   7.161 -0.0589 -1.0521 -0.4689
   49CHL1  H18B 3581   1.062   3.285   7.266  0.2735 -0.2802  1.0595
   49CHL1  H18C 3582   1.237   3.308   7.326  1.0862  2.1980 -2.3763
   49CHL1   C12 3583   1.354   3.101   7.241 -0.1908  0.6903  0.2109
   49CHL1  H12A 3584   1.414   3.163   7.309 -0.2492  2.1833 -1.0379
   49CHL1  H12B 3585   1.384   2.995   7.257  1.2450  0.8466 -1.1783
   49CHL1   C11 3586   1.397   3.145   7.098 -0.4040  0.3001  0.0846
   49CHL1  H11A 3587   1.394   3.256   7.096  0.6607  0.4063 -3.5188
   49CHL1  H11B 3588   1.502   3.124   7.070 -0.1959  1.6284 -0.1760
   49CHL1    C9 3589   1.305   3.086   6.983 -0.6570 -0.8197 -0.5389
   49CHL1    H9 3590   1.328   2.978   6.970 -0.2063 -0.6541 -1.1398
   49CHL1   C10 3591   1.334   3.144   6.840  0.4846  0.8977  0.0172
   49CHL1   C19 3592   1.352   3.296   6.840  0.0173 -0.2669 -0.0375
   49CHL1  H19A 3593   1.271   3.349   6.894  1.7153  0.4653  1.9329
   49CHL1  H19B 3594   1.442   3.306   6.904 -0.8584 -1.0120  1.3593
   49CHL1  H19C 3595   1.372   3.339   6.740 -0.9168 -2.4131 -1.2391
   49CHL1    C1 3596   1.466   3.073   6.790  0.2401  0.3166  0.5513
   49CHL1   H1A 3597   1.546   3.083   6.865 -0.3689 -2.3643  1.6805
   49CHL1   H1B 3598   1.444   2.964   6.792 -1.5571  0.5543 -1.3390
   49CHL1    C2 3599   1.506   3.109   6.640  0.2240  0.5690  0.4473
   49CHL1   H2A 3600   1.600   3.054   6.619 -0.2998  0.3323 -1.5691
   49CHL1   H2B 3601   1.529   3.216   6.624  0.1449  0.3740 -1.2378
   49CHL1   C20 3602   1.145   3.124   7.526  0.4250 -0.5497 -0.4334
   49CHL1   H20 3603   1.118   3.231   7.510  0.3151 -0.7460 -1.6348
   49CHL1   C21 3604   1.289   3.121   7.579 -0.0032 -0.2786  0.0920
   49CHL1  H21A 3605   1.323   3.019   7.609 -0.2872 -0.2707  0.4444
   49CHL1  H21B 3606   1.319   3.202   7.649  0.9585 -0.6777  0.1598
   49CHL1  H21C 3607   1.356   3.153   7.496 -0.4640 -0.2263 -0.2567
   49CHL1   C22 3608   1.044   3.057   7.618 -0.5422  0.3183 -0.9453
   49CHL1  H22A 3609   0.938   3.074   7.592 -0.6032  0.0846 -0.8578
   49CHL1  H22B 3610   1.057   2.950   7.589  4.8988 -0.3057  2.2743
   49CHL1   C23 3611   1.067   3.073   7.770  0.3895  0.4345  0.0607
   49CHL1  H23A 3612   1.169   3.040   7.800  0.6433  1.1582  0.0245
   49CHL1  H23B 3613   1.049   3.179   7.799 -1.4771  0.0101  0.5985
   49CHL1   C24 3614   0.963   2.988   7.851  0.8818 -0.3663 -0.3666
   49CHL1  H24A 3615   0.861   3.031   7.836  1.6258  2.0041  0.8118
   49CHL1  H24B 3616   0.959   2.882   7.820  2.4898  0.0512 -2.1511
   49CHL1   C25 3617   1.007   2.984   8.000  0.0732 -0.8080  0.4679
   49CHL1   H25 3618   1.111   2.947   8.002 -0.0721 -1.2047  0.9671
   49CHL1   C26 3619   0.994   3.122   8.073 -0.5956 -0.5626 -0.5548
   49CHL1  H26A 3620   1.026   3.114   8.179  0.5472 -1.8073 -0.9667
   49CHL1  H26B 3621   1.050   3.204   8.024 -0.8034  0.2092  0.4766
   49CHL1  H26C 3622   0.884   3.138   8.063 -0.9729 -2.8416 -0.7075
   49CHL1   C27 3623   0.933   2.866   8.073  0.3513 -0.9459  0.5294
   49CHL1  H27A 3624   0.827   2.897   8.090  0.6578  0.9050 -0.6275
   49CHL1  H27B 3625   0.942   2.776   8.007 -2.0251 -0.7605 -0.1674
   49CHL1  H27C 3626   0.977   2.851   8.173  2.6638 -1.5815 -0.5169
   50CHL1    C3 3627   1.475   5.051   6.698 -0.2888  0.0634  1.1551
   50CHL1    H3 3628   1.370   5.081   6.719 -0.6668  1.5318 -2.1897
   50CHL1    O3 3629   1.489   5.049   6.549 -0.0028 -0.1273 -1.0156
   50CHL1   H3' 3630   1.419   4.989   6.523 -0.4840 -0.6290  1.2166
   50CHL1    C4 3631   1.568   5.162   6.739  1.2546 -0.3278 -0.1519
   50CHL1   H4A 3632   1.673   5.143   6.709  1.1463 -0.4285 -0.4738
   50CHL1   H4B 3633   1.532   5.256   6.691 -1.5399 -0.7189  1.0090
   50CHL1    C5 3634   1.576   5.175   6.884 -0.3844 -0.3683 -0.5616
   50CHL1    C6 3635   1.540   5.290   6.945 -0.0020  0.3416 -0.2116
   50CHL1    H6 3636   1.492   5.372   6.889  1.6771  3.0604  2.0636
   50CHL1    C7 3637   1.550   5.314   7.093 -0.3413  0.0380 -0.4962
   50CHL1   H7A 3638   1.579   5.420   7.113  0.4995 -0.1063 -0.9218
   50CHL1   H7B 3639   1.452   5.311   7.144 -0.6970  2.0814 -0.9328
   50CHL1    C8 3640   1.638   5.205   7.166 -0.3912 -0.1993 -0.3694
   50CHL1    H8 3641   1.740   5.220   7.125 -0.9170  0.0699 -1.6134
   50CHL1   C14 3642   1.630   5.216   7.314  0.1184 -0.4928  0.2370
   50CHL1   H14 3643   1.522   5.201   7.335  0.0524 -1.6922 -0.7974
   50CHL1   C15 3644   1.673   5.351   7.370  0.1176  0.3902 -0.4996
   50CHL1  H15A 3645   1.772   5.372   7.324  2.0370 -0.9210  2.7089
   50CHL1  H15B 3646   1.605   5.438   7.356  1.1959  1.4726  0.8262
   50CHL1   C16 3647   1.702   5.315   7.520  0.6073 -0.5460 -1.0170
   50CHL1  H16A 3648   1.800   5.361   7.547  0.4521  0.4229 -2.0020
   50CHL1  H16B 3649   1.621   5.366   7.576  0.3885 -2.4527  0.5248
   50CHL1   C17 3650   1.701   5.159   7.540  0.3391  0.6113  0.3394
   50CHL1   H17 3651   1.604   5.129   7.584  0.8507  1.0801  1.8216
   50CHL1   C13 3652   1.705   5.108   7.394 -0.5724  0.0681  0.0542
   50CHL1   C18 3653   1.851   5.085   7.352 -0.2531 -0.1877 -0.0160
   50CHL1  H18A 3654   1.915   5.171   7.379  2.2322 -2.2014  0.9304
   50CHL1  H18B 3655   1.903   5.001   7.402  0.5009  0.3815  0.1633
   50CHL1  H18C 3656   1.865   5.064   7.243  0.1332  1.2182 -0.2462
   50CHL1   C12 3657   1.623   4.976   7.364 -0.1533 -0.5157  0.0124
   50CHL1  H12A 3658   1.670   4.897   7.427  2.1039  0.6145 -0.1512
   50CHL1  H12B 3659   1.523   4.990   7.410  0.0375 -1.6084  0.7863
   50CHL1   C11 3660   1.634   4.950   7.213  0.3813 -0.6918  0.0252
   50CHL1  H11A 3661   1.738   4.918   7.191  0.8380  2.1592 -2.5923
   50CHL1  H11B 3662   1.574   4.859   7.191 -0.0050 -0.4767  0.1782
   50CHL1    C9 3663   1.588   5.068   7.120 -0.0190 -0.1527 -0.6848
   50CHL1    H9 3664   1.478   5.068   7.135  0.1136 -0.6835  0.3442
   50CHL1   C10 3665   1.616   5.054   6.961 -0.0529  0.3478 -0.4515
   50CHL1   C19 3666   1.759   5.017   6.936 -0.7085 -0.1586  0.0466
   50CHL1  H19A 3667   1.790   4.998   6.832  0.3323 -1.1602  0.5188
   50CHL1  H19B 3668   1.830   5.085   6.987 -1.0409  0.1390  0.1167
   50CHL1  H19C 3669   1.772   4.918   6.986  3.3748 -0.2954 -0.9207
   50CHL1    C1 3670   1.521   4.938   6.913  0.1611 -0.1239 -0.5232
   50CHL1   H1A 3671   1.541   4.844   6.969 -1.2975  1.1719  2.4262
   50CHL1   H1B 3672   1.421   4.964   6.955  1.4178 -0.1147  2.7934
   50CHL1    C2 3673   1.510   4.914   6.762  0.5110 -0.3428  1.0326
   50CHL1   H2A 3674   1.426   4.843   6.744  0.7498 -1.1354  2.8558
   50CHL1   H2B 3675   1.605   4.877   6.719  1.4169  2.3460  0.4979
   50CHL1   C20 3676   1.807   5.120   7.644 -0.1709  0.5630  0.7647
   50CHL1   H20 3677   1.905   5.156   7.608 -1.1741  2.1047 -0.6158
   50CHL1   C21 3678   1.804   4.966   7.658 -0.5175  0.4208 -0.6693
   50CHL1  H21A 3679   1.706   4.925   7.692 -0.9930  0.0288 -2.4055
   50CHL1  H21B 3680   1.880   4.924   7.727  0.6620 -0.2351 -2.3008
   50CHL1  H21C 3681   1.821   4.908   7.565 -0.7232 -1.4489  0.4055
   50CHL1   C22 3682   1.777   5.186   7.786  0.2811 -0.3844  0.0092
   50CHL1  H22A 3683   1.784   5.295   7.764 -1.4656 -0.3806 -0.6849
   50CHL1  H22B 3684   1.670   5.168   7.812 -0.5820  3.4202 -0.2474
   50CHL1   C23 3685   1.870   5.145   7.897 -0.1307  0.2430 -0.1193
   50CHL1  H23A 3686   1.857   5.035   7.911  0.8116 -0.0188 -1.1784
   50CHL1  H23B 3687   1.975   5.162   7.867  0.3862  0.2188  1.5743
   50CHL1   C24 3688   1.853   5.218   8.027  0.2931 -0.3530  0.1349
   50CHL1  H24A 3689   1.877   5.326   8.018  1.4726 -0.7530 -2.6692
   50CHL1  H24B 3690   1.751   5.205   8.068  0.9323 -3.3172  1.0583
   50CHL1   C25 3691   1.932   5.161   8.146 -0.1397  0.2908  0.5405
   50CHL1   H25 3692   1.903   5.056   8.165  0.1376 -0.1710 -1.4144
   50CHL1   C26 3693   2.080   5.175   8.121 -0.5264 -0.2074  0.0952
   50CHL1  H26A 3694   2.093   5.282   8.093 -3.8006  0.7769  1.8254
   50CHL1  H26B 3695   2.137   5.147   8.212  0.7229 -0.0833 -0.6188
   50CHL1  H26C 3696   2.114   5.106   8.041  0.3700  0.6523 -0.2837
   50CHL1   C27 3697   1.892   5.241   8.270 -0.5728 -0.2300  0.4342
   50CHL1  H27A 3698   1.956   5.221   8.359 -0.7418 -0.5628  0.4844
   50CHL1  H27B 3699   1.903   5.347   8.241 -0.2400 -0.6242 -0.9607
   50CHL1  H27C 3700   1.785   5.227   8.298 -1.0030 -2.6408 -1.9976
   51CHL1    C3 3701   0.003   2.143   6.723  0.0933 -0.3031 -0.2668
   51CHL1    H3 3702   0.005   2.250   6.752 -2.7982  0.1342 -1.2846
   51CHL1    O3 3703   0.014   2.127   6.581  0.4593  0.1803 -0.4250
   51CHL1   H3' 3704   0.028   2.035   6.560  0.3691  0.4494 -1.7147
   51CHL1    C4 3705   0.119   2.065   6.784 -0.1078  0.6720 -0.5001
   51CHL1   H4A 3706   0.103   1.959   6.754  2.2703 -0.3250  1.3960
   51CHL1   H4B 3707   0.215   2.101   6.742  0.2452  1.9878  1.3476
   51CHL1    C5 3708   0.117   2.067   6.935  0.6016 -0.7675 -0.3398
   51CHL1    C6 3709   0.219   2.113   7.011  0.1991  0.2311 -0.2213
   51CHL1    H6 3710   0.311   2.145   6.960  0.0021  1.0117 -0.0955
   51CHL1    C7 3711   0.225   2.122   7.161  0.3204  0.7191 -0.3729
   51CHL1   H7A 3712   0.312   2.076   7.214 -0.0477 -1.0344 -1.2181
   51CHL1   H7B 3713   0.208   2.221   7.209  1.3380 -0.4325  2.6311
   51CHL1    C8 3714   0.110   2.038   7.218  0.0090  0.2046  0.3794
   51CHL1    H8 3715   0.142   1.932   7.207  0.1736  0.2263  0.6416
   51CHL1   C14 3716   0.094   2.067   7.366  0.3471 -0.2130  0.6953
   51CHL1   H14 3717   0.061   2.172   7.382 -0.1782 -0.2515 -0.0829
   51CHL1   C15 3718   0.215   2.061   7.451 -0.2166 -0.2718 -0.7923
   51CHL1  H15A 3719   0.263   1.966   7.420  0.5054 -0.5185  0.9536
   51CHL1  H15B 3720   0.294   2.139   7.443 -1.3577  0.9300 -0.6780
   51CHL1   C16 3721   0.162   2.035   7.598 -0.0180  0.1510  0.2904
   51CHL1  H16A 3722   0.204   1.939   7.636 -3.6979 -1.9375 -0.4305
   51CHL1  H16B 3723   0.195   2.117   7.666 -3.0357 -0.9673  3.4345
   51CHL1   C17 3724   0.007   2.025   7.588 -0.6392  0.0769 -0.3592
   51CHL1   H17 3725  -0.026   2.130   7.604 -0.2344 -0.1278  2.3048
   51CHL1   C13 3726  -0.020   1.988   7.442  0.0148  0.0900 -0.1707
   51CHL1   C18 3727   0.008   1.837   7.424 -0.5472 -0.2462 -0.1777
   51CHL1  H18A 3728   0.087   1.807   7.497  0.0704  2.3267  0.2831
   51CHL1  H18B 3729  -0.073   1.774   7.468  0.4391  0.6658  3.2135
   51CHL1  H18C 3730   0.025   1.790   7.325 -0.6444  0.1913 -0.4065
   51CHL1   C12 3731  -0.154   2.028   7.370 -0.0347  0.8846 -0.0455
   51CHL1  H12A 3732  -0.248   1.983   7.409  0.1201 -1.2283 -1.9307
   51CHL1  H12B 3733  -0.165   2.138   7.382 -0.0605  0.9302 -0.4823
   51CHL1   C11 3734  -0.146   1.998   7.222 -0.0030  0.2749  0.1252
   51CHL1  H11A 3735  -0.145   1.888   7.208  2.5451  0.1912  0.5504
   51CHL1  H11B 3736  -0.236   2.042   7.174 -0.6352 -1.9814 -0.9183
   51CHL1    C9 3737  -0.022   2.063   7.148 -0.0038  0.1458  0.4534
   51CHL1    H9 3738  -0.050   2.170   7.151 -1.0132 -0.1068  0.4086
   51CHL1   C10 3739  -0.015   2.022   7.005 -0.0442  0.3680  0.1881
   51CHL1   C19 3740  -0.017   1.868   6.979 -0.9311  0.3112 -0.3045
   51CHL1  H19A 3741   0.078   1.827   7.021 -0.4412 -0.9895 -2.5355
   51CHL1  H19B 3742  -0.098   1.809   7.028 -1.3883  0.6972 -0.5909
   51CHL1  H19C 3743  -0.027   1.850   6.870  2.7765  1.5954 -1.0103
   51CHL1    C1 3744  -0.143   2.081   6.930 -0.0038  0.3721  0.4767
   51CHL1   H1A 3745  -0.237   2.030   6.960  0.3707  0.8071  2.5387
   51CHL1   H1B 3746  -0.152   2.188   6.961  0.6332  0.3637  0.7082
   51CHL1    C2 3747  -0.136   2.085   6.774  1.1164 -0.0659 -0.3471
   51CHL1   H2A 3748  -0.219   2.149   6.735 -0.0066 -0.7417  0.8378
   51CHL1   H2B 3749  -0.135   1.981   6.734  2.3304  0.5549 -2.0597
   51CHL1   C20 3750  -0.064   1.945   7.705  0.1000 -0.7219 -0.0329
   51CHL1   H20 3751  -0.051   1.837   7.681  0.2852 -0.4637 -1.1309
   51CHL1   C21 3752  -0.211   1.958   7.698  0.3533 -0.3087  0.2295
   51CHL1  H21A 3753  -0.250   1.927   7.599 -2.0227  1.0716  0.6678
   51CHL1  H21B 3754  -0.235   2.067   7.701  0.4544 -0.2957  0.6550
   51CHL1  H21C 3755  -0.260   1.900   7.779  0.2276 -2.5966 -1.3825
   51CHL1   C22 3756  -0.014   1.977   7.847 -0.1191 -0.0893  0.2446
   51CHL1  H22A 3757   0.096   1.991   7.845 -0.3098  1.5396 -0.8265
   51CHL1  H22B 3758  -0.042   2.083   7.868 -0.7657 -0.3441  0.6845
   51CHL1   C23 3759  -0.069   1.876   7.950  0.2457 -0.4951  0.4219
   51CHL1  H23A 3760  -0.175   1.901   7.973 -0.2743 -1.1616 -1.1323
   51CHL1  H23B 3761  -0.071   1.770   7.915 -1.2863 -0.3179 -0.1021
   51CHL1   C24 3762   0.008   1.868   8.088  0.6563  0.0492 -0.0673
   51CHL1  H24A 3763   0.111   1.837   8.059  0.1221 -0.8360 -1.0788
   51CHL1  H24B 3764   0.004   1.973   8.126 -0.9452 -1.2872  3.9625
   51CHL1   C25 3765  -0.053   1.779   8.199 -0.0331 -0.7959 -0.2934
   51CHL1   H25 3766  -0.161   1.802   8.208 -0.1416 -2.0646  3.4780
   51CHL1   C26 3767  -0.037   1.628   8.164  0.5355 -0.0811 -0.0658
   51CHL1  H26A 3768   0.072   1.607   8.164  0.7708  0.8334  1.9919
   51CHL1  H26B 3769  -0.087   1.560   8.237 -2.4342  3.8646  2.0018
   51CHL1  H26C 3770  -0.072   1.621   8.059  1.4078  1.0086 -0.4470
   51CHL1   C27 3771   0.008   1.813   8.338  0.6798  0.2567  0.2633
   51CHL1  H27A 3772   0.107   1.765   8.352  0.6007 -0.3318 -1.1145
   51CHL1  H27B 3773   0.024   1.923   8.338 -0.1423  0.3945 -0.9025
   51CHL1  H27C 3774  -0.063   1.789   8.420  0.3844  1.0838  0.2605
   52CHL1    C3 3775   2.167   4.766   6.929  0.7234 -0.3930  0.4029
   52CHL1    H3 3776   2.274   4.792   6.918 -0.3648  4.5726 -0.8564
   52CHL1    O3 3777   2.105   4.775   6.801 -0.3185  0.1846 -0.2068
   52CHL1   H3' 3778   2.010   4.772   6.810 -0.0560 -1.5497  3.4891
   52CHL1    C4 3779   2.134   4.633   7.002  0.5477  0.0615 -0.2434
   52CHL1   H4A 3780   2.023   4.621   6.998  0.1788  1.9631  2.3193
   52CHL1   H4B 3781   2.179   4.551   6.942  0.5191  1.2335 -1.9487
   52CHL1    C5 3782   2.185   4.642   7.150 -0.1322  0.1316  0.3650
   52CHL1    C6 3783   2.288   4.567   7.199 -0.3339 -0.2788  0.0570
   52CHL1    H6 3784   2.336   4.496   7.130  0.8300 -0.0969  0.6535
   52CHL1    C7 3785   2.329   4.564   7.342  1.0615 -0.5940 -0.4839
   52CHL1   H7A 3786   2.366   4.461   7.356  0.4472 -1.0863 -2.2001
   52CHL1   H7B 3787   2.421   4.627   7.349  1.8299 -1.7502  0.1021
   52CHL1    C8 3788   2.223   4.627   7.442 -0.2355  0.3338  1.1949
   52CHL1    H8 3789   2.133   4.562   7.440  0.6670 -0.9474  0.5582
   52CHL1   C14 3790   2.279   4.644   7.578 -0.0929 -0.0404  0.1681
   52CHL1   H14 3791   2.371   4.705   7.564 -2.0435  2.8041 -1.0619
   52CHL1   C15 3792   2.337   4.523   7.648  0.8863  0.1412 -0.1908
   52CHL1  H15A 3793   2.270   4.435   7.632  0.5236  0.4883 -0.6041
   52CHL1  H15B 3794   2.433   4.496   7.601  1.0087  0.8496 -0.3517
   52CHL1   C16 3795   2.335   4.558   7.795  0.2983 -0.1973  0.4532
   52CHL1  H16A 3796   2.260   4.493   7.846  0.8091 -0.8813  0.3455
   52CHL1  H16B 3797   2.435   4.551   7.843 -0.3757  0.3771  1.9955
   52CHL1   C17 3798   2.279   4.705   7.809  0.7640 -0.3272 -0.4769
   52CHL1   H17 3799   2.367   4.769   7.791  0.8195 -1.0311 -3.2431
   52CHL1   C13 3800   2.187   4.715   7.680  0.4388 -0.0389  0.0592
   52CHL1   C18 3801   2.050   4.631   7.691 -0.1574  0.4003 -0.3445
   52CHL1  H18A 3802   1.995   4.633   7.595  1.4545 -0.5440 -1.3377
   52CHL1  H18B 3803   2.062   4.527   7.728 -1.6702  0.4730  0.4558
   52CHL1  H18C 3804   1.986   4.676   7.770  0.5238 -1.5011  1.3742
   52CHL1   C12 3805   2.166   4.864   7.631  0.2206  0.4521  0.1885
   52CHL1  H12A 3806   2.112   4.925   7.707  1.9012 -1.0359  2.7440
   52CHL1  H12B 3807   2.266   4.913   7.630  0.5625 -0.1865  1.2775
   52CHL1   C11 3808   2.105   4.854   7.485  0.4235  0.2516 -0.6454
   52CHL1  H11A 3809   1.999   4.823   7.499  1.0745 -1.4898  1.0614
   52CHL1  H11B 3810   2.105   4.957   7.446  2.2955 -0.1451 -1.7930
   52CHL1    C9 3811   2.182   4.767   7.385  0.6709 -0.0633 -0.4088
   52CHL1    H9 3812   2.278   4.823   7.376 -0.6332  2.6074  1.1654
   52CHL1   C10 3813   2.118   4.748   7.244 -0.9370 -0.1306 -0.4461
   52CHL1   C19 3814   1.968   4.721   7.252  0.3340  0.6068 -0.2617
   52CHL1  H19A 3815   1.909   4.802   7.301  2.7911  2.1717  0.3023
   52CHL1  H19B 3816   1.927   4.694   7.153 -3.5166  1.2145  1.0002
   52CHL1  H19C 3817   1.958   4.633   7.320  2.1910  0.3145 -0.3132
   52CHL1    C1 3818   2.146   4.875   7.160  0.2875  0.1663 -0.2810
   52CHL1   H1A 3819   2.087   4.955   7.210  0.5453  0.3508 -0.2691
   52CHL1   H1B 3820   2.253   4.903   7.168  0.0811  0.4010  2.4615
   52CHL1    C2 3821   2.102   4.871   7.014 -0.1512 -0.0118 -0.2263
   52CHL1   H2A 3822   2.130   4.970   6.971 -0.5067 -0.1942 -0.8835
   52CHL1   H2B 3823   1.991   4.864   7.012 -0.1725  0.0552 -3.0635
   52CHL1   C20 3824   2.219   4.723   7.950  0.4361 -0.0365  0.1497
   52CHL1   H20 3825   2.139   4.649   7.968 -1.1193  1.2651 -1.0483
   52CHL1   C21 3826   2.157   4.866   7.959  0.8205  0.6856 -0.3948
   52CHL1  H21A 3827   2.118   4.869   8.064  0.6423  0.6618 -0.4595
   52CHL1  H21B 3828   2.062   4.874   7.902 -0.9670  1.4941  2.4274
   52CHL1  H21C 3829   2.222   4.954   7.943  0.9526  1.2618  2.6379
   52CHL1   C22 3830   2.314   4.698   8.065  0.5027  0.3922  0.2104
   52CHL1  H22A 3831   2.418   4.731   8.047  0.0885  1.8747  0.4482
   52CHL1  H22B 3832   2.277   4.766   8.144 -0.8101  0.5435 -0.5075
   52CHL1   C23 3833   2.302   4.561   8.135  0.3902 -0.0439 -0.2506
   52CHL1  H23A 3834   2.200   4.538   8.171  1.4458 -1.6190  1.9363
   52CHL1  H23B 3835   2.335   4.486   8.060  1.8677 -0.0656  0.3927
   52CHL1   C24 3836   2.406   4.533   8.256  0.6272 -0.4198  0.4110
   52CHL1  H24A 3837   2.507   4.542   8.211  0.6217 -2.9109 -0.2478
   52CHL1  H24B 3838   2.391   4.610   8.336 -1.4044  1.7218 -1.8594
   52CHL1   C25 3839   2.407   4.390   8.306 -0.1340 -0.3410 -0.7225
   52CHL1   H25 3840   2.432   4.330   8.216  4.9623 -1.3761  1.0676
   52CHL1   C26 3841   2.516   4.356   8.402 -0.5130 -0.0916  0.4811
   52CHL1  H26A 3842   2.614   4.367   8.350 -1.0816 -1.8471 -1.0309
   52CHL1  H26B 3843   2.510   4.427   8.488  0.3383  0.8565 -0.2134
   52CHL1  H26C 3844   2.524   4.259   8.454 -1.2332 -0.3904  0.0431
   52CHL1   C27 3845   2.275   4.348   8.374 -0.6216  0.2353  0.1814
   52CHL1  H27A 3846   2.192   4.338   8.302  0.0653 -0.5173 -0.5248
   52CHL1  H27B 3847   2.288   4.243   8.407  1.9442  0.5594  0.4340
   52CHL1  H27C 3848   2.252   4.402   8.469 -0.3520 -0.2851  0.5517
   53CHL1    C3 3849   5.342   2.754   7.046 -0.6360  0.2312 -0.1817
   53CHL1    H3 3850   5.241   2.710   7.057 -1.4819  1.5082 -2.3259
   53CHL1    O3 3851   5.350   2.787   6.906 -0.2624  0.2762  0.2954
   53CHL1   H3' 3852   5.367   2.881   6.904  1.1423  0.2275  3.8257
   53CHL1    C4 3853   5.350   2.883   7.129  0.1624  0.2508  0.5876
   53CHL1   H4A 3854   5.442   2.938   7.100 -0.0053  0.8681  1.1922
   53CHL1   H4B 3855   5.263   2.952   7.118  1.5534  2.5794  3.0213
   53CHL1    C5 3856   5.351   2.840   7.274  0.4085 -0.7374 -1.4389
   53CHL1    C6 3857   5.259   2.891   7.369 -0.0628 -0.2068  0.9644
   53CHL1    H6 3858   5.181   2.962   7.339  0.5392  1.8717  3.8863
   53CHL1    C7 3859   5.251   2.862   7.514 -0.4986  0.0281 -0.0213
   53CHL1   H7A 3860   5.226   2.957   7.567  1.1449  0.7520 -0.4648
   53CHL1   H7B 3861   5.170   2.787   7.522 -0.3533 -0.2439 -0.9697
   53CHL1    C8 3862   5.386   2.808   7.569  0.5941 -0.2431  0.1209
   53CHL1    H8 3863   5.449   2.899   7.578 -0.8601  0.7087  1.2026
   53CHL1   C14 3864   5.360   2.749   7.705 -0.5968  0.5219 -0.3602
   53CHL1   H14 3865   5.287   2.669   7.678  0.1966 -0.4755  0.3874
   53CHL1   C15 3866   5.285   2.824   7.821 -0.1712  0.4531 -0.0623
   53CHL1  H15A 3867   5.331   2.920   7.850  1.3926 -0.4309  0.5045
   53CHL1  H15B 3868   5.181   2.844   7.787  0.5657 -1.2619 -3.8701
   53CHL1   C16 3869   5.283   2.723   7.944 -0.3970  0.1491  0.2998
   53CHL1  H16A 3870   5.315   2.782   8.033  0.7025 -0.5590  0.3922
   53CHL1  H16B 3871   5.187   2.668   7.948 -1.2558  1.5102 -0.7262
   53CHL1   C17 3872   5.399   2.622   7.906  0.6735  0.2912  0.1215
   53CHL1   H17 3873   5.349   2.527   7.875  0.1478 -0.0577  1.9148
   53CHL1   C13 3874   5.473   2.678   7.780 -0.1499  0.5221  0.3502
   53CHL1   C18 3875   5.579   2.773   7.823  0.0841  0.1048  0.0796
   53CHL1  H18A 3876   5.660   2.717   7.873 -0.4471  1.0594  2.1034
   53CHL1  H18B 3877   5.623   2.834   7.741  0.1834  3.1859  2.2479
   53CHL1  H18C 3878   5.535   2.844   7.896 -2.9366  1.3689 -2.6768
   53CHL1   C12 3879   5.519   2.573   7.677 -0.7059 -0.5572  0.4675
   53CHL1  H12A 3880   5.607   2.518   7.717  0.3370  1.2691  0.7885
   53CHL1  H12B 3881   5.436   2.500   7.664 -4.5337  3.3632  0.8701
   53CHL1   C11 3882   5.566   2.627   7.537 -0.3439 -0.0788 -0.4548
   53CHL1  H11A 3883   5.645   2.699   7.566 -3.6777  2.7984  2.4103
   53CHL1  H11B 3884   5.599   2.541   7.474  0.7825 -0.0639  0.0891
   53CHL1    C9 3885   5.450   2.706   7.470  0.6998 -0.4053 -0.4854
   53CHL1    H9 3886   5.374   2.626   7.461 -0.3590  0.3227  1.4333
   53CHL1   C10 3887   5.472   2.751   7.322  0.0249  0.2947 -0.0218
   53CHL1   C19 3888   5.600   2.838   7.317 -0.4808  1.0397  0.2579
   53CHL1  H19A 3889   5.618   2.927   7.380  0.3315  1.1168 -0.0751
   53CHL1  H19B 3890   5.688   2.778   7.348 -0.8069  0.2882 -0.2247
   53CHL1  H19C 3891   5.628   2.872   7.215 -0.1799 -1.4263 -0.5558
   53CHL1    C1 3892   5.467   2.627   7.222 -0.3713 -0.4928 -0.8052
   53CHL1   H1A 3893   5.566   2.577   7.236 -0.3429 -0.6167 -1.4031
   53CHL1   H1B 3894   5.389   2.551   7.245  0.2244 -0.7120  0.5820
   53CHL1    C2 3895   5.460   2.659   7.073  0.2983 -0.1805 -0.0019
   53CHL1   H2A 3896   5.438   2.561   7.025  0.1134  0.0899 -0.4766
   53CHL1   H2B 3897   5.556   2.707   7.042  0.8108 -0.3374  1.2766
   53CHL1   C20 3898   5.480   2.578   8.034 -0.3900  0.0606  0.3999
   53CHL1   H20 3899   5.538   2.664   8.073  1.6545 -1.3090  0.5710
   53CHL1   C21 3900   5.574   2.468   7.989 -0.2919  0.0890  0.0861
   53CHL1  H21A 3901   5.655   2.509   7.924 -0.5347 -0.2905 -0.4632
   53CHL1  H21B 3902   5.522   2.395   7.924  0.5622 -1.0768  0.6724
   53CHL1  H21C 3903   5.616   2.410   8.073 -1.1538 -0.2334  0.2973
   53CHL1   C22 3904   5.390   2.530   8.150 -0.0782  0.3518 -1.2799
   53CHL1  H22A 3905   5.311   2.604   8.174 -0.5710 -0.8794  1.3038
   53CHL1  H22B 3906   5.335   2.441   8.114 -0.7033  0.8258 -1.5042
   53CHL1   C23 3907   5.456   2.506   8.292 -0.2993  0.0981  0.2992
   53CHL1  H23A 3908   5.548   2.445   8.282  1.2013  2.3016 -0.1688
   53CHL1  H23B 3909   5.492   2.605   8.327  0.2071  0.0567 -0.1058
   53CHL1   C24 3910   5.361   2.445   8.385 -0.2444  0.9863 -0.3433
   53CHL1  H24A 3911   5.273   2.512   8.395 -1.9217 -1.4864  3.2057
   53CHL1  H24B 3912   5.318   2.347   8.357 -1.4659  0.7551  2.0862
   53CHL1   C25 3913   5.399   2.424   8.537  0.1434  0.1327  1.1481
   53CHL1   H25 3914   5.437   2.518   8.583 -1.1607 -0.4317  3.5286
   53CHL1   C26 3915   5.272   2.392   8.613 -0.3408 -0.6696 -0.6620
   53CHL1  H26A 3916   5.291   2.401   8.722  2.2393  1.2027 -1.1620
   53CHL1  H26B 3917   5.189   2.459   8.584  0.6027  0.2140 -1.4343
   53CHL1  H26C 3918   5.246   2.285   8.602  0.5863 -1.0810  0.7680
   53CHL1   C27 3919   5.499   2.310   8.555 -0.0840  0.5162 -0.2193
   53CHL1  H27A 3920   5.452   2.214   8.522 -2.0498  1.1728  0.5063
   53CHL1  H27B 3921   5.586   2.324   8.489 -1.5943  2.8724 -1.8484
   53CHL1  H27C 3922   5.535   2.305   8.660 -1.4270  0.4505  0.2601
   54CHL1    C3 3923   5.863   3.355   6.929  0.0131 -0.4492 -0.5941
   54CHL1    H3 3924   5.960   3.308   6.905  1.5559  1.4381  1.5347
   54CHL1    O3 3925   5.785   3.372   6.811  0.5406  0.4903 -0.2740
   54CHL1   H3' 3926   5.847   3.419   6.754 -0.2447  2.4403  0.3746
   54CHL1    C4 3927   5.784   3.266   7.033 -0.3154 -0.5167 -0.2155
   54CHL1   H4A 3928   5.676   3.292   7.035 -0.7953 -2.4440  1.4282
   54CHL1   H4B 3929   5.788   3.165   6.987  0.4482 -0.8738  0.6025
   54CHL1    C5 3930   5.852   3.269   7.168  0.7011 -0.3868  0.0727
   54CHL1    C6 3931   5.879   3.153   7.229 -0.0831 -0.0529 -0.6402
   54CHL1    H6 3932   5.847   3.057   7.187  2.4065 -2.3940  2.2971
   54CHL1    C7 3933   5.921   3.139   7.374  0.1744 -0.2748  0.9308
   54CHL1   H7A 3934   5.874   3.056   7.431 -1.5280  0.9305  1.3727
   54CHL1   H7B 3935   6.030   3.125   7.386  0.4235  1.5264  1.0816
   54CHL1    C8 3936   5.889   3.278   7.454 -0.3539 -0.3361 -0.2899
   54CHL1    H8 3937   5.778   3.284   7.452 -0.3856 -0.7558 -0.0378
   54CHL1   C14 3938   5.939   3.273   7.600 -0.1957 -0.0872 -0.3428
   54CHL1   H14 3939   6.049   3.273   7.587 -0.2725  0.9773 -1.1285
   54CHL1   C15 3940   5.899   3.149   7.683  0.3820  0.6434  1.0032
   54CHL1  H15A 3941   5.793   3.124   7.662  0.1982  2.4970 -0.6298
   54CHL1  H15B 3942   5.965   3.061   7.667  2.2807  2.4538 -2.3481
   54CHL1   C16 3943   5.901   3.206   7.826 -0.8040  0.0122  0.1264
   54CHL1  H16A 3944   5.805   3.208   7.883 -0.6932  0.8768  0.3020
   54CHL1  H16B 3945   5.970   3.140   7.883  1.1823  1.7906 -0.1387
   54CHL1   C17 3946   5.947   3.354   7.814 -0.5830 -0.1261 -0.1168
   54CHL1   H17 3947   6.057   3.349   7.800 -0.4744  2.0373 -0.3389
   54CHL1   C13 3948   5.899   3.402   7.675 -0.6911 -0.0139 -0.4946
   54CHL1   C18 3949   5.748   3.420   7.677  0.7027  0.2091 -0.0986
   54CHL1  H18A 3950   5.701   3.327   7.716  1.2267  0.3786  0.9787
   54CHL1  H18B 3951   5.717   3.506   7.740 -1.4402 -0.2084 -0.5063
   54CHL1  H18C 3952   5.694   3.427   7.580  0.4069 -0.6369 -0.0091
   54CHL1   C12 3953   5.976   3.513   7.604  0.6535  0.1049  0.2245
   54CHL1  H12A 3954   5.962   3.614   7.649 -3.1299 -0.4707  0.6679
   54CHL1  H12B 3955   6.085   3.489   7.605  0.5838 -0.2191  0.9864
   54CHL1   C11 3956   5.944   3.531   7.454 -0.5808 -0.1583 -0.4928
   54CHL1  H11A 3957   5.850   3.591   7.457 -1.2903 -1.2589  1.2299
   54CHL1  H11B 3958   6.019   3.600   7.411  0.0247 -0.9011 -0.6453
   54CHL1    C9 3959   5.942   3.397   7.374 -0.0868 -0.2694 -0.1440
   54CHL1    H9 3960   6.051   3.376   7.366 -0.3027 -0.8806 -1.9943
   54CHL1   C10 3961   5.881   3.406   7.228 -0.3365 -0.2635 -0.0860
   54CHL1   C19 3962   5.757   3.497   7.241 -0.3503 -0.3924 -0.2494
   54CHL1  H19A 3963   5.785   3.600   7.270 -1.3626 -0.1278 -0.2071
   54CHL1  H19B 3964   5.693   3.495   7.151 -1.9502 -1.5475  0.8523
   54CHL1  H19C 3965   5.679   3.453   7.307 -0.5099 -2.0501 -1.4723
   54CHL1    C1 3966   5.977   3.466   7.127 -0.6872 -0.5494  0.5793
   54CHL1   H1A 3967   6.011   3.567   7.159 -0.2441 -0.6939  0.5709
   54CHL1   H1B 3968   6.068   3.403   7.132 -2.0974 -2.6595  2.0072
   54CHL1    C2 3969   5.910   3.480   6.984 -0.3897 -0.0018 -0.9801
   54CHL1   H2A 3970   5.979   3.539   6.920  1.4163 -0.5342  0.3908
   54CHL1   H2B 3971   5.819   3.544   6.991  0.6049  1.2453  2.5070
   54CHL1   C20 3972   5.909   3.438   7.936 -0.4024 -0.2726  0.5539
   54CHL1   H20 3973   5.799   3.427   7.939 -0.5747  0.6790 -0.9783
   54CHL1   C21 3974   5.971   3.581   7.915  0.5531  0.4796 -0.4733
   54CHL1  H21A 3975   5.914   3.648   7.848  1.2398  0.4011 -1.1415
   54CHL1  H21B 3976   6.081   3.587   7.898  0.2542  0.4122 -2.6036
   54CHL1  H21C 3977   5.961   3.645   8.005 -1.7360 -0.1302 -0.2307
   54CHL1   C22 3978   5.964   3.376   8.069  0.7253  0.0728  0.8952
   54CHL1  H22A 3979   5.919   3.275   8.081  0.2267  0.2646  0.6925
   54CHL1  H22B 3980   6.074   3.360   8.067  0.6960 -0.4983  2.5035
   54CHL1   C23 3981   5.925   3.456   8.191  0.1950 -0.4199  0.6313
   54CHL1  H23A 3982   5.980   3.552   8.195 -0.8275  0.1487  3.9985
   54CHL1  H23B 3983   5.815   3.468   8.199 -0.1598 -0.1287 -2.8993
   54CHL1   C24 3984   5.971   3.376   8.318  0.0796  0.4132 -0.7702
   54CHL1  H24A 3985   5.928   3.274   8.322  1.2324 -0.0890 -0.6418
   54CHL1  H24B 3986   6.080   3.362   8.303  0.0965  0.7174 -0.9395
   54CHL1   C25 3987   5.947   3.437   8.458 -0.3430  0.0471  0.1300
   54CHL1   H25 3988   6.002   3.532   8.474  3.4085 -1.6200 -1.5974
   54CHL1   C26 3989   5.795   3.466   8.481 -0.1986  0.6454  0.3258
   54CHL1  H26A 3990   5.727   3.381   8.457  0.0398 -0.6711  3.8192
   54CHL1  H26B 3991   5.788   3.485   8.590  3.1964 -1.5390  1.0776
   54CHL1  H26C 3992   5.765   3.550   8.415 -1.5075 -0.9267 -1.1941
   54CHL1   C27 3993   5.995   3.338   8.567  0.2553  0.5170  0.3464
   54CHL1  H27A 3994   6.099   3.309   8.542 -0.7521 -1.2509 -2.1850
   54CHL1  H27B 3995   5.979   3.385   8.667  3.9340 -0.5936  1.6468
   54CHL1  H27C 3996   5.939   3.242   8.569 -0.1639  0.7111 -1.0717
   55CHL1    C3 3997   0.163   3.481   6.912  0.4351 -0.6526  0.5416
   55CHL1    H3 3998   0.061   3.439   6.922 -0.6351  1.8520  0.9703
   55CHL1    O3 3999   0.225   3.470   6.786  0.1094 -0.2596 -0.0721
   55CHL1   H3' 4000   0.319   3.470   6.806  0.4820  2.0863 -1.3354
   55CHL1    C4 4001   0.135   3.630   6.945  0.3675 -0.2147 -0.6723
   55CHL1   H4A 4002   0.233   3.679   6.927  0.7607 -1.0296 -0.8380
   55CHL1   H4B 4003   0.059   3.679   6.880 -3.4090 -1.9792  2.0369
   55CHL1    C5 4004   0.096   3.649   7.095 -0.4515  0.1779  0.7440
   55CHL1    C6 4005  -0.008   3.723   7.124  0.3162 -0.3650 -0.5099
   55CHL1    H6 4006  -0.069   3.761   7.041 -0.0344 -0.8725 -0.4911
   55CHL1    C7 4007  -0.060   3.749   7.260  0.0464 -0.2399 -0.3307
   55CHL1   H7A 4008  -0.099   3.851   7.277 -1.8666 -0.9020 -0.5049
   55CHL1   H7B 4009  -0.147   3.685   7.289  0.5008 -0.4528  0.6025
   55CHL1    C8 4010   0.049   3.718   7.362  0.3774 -0.3545 -0.0774
   55CHL1    H8 4011   0.126   3.798   7.355 -0.3614  0.5236  1.3006
   55CHL1   C14 4012  -0.004   3.723   7.505  0.0254  0.0511  0.0818
   55CHL1   H14 4013  -0.084   3.647   7.510  0.5295 -0.5067 -0.2474
   55CHL1   C15 4014  -0.078   3.855   7.547 -0.1672  0.3614 -0.1210
   55CHL1  H15A 4015  -0.032   3.948   7.510 -0.8491  1.2336  1.1416
   55CHL1  H15B 4016  -0.186   3.852   7.523 -0.5337 -0.2838  1.4451
   55CHL1   C16 4017  -0.066   3.855   7.699  0.7515  0.7327  0.3164
   55CHL1  H16A 4018  -0.013   3.949   7.728  0.8882  1.2475 -1.4730
   55CHL1  H16B 4019  -0.167   3.846   7.744  0.2809 -0.5675 -0.9590
   55CHL1   C17 4020   0.019   3.731   7.740  0.6597 -0.1860 -0.9929
   55CHL1   H17 4021  -0.049   3.646   7.762  0.8958  0.2050  1.4531
   55CHL1   C13 4022   0.105   3.704   7.612 -0.1151 -0.6262  0.7867
   55CHL1   C18 4023   0.210   3.818   7.601 -0.6288  0.0730 -0.3819
   55CHL1  H18A 4024   0.261   3.814   7.503  0.6569  0.0165  0.2656
   55CHL1  H18B 4025   0.175   3.924   7.601  1.6098  0.8753 -0.8637
   55CHL1  H18C 4026   0.281   3.817   7.688 -0.3729 -1.7081 -0.5811
   55CHL1   C12 4027   0.158   3.562   7.593  0.3470 -0.5650  0.2872
   55CHL1  H12A 4028   0.244   3.554   7.662  1.5366 -3.1272 -1.3697
   55CHL1  H12B 4029   0.079   3.488   7.619  2.9122 -2.4987  3.2480
   55CHL1   C11 4030   0.214   3.536   7.451 -0.2953 -0.3535  0.3390
   55CHL1  H11A 4031   0.306   3.597   7.442  0.6934 -1.7350  0.7786
   55CHL1  H11B 4032   0.235   3.428   7.434  0.0676  0.0719 -2.2805
   55CHL1    C9 4033   0.116   3.581   7.339 -0.1036  0.5276 -0.1043
   55CHL1    H9 4034   0.028   3.513   7.343 -0.2038  0.3584 -2.9692
   55CHL1   C10 4035   0.183   3.579   7.204 -0.1503  0.6561 -0.8324
   55CHL1   C19 4036   0.315   3.663   7.196  0.1087 -0.1877 -0.3163
   55CHL1  H19A 4037   0.400   3.597   7.226 -0.5157 -1.1942 -0.7423
   55CHL1  H19B 4038   0.345   3.699   7.095 -1.7819  0.0540 -0.8160
   55CHL1  H19C 4039   0.306   3.758   7.254 -0.1144 -0.1461 -0.4193
   55CHL1    C1 4040   0.223   3.431   7.153 -0.3887  0.3097 -0.5123
   55CHL1   H1A 4041   0.305   3.388   7.214 -0.2587  1.7905  0.3923
   55CHL1   H1B 4042   0.133   3.370   7.177 -0.1407  0.6353  1.3619
   55CHL1    C2 4043   0.261   3.415   7.004  0.2843 -0.4292 -0.3457
   55CHL1   H2A 4044   0.263   3.305   6.989 -0.5173 -0.7650  1.7026
   55CHL1   H2B 4045   0.359   3.466   6.989 -0.0814  0.1803 -0.6815
   55CHL1   C20 4046   0.094   3.750   7.874 -0.5876  0.2199  0.3447
   55CHL1   H20 4047   0.183   3.811   7.849  1.9941 -2.7326  1.6440
   55CHL1   C21 4048   0.148   3.616   7.933 -0.5210  0.0906  0.1597
   55CHL1  H21A 4049   0.071   3.542   7.962 -0.5395  1.0567  2.8490
   55CHL1  H21B 4050   0.201   3.643   8.026 -2.9946  1.5124  1.2792
   55CHL1  H21C 4051   0.221   3.571   7.863  0.1270 -0.1524  0.9851
   55CHL1   C22 4052   0.000   3.817   7.978 -0.7306  0.0270  0.0937
   55CHL1  H22A 4053  -0.056   3.903   7.936 -1.1720 -0.4842 -0.3712
   55CHL1  H22B 4054  -0.074   3.739   8.005  0.3435 -0.6078  1.3552
   55CHL1   C23 4055   0.063   3.864   8.117 -0.0289  0.7386  0.4349
   55CHL1  H23A 4056  -0.021   3.896   8.182 -0.2214  0.6888  0.2124
   55CHL1  H23B 4057   0.105   3.776   8.169 -1.6044  0.0533  0.6277
   55CHL1   C24 4058   0.185   3.957   8.095 -0.1818 -0.4233  0.3209
   55CHL1  H24A 4059   0.272   3.903   8.051 -0.4786 -1.3429  0.8465
   55CHL1  H24B 4060   0.142   4.026   8.019 -1.1588  0.8638  1.9896
   55CHL1   C25 4061   0.234   4.049   8.205  0.4403 -0.2127  0.5008
   55CHL1   H25 4062   0.152   4.120   8.228 -0.6668 -1.0511 -0.6550
   55CHL1   C26 4063   0.275   3.975   8.335  0.0630 -0.4483 -0.2538
   55CHL1  H26A 4064   0.186   3.919   8.369 -0.9795  1.2020 -0.1331
   55CHL1  H26B 4065   0.347   3.896   8.306 -0.0224 -0.4833 -0.3699
   55CHL1  H26C 4066   0.330   4.041   8.406 -0.3943 -0.4261  0.0851
   55CHL1   C27 4067   0.353   4.130   8.153  0.1577  0.1034 -0.1153
   55CHL1  H27A 4068   0.406   4.073   8.074 -0.1527  0.2176 -0.4112
   55CHL1  H27B 4069   0.308   4.224   8.113  0.9983  0.8898  0.7246
   55CHL1  H27C 4070   0.418   4.155   8.240  0.0729 -1.4314  0.4186
   56CHL1    C3 4071   5.411   3.514   7.018 -0.4449 -0.4321  0.5406
   56CHL1    H3 4072   5.521   3.531   7.027 -0.8606  2.6679  0.8482
   56CHL1    O3 4073   5.377   3.522   6.881 -1.0097  0.0181 -0.0599
   56CHL1   H3' 4074   5.320   3.600   6.880 -0.7560  0.2020 -0.1437
   56CHL1    C4 4075   5.354   3.388   7.069 -0.1534  0.3735 -0.2100
   56CHL1   H4A 4076   5.250   3.374   7.032  0.6488 -0.7589 -2.1927
   56CHL1   H4B 4077   5.421   3.311   7.025 -0.4772 -0.9232  1.4685
   56CHL1    C5 4078   5.360   3.374   7.216 -0.7928  0.0216 -0.3369
   56CHL1    C6 4079   5.412   3.261   7.270 -0.0201 -0.1097  0.4798
   56CHL1    H6 4080   5.452   3.184   7.202 -1.7985  0.4966 -1.3075
   56CHL1    C7 4081   5.425   3.223   7.413  0.3095  0.8093  0.4006
   56CHL1   H7A 4082   5.388   3.122   7.439 -1.6087  0.9218 -1.5837
   56CHL1   H7B 4083   5.531   3.240   7.439  0.9078  1.3378 -2.1075
   56CHL1    C8 4084   5.344   3.317   7.501 -0.1968  0.5835 -0.0931
   56CHL1    H8 4085   5.242   3.273   7.506 -0.0567  0.3328  0.7662
   56CHL1   C14 4086   5.394   3.308   7.642  0.4170 -0.0735 -0.5055
   56CHL1   H14 4087   5.500   3.338   7.628  0.8318 -1.1529  0.1753
   56CHL1   C15 4088   5.407   3.177   7.723 -0.2827 -0.6485  0.3149
   56CHL1  H15A 4089   5.336   3.096   7.695 -0.4291  0.1846 -1.9839
   56CHL1  H15B 4090   5.506   3.128   7.711 -1.1002 -2.1846 -0.5091
   56CHL1   C16 4091   5.379   3.211   7.868 -0.1431  0.2829 -0.1142
   56CHL1  H16A 4092   5.287   3.162   7.906 -0.1349  0.5562  0.2646
   56CHL1  H16B 4093   5.460   3.184   7.938  0.1257  0.5275 -0.3284
   56CHL1   C17 4094   5.389   3.367   7.875 -1.0739  0.3223 -0.3967
   56CHL1   H17 4095   5.497   3.394   7.874 -0.7630 -0.1597  3.5266
   56CHL1   C13 4096   5.330   3.407   7.744  0.8617 -0.7119  0.9291
   56CHL1   C18 4097   5.178   3.373   7.751  0.1516  0.1765 -0.0955
   56CHL1  H18A 4098   5.121   3.369   7.655  1.3050 -1.5501 -0.7582
   56CHL1  H18B 4099   5.160   3.274   7.797  0.6899 -0.1462 -0.5654
   56CHL1  H18C 4100   5.115   3.440   7.814 -2.0528 -1.7600 -0.1004
   56CHL1   C12 4101   5.357   3.544   7.695  0.2478 -0.4063  0.1488
   56CHL1  H12A 4102   5.304   3.618   7.759  0.1878 -2.5175  2.7025
   56CHL1  H12B 4103   5.467   3.562   7.700  0.3225 -1.1140  2.4829
   56CHL1   C11 4104   5.295   3.564   7.557  0.4828  0.5194 -0.0519
   56CHL1  H11A 4105   5.186   3.543   7.553  0.5015  0.5210 -2.8590
   56CHL1  H11B 4106   5.317   3.668   7.525  1.5568  0.2837 -0.1419
   56CHL1    C9 4107   5.359   3.464   7.453 -0.9564 -0.6100  0.0326
   56CHL1    H9 4108   5.467   3.491   7.456 -1.3968  1.1856  0.7293
   56CHL1   C10 4109   5.315   3.489   7.304  0.4023  0.3796  0.7062
   56CHL1   C19 4110   5.161   3.479   7.295  0.7850 -0.1976 -0.6833
   56CHL1  H19A 4111   5.115   3.569   7.341  2.3733  0.9392 -1.2312
   56CHL1  H19B 4112   5.116   3.467   7.194  0.6780  0.5231 -0.7316
   56CHL1  H19C 4113   5.125   3.399   7.363 -1.2619  2.8999  2.2100
   56CHL1    C1 4114   5.360   3.622   7.247  0.4497  0.3120  0.8512
   56CHL1   H1A 4115   5.299   3.700   7.296 -0.5261  0.1768 -0.1015
   56CHL1   H1B 4116   5.463   3.654   7.275 -0.1090  2.0410  0.9942
   56CHL1    C2 4117   5.336   3.630   7.088 -0.2753 -0.0503  0.0179
   56CHL1   H2A 4118   5.359   3.731   7.049 -0.6666  0.5512  1.2902
   56CHL1   H2B 4119   5.230   3.620   7.057 -0.7954  1.7400  1.0309
   56CHL1   C20 4120   5.334   3.426   8.011 -0.1048  0.3099 -0.5266
   56CHL1   H20 4121   5.223   3.416   8.008 -0.0044 -1.7018  0.5926
   56CHL1   C21 4122   5.361   3.580   8.022  0.1210  0.0196 -0.9416
   56CHL1  H21A 4123   5.335   3.614   8.124 -1.2755 -2.3392 -0.4339
   56CHL1  H21B 4124   5.299   3.636   7.949  0.6591  0.9413 -0.6962
   56CHL1  H21C 4125   5.469   3.604   8.014 -0.1411  1.0355 -1.5561
   56CHL1   C22 4126   5.372   3.345   8.133  1.1349 -0.1398 -0.4520
   56CHL1  H22A 4127   5.326   3.392   8.223  1.2967 -1.3890  0.3039
   56CHL1  H22B 4128   5.320   3.247   8.129  0.8697 -0.1126  1.4316
   56CHL1   C23 4129   5.519   3.325   8.171  0.9948 -0.2871 -0.2056
   56CHL1  H23A 4130   5.584   3.298   8.084  0.0670  1.1661 -1.3987
   56CHL1  H23B 4131   5.561   3.420   8.210 -0.3472  0.5159 -0.6597
   56CHL1   C24 4132   5.536   3.216   8.274 -0.6941  0.4686  1.0279
   56CHL1  H24A 4133   5.646   3.209   8.293 -0.8008  1.3216  2.0001
   56CHL1  H24B 4134   5.476   3.242   8.364 -1.5368 -1.2557  1.0098
   56CHL1   C25 4135   5.496   3.076   8.225  0.5889  0.8130 -0.2290
   56CHL1   H25 4136   5.418   3.076   8.145  1.6369 -1.3169 -1.3530
   56CHL1   C26 4137   5.606   2.993   8.150 -0.1745 -0.4470 -0.6453
   56CHL1  H26A 4138   5.572   2.888   8.134  1.9827 -1.3650  0.3983
   56CHL1  H26B 4139   5.697   2.994   8.214 -0.7366  1.1145  0.1678
   56CHL1  H26C 4140   5.629   3.050   8.058 -0.0104  1.4581  0.5306
   56CHL1   C27 4141   5.450   2.997   8.347  0.4338 -0.3576 -0.1440
   56CHL1  H27A 4142   5.530   2.984   8.423 -1.5007 -0.8487  1.8881
   56CHL1  H27B 4143   5.363   3.046   8.394  0.4876 -0.4806  0.0856
   56CHL1  H27C 4144   5.427   2.893   8.315 -1.8321 -0.2399  0.9461
   57SAPC     N 4145   0.045   3.684  10.744  1.0592  1.0351  0.2262
   57SAPC   C12 4146   0.139   3.803  10.773 -0.0457  0.7198 -0.6209
   57SAPC  H12A 4147   0.150   3.861  10.682  1.5478  1.8179  0.2395
   57SAPC  H12B 4148   0.232   3.761  10.810 -0.9113  1.7960  3.1967
   57SAPC   C13 4149  -0.063   3.715  10.649  0.6945 -0.0675  0.1218
   57SAPC  H13A 4150  -0.030   3.751  10.553 -0.1584 -0.5686 -0.3678
   57SAPC  H13B 4151  -0.119   3.623  10.644  1.6574 -0.6219 -0.9900
   57SAPC  H13C 4152  -0.133   3.790  10.681 -0.9265 -1.5775  0.2600
   57SAPC   C14 4153   0.120   3.577  10.668  0.6828 -0.2835  0.5517
   57SAPC  H14A 4154   0.206   3.533  10.716  1.1560  0.0702  0.0514
   57SAPC  H14B 4155   0.051   3.501  10.637  0.3957 -0.7433  2.2235
   57SAPC  H14C 4156   0.159   3.619  10.576  2.4351 -0.5770  1.1309
   57SAPC   C15 4157  -0.015   3.622  10.865 -0.3607  0.2998 -0.1084
   57SAPC  H15A 4158  -0.051   3.694  10.937  0.0826 -1.1894  1.6777
   57SAPC  H15B 4159  -0.094   3.556  10.833 -0.3086  0.5029 -0.6653
   57SAPC  H15C 4160   0.061   3.567  10.918 -2.0443 -1.2399  0.8216
   57SAPC   C11 4161   0.083   3.898  10.880 -0.1059 -0.4585  0.0960
   57SAPC  H11A 4162   0.143   3.990  10.868  0.1109 -0.5587  0.3957
   57SAPC  H11B 4163   0.106   3.852  10.978  0.8618 -1.3038 -0.4937
   57SAPC     P 4164  -0.156   3.972  10.953  0.2528  0.0209 -0.4254
   57SAPC   O13 4165  -0.286   3.980  10.885  0.0570 -0.1569 -0.4207
   57SAPC   O14 4166  -0.150   3.882  11.071 -0.0844  0.3650  0.2677
   57SAPC   O12 4167  -0.052   3.928  10.851 -0.2473 -0.0222 -0.0927
   57SAPC   O11 4168  -0.105   4.114  10.994  0.8420 -0.7354 -0.2910
   57SAPC    C1 4169  -0.150   4.237  10.929  0.0278 -0.2898 -0.1042
   57SAPC    HA 4170  -0.259   4.249  10.949  0.3435  0.4954  1.2778
   57SAPC    HB 4171  -0.110   4.333  10.968 -2.6978  0.6012  0.7941
   57SAPC    C2 4172  -0.131   4.248  10.768  0.4885  0.3794 -0.0002
   57SAPC    HS 4173  -0.167   4.157  10.717 -0.8327  2.2239 -2.6316
   57SAPC   O21 4174   0.012   4.259  10.747  0.0008  0.1267 -0.6027
   57SAPC   C21 4175   0.058   4.182  10.640 -0.5900 -0.9226  0.0861
   57SAPC   O22 4176  -0.008   4.133  10.554 -0.3930 -0.0438 -0.5322
   57SAPC   C22 4177   0.209   4.181  10.645  0.1375 -0.5508 -0.5406
   57SAPC   H2R 4178   0.254   4.282  10.654  1.1273 -0.9934 -0.4211
   57SAPC   H2S 4179   0.230   4.120  10.735  1.5068  1.2254  0.4095
   57SAPC    C3 4180  -0.199   4.372  10.705  0.1338  0.1917  0.7632
   57SAPC    HX 4181  -0.158   4.465  10.752  1.1573  0.8196 -1.2784
   57SAPC    HY 4182  -0.308   4.374  10.726  0.1513 -1.0185  1.0063
   57SAPC   O31 4183  -0.176   4.383  10.566 -0.4585 -0.4091 -0.4945
   57SAPC   C31 4184  -0.263   4.330  10.487 -0.4230  0.4982 -0.2138
   57SAPC   O32 4185  -0.361   4.264  10.526  0.2998  0.1271  0.0667
   57SAPC   C32 4186  -0.224   4.356  10.347 -0.6139  0.0398 -0.6071
   57SAPC   H2X 4187  -0.114   4.370  10.354 -0.2726 -2.8723  1.7704
   57SAPC   H2Y 4188  -0.278   4.446  10.309 -0.8315  0.2035  0.0603
   57SAPC   C23 4189   0.270   4.121  10.515  0.4261  0.8248 -0.3503
   57SAPC   H3R 4190   0.208   4.039  10.474  1.5191 -0.3908  0.3226
   57SAPC   H3S 4191   0.368   4.074  10.537  0.7763  2.8519  3.3562
   57SAPC   C24 4192   0.287   4.228  10.413 -0.0185 -0.4334 -0.3699
   57SAPC   H4R 4193   0.351   4.305  10.462 -1.7386  1.7870 -1.3825
   57SAPC   H4S 4194   0.187   4.274  10.394 -2.2903 -3.8723  2.1318
   57SAPC   C25 4195   0.351   4.169  10.283 -0.3260  0.2563 -0.0936
   57SAPC   H5R 4196   0.457   4.141  10.287 -0.4695 -0.1633  1.9499
   57SAPC   C26 4197   0.291   4.152  10.167 -0.0823 -0.8075  0.0801
   57SAPC   H6R 4198   0.352   4.136  10.077 -0.9772  4.1416 -1.7630
   57SAPC   C27 4199   0.145   4.184  10.138  0.9079  0.1423  0.1674
   57SAPC   H7R 4200   0.149   4.279  10.080  3.3136 -0.6123 -1.0585
   57SAPC   H7S 4201   0.087   4.199  10.231 -3.1084  0.8154 -2.2306
   57SAPC   C28 4202   0.081   4.077  10.058 -0.3879 -0.1056  0.3112
   57SAPC   H8R 4203   0.066   3.989  10.123 -1.4202 -0.1737 -0.0101
   57SAPC   C29 4204   0.046   4.070   9.923  0.2085 -0.5511  0.3552
   57SAPC   H9R 4205  -0.003   3.978   9.888 -1.8377  0.4465  0.4151
   57SAPC  C210 4206   0.059   4.177   9.819  0.3801  0.1948 -1.0634
   57SAPC  H10R 4207   0.076   4.278   9.864 -1.6595 -0.3878  1.2389
   57SAPC  H10S 4208  -0.034   4.189   9.759 -0.7989 -0.4314  0.5749
   57SAPC  C211 4209   0.183   4.150   9.736  0.4867  0.0404  0.0104
   57SAPC  H11R 4210   0.252   4.076   9.779 -0.7306 -2.4172 -2.0412
   57SAPC  C212 4211   0.205   4.192   9.611 -0.0127 -0.2277  0.6930
   57SAPC  H12R 4212   0.295   4.163   9.555 -0.2450  1.0249 -0.4006
   57SAPC  C213 4213   0.119   4.283   9.530  0.3507  0.0824  0.2726
   57SAPC  H13R 4214   0.160   4.385   9.542  1.3818 -0.4639  1.7284
   57SAPC  H13S 4215   0.015   4.286   9.571 -0.2257 -1.4578 -0.9483
   57SAPC  C214 4216   0.102   4.260   9.383 -0.0341  0.4046 -0.1222
   57SAPC  H14R 4217   0.123   4.155   9.357 -2.7054 -0.6854  1.7487
   57SAPC  C215 4218   0.060   4.341   9.281 -0.0382 -1.2485 -0.0384
   57SAPC  H15R 4219   0.056   4.306   9.177 -1.0291  0.6248 -0.6804
   57SAPC  C216 4220   0.011   4.483   9.305  0.1292  0.0883  0.5270
   57SAPC  H16R 4221   0.011   4.518   9.410 -0.8024  0.0563  0.5473
   57SAPC  H16S 4222  -0.100   4.479   9.291  0.2049 -0.5748  0.0680
   57SAPC  C217 4223   0.074   4.587   9.207  0.3715 -0.2057  0.2777
   57SAPC  H17R 4224   0.016   4.682   9.209 -0.0584 -0.4522 -0.1939
   57SAPC  H17S 4225   0.066   4.552   9.102  0.6328 -2.5648  0.9779
   57SAPC  C218 4226   0.215   4.620   9.251  0.2164  0.6719  0.2822
   57SAPC  H18R 4227   0.277   4.529   9.262 -1.9104 -1.6122 -3.8849
   57SAPC  H18S 4228   0.200   4.683   9.342 -1.0773 -0.2214  0.7134
   57SAPC  C219 4229   0.299   4.711   9.157 -0.3044  0.4071 -0.5399
   57SAPC  H19R 4230   0.397   4.715   9.209 -1.6465 -1.3113  2.3646
   57SAPC  H19S 4231   0.262   4.814   9.145  0.1349  0.5245 -0.9116
   57SAPC  C220 4232   0.316   4.656   9.010  0.1092  0.9336  0.0853
   57SAPC  H20R 4233   0.381   4.728   8.956 -0.3680  0.7908 -0.6828
   57SAPC  H20S 4234   0.219   4.627   8.965  0.9820 -1.3599 -0.4649
   57SAPC  H20T 4235   0.375   4.562   9.008  2.6118  2.4025  0.4146
   57SAPC   C33 4236  -0.237   4.228  10.254 -0.6049 -0.6811 -0.3212
   57SAPC   H3X 4237  -0.335   4.177  10.267 -0.6620 -0.6471 -0.6127
   57SAPC   H3Y 4238  -0.152   4.159  10.274  0.2293  0.2310 -0.6213
   57SAPC   C34 4239  -0.219   4.278  10.106 -0.9583  0.6807 -0.7809
   57SAPC   H4X 4240  -0.194   4.186  10.049 -1.5920 -0.2130  0.3158
   57SAPC   H4Y 4241  -0.134   4.349  10.102 -1.3223  1.0921 -1.3174
   57SAPC   C35 4242  -0.340   4.345  10.046  0.8662  0.3055 -0.1705
   57SAPC   H5X 4243  -0.432   4.311  10.099  1.4879 -0.5171  0.3921
   57SAPC   H5Y 4244  -0.349   4.308   9.942  1.9167  0.2053 -0.2384
   57SAPC   C36 4245  -0.337   4.496  10.041 -0.7023 -0.5810  0.1203
   57SAPC   H6X 4246  -0.239   4.528  10.000 -1.1774  0.4717 -0.2258
   57SAPC   H6Y 4247  -0.337   4.533  10.146  1.2037 -0.5961  0.1650
   57SAPC   C37 4248  -0.437   4.565   9.952 -0.1338  0.4899  0.2780
   57SAPC   H7X 4249  -0.446   4.671   9.985 -0.5864  0.8388 -0.9004
   57SAPC   H7Y 4250  -0.541   4.525   9.955  0.0849 -0.0448  1.2322
   57SAPC   C38 4251  -0.386   4.577   9.806  0.0227  0.4590 -0.1407
   57SAPC   H8X 4252  -0.401   4.475   9.763 -1.2132  0.1575  0.9453
   57SAPC   H8Y 4253  -0.277   4.598   9.809 -0.1483  1.4001 -0.2325
   57SAPC   C39 4254  -0.459   4.674   9.711  0.4134 -0.6003 -0.6388
   57SAPC   H9X 4255  -0.433   4.775   9.748  0.1343 -0.2031 -1.4916
   57SAPC   H9Y 4256  -0.569   4.657   9.714  0.2362  0.4360 -0.9117
   57SAPC  C310 4257  -0.413   4.661   9.561 -0.2616 -0.4828 -0.7717
   57SAPC  H10X 4258  -0.428   4.555   9.530 -0.4980 -0.6980  0.0729
   57SAPC  H10Y 4259  -0.303   4.669   9.547 -0.4794  1.8677 -1.6280
   57SAPC  C311 4260  -0.483   4.748   9.455 -0.1803 -0.0607 -0.2062
   57SAPC  H11X 4261  -0.493   4.856   9.475  1.3801  1.0866 -4.4246
   57SAPC  H11Y 4262  -0.585   4.714   9.426 -0.5597  0.6305  0.3081
   57SAPC  C312 4263  -0.401   4.755   9.326  0.2787  0.2386  0.1548
   57SAPC  H12X 4264  -0.394   4.658   9.272 -0.8630  0.1477  0.1313
   57SAPC  H12Y 4265  -0.295   4.771   9.355 -0.1451  0.6162  1.5807
   57SAPC  C313 4266  -0.452   4.856   9.218  0.6326 -0.0767 -0.4729
   57SAPC  H13X 4267  -0.437   4.961   9.250  1.9939 -0.7040  1.0806
   57SAPC  H13Y 4268  -0.562   4.841   9.214  0.4271  1.2579 -0.0868
   57SAPC  C314 4269  -0.384   4.819   9.087 -0.0307  0.3907  0.1621
   57SAPC  H14X 4270  -0.397   4.714   9.052  0.1069  1.2441 -2.7055
   57SAPC  H14Y 4271  -0.274   4.830   9.097  0.1331 -1.6176  1.0825
   57SAPC  C315 4272  -0.430   4.911   8.978  0.2285 -0.6414 -0.0363
   57SAPC  H15X 4273  -0.429   5.015   9.017  0.6402 -0.5545 -0.2685
   57SAPC  H15Y 4274  -0.537   4.886   8.962  0.4515 -1.1065 -0.8804
   57SAPC  C316 4275  -0.346   4.912   8.848 -0.4842 -0.2125 -0.3698
   57SAPC  H16X 4276  -0.346   4.812   8.801 -1.9094 -0.1564 -0.5188
   57SAPC  H16Y 4277  -0.245   4.949   8.876 -1.0243 -0.2277  1.8439
   57SAPC  C317 4278  -0.424   5.005   8.748  0.0120  0.0148  0.3954
   57SAPC  H17X 4279  -0.437   5.098   8.807  2.8539  2.5528 -2.5529
   57SAPC  H17Y 4280  -0.525   4.969   8.719 -0.2459  2.0589 -1.5887
   57SAPC  C318 4281  -0.338   5.040   8.624 -0.9029 -0.3656  0.0019
   57SAPC  H18X 4282  -0.265   5.123   8.631  0.2774 -1.4571  1.0202
   57SAPC  H18Y 4283  -0.393   5.055   8.528 -1.9161  0.4036  0.6753
   57SAPC  H18Z 4284  -0.276   4.949   8.613  0.2486  0.6039 -1.9345
   58SAPC     N 4285   3.039   1.416  10.682  0.7662 -0.3019 -0.7712
   58SAPC   C12 4286   2.955   1.311  10.612  0.3655  0.0573 -0.0872
   58SAPC  H12A 4287   2.890   1.364  10.544  0.1597  0.4510  0.4116
   58SAPC  H12B 4288   2.888   1.273  10.688  2.5209 -0.5792  1.6020
   58SAPC   C13 4289   3.101   1.369  10.801  0.6714 -0.2532  0.1070
   58SAPC  H13A 4290   3.168   1.286  10.785  1.1351 -0.2350  1.7892
   58SAPC  H13B 4291   3.149   1.454  10.847 -1.1458  0.4242  0.8596
   58SAPC  H13C 4292   3.024   1.347  10.873  0.9592 -3.4015 -0.4199
   58SAPC   C14 4293   3.131   1.479  10.582 -0.2265  0.5999  0.4834
   58SAPC  H14A 4294   3.209   1.405  10.570  0.1239  0.7737  1.5917
   58SAPC  H14B 4295   3.082   1.492  10.487 -0.8631 -2.2836  0.3216
   58SAPC  H14C 4296   3.180   1.570  10.614  0.2960  1.1140 -1.6175
   58SAPC   C15 4297   2.949   1.532  10.722 -0.0015  0.6614 -0.1981
   58SAPC  H15A 4298   2.873   1.487  10.783  0.1333  2.0848  1.0794
   58SAPC  H15B 4299   3.006   1.600  10.785 -0.8437  1.5645 -0.3847
   58SAPC  H15C 4300   2.921   1.602  10.644 -1.6784  3.1091  2.3964
   58SAPC   C11 4301   3.036   1.205  10.531 -0.5912  0.2719  0.1410
   58SAPC  H11A 4302   3.087   1.253  10.445  0.8236 -1.0421  0.1945
   58SAPC  H11B 4303   2.962   1.128  10.499 -1.4079 -0.4015  3.2496
   58SAPC     P 4304   3.286   1.124  10.583  0.6676  0.2328 -0.4712
   58SAPC   O13 4305   3.362   1.249  10.619  0.3499  0.2862  0.3575
   58SAPC   O14 4306   3.346   0.996  10.639 -0.0627 -0.0472 -0.4172
   58SAPC   O12 4307   3.130   1.132  10.625  0.6246  0.2489  0.5178
   58SAPC   O11 4308   3.270   1.114  10.424 -0.2204 -0.1789 -0.4838
   58SAPC    C1 4309   3.227   0.997  10.363 -0.2829  0.8311  0.6013
   58SAPC    HA 4310   3.160   0.947  10.436  0.4305 -1.2939 -0.1183
   58SAPC    HB 4311   3.166   1.006  10.271 -0.1824 -1.5903  0.2303
   58SAPC    C2 4312   3.348   0.896  10.323  0.0855  0.9408 -1.0766
   58SAPC    HS 4313   3.423   0.901  10.404 -2.1887 -2.2305  1.5349
   58SAPC   O21 4314   3.401   0.925  10.194  0.1782  0.3759  0.4146
   58SAPC   C21 4315   3.482   1.031  10.188  0.4067  0.2829 -0.0222
   58SAPC   O22 4316   3.523   1.100  10.284  0.1621  1.3880 -0.0867
   58SAPC   C22 4317   3.526   1.052  10.041  0.1431  0.0803  1.3366
   58SAPC   H2R 4318   3.567   0.956  10.002  2.4424  2.2489 -2.2983
   58SAPC   H2S 4319   3.437   1.083   9.981  0.7238 -1.4500 -0.4274
   58SAPC    C3 4320   3.308   0.742  10.314 -0.3089  0.4930 -0.2924
   58SAPC    HX 4321   3.282   0.707  10.417 -0.4302 -2.0194 -1.0990
   58SAPC    HY 4322   3.388   0.680  10.267 -0.9230 -1.8744  1.5742
   58SAPC   O31 4323   3.189   0.716  10.236  0.0496 -0.1675  0.0819
   58SAPC   C31 4324   3.165   0.587  10.224 -0.0251  0.6603 -0.5114
   58SAPC   O32 4325   3.231   0.499  10.280 -0.6373 -0.0818  0.4439
   58SAPC   C32 4326   3.058   0.569  10.125  0.2463 -0.1347  0.0383
   58SAPC   H2X 4327   3.074   0.654  10.056 -1.3193 -1.0481 -1.5290
   58SAPC   H2Y 4328   2.957   0.576  10.170 -0.2764 -2.6366 -0.5515
   58SAPC   C23 4329   3.645   1.158  10.024 -0.0619 -0.5602  1.0279
   58SAPC   H3R 4330   3.740   1.130  10.074  0.1143  0.3347  1.2072
   58SAPC   H3S 4331   3.602   1.253  10.062  3.1530  1.0209  1.0935
   58SAPC   C24 4332   3.681   1.179   9.870  0.2290  0.6555  0.4182
   58SAPC   H4R 4333   3.586   1.212   9.822  0.0996  0.5117  0.5753
   58SAPC   H4S 4334   3.703   1.080   9.825  0.0069  0.5131  0.6195
   58SAPC   C25 4335   3.792   1.283   9.842  0.7630  0.5076 -0.9224
   58SAPC   H5R 4336   3.874   1.268   9.914  0.3495  0.1193 -0.5178
   58SAPC   C26 4337   3.797   1.371   9.740 -1.1250  0.6648 -0.5654
   58SAPC   H6R 4338   3.882   1.440   9.730 -2.1452  1.8142 -1.6813
   58SAPC   C27 4339   3.705   1.385   9.622  0.4757 -0.3368  0.7994
   58SAPC   H7R 4340   3.688   1.483   9.572 -1.6680 -1.3416 -0.5852
   58SAPC   H7S 4341   3.606   1.377   9.670 -0.7764  1.1092 -1.3565
   58SAPC   C28 4342   3.719   1.294   9.506 -0.3097 -0.1640 -0.2966
   58SAPC   H8R 4343   3.663   1.199   9.513 -0.8880  0.1374 -0.7129
   58SAPC   C29 4344   3.788   1.312   9.393 -0.2650 -0.2282  0.1207
   58SAPC   H9R 4345   3.788   1.230   9.319  0.4116 -0.2896  0.1810
   58SAPC  C210 4346   3.873   1.429   9.354  0.0701 -0.1855  0.1902
   58SAPC  H10R 4347   3.943   1.403   9.271  0.7611  2.1777 -0.0601
   58SAPC  H10S 4348   3.943   1.456   9.436  0.0695  3.0305 -0.7108
   58SAPC  C211 4349   3.801   1.563   9.313  0.0324  0.2585 -0.4874
   58SAPC  H11R 4350   3.781   1.628   9.400 -1.2439  0.7209 -1.1067
   58SAPC  C212 4351   3.779   1.613   9.183  0.3889 -0.3780 -0.0563
   58SAPC  H12R 4352   3.742   1.716   9.173 -1.0358 -0.6668  1.6144
   58SAPC  C213 4353   3.816   1.526   9.062  0.4964  0.4595 -0.4685
   58SAPC  H13R 4354   3.751   1.554   8.977  0.4287  0.0674 -0.5467
   58SAPC  H13S 4355   3.774   1.425   9.080 -1.9471  1.7626  1.8286
   58SAPC  C214 4356   3.962   1.527   9.023  0.2215  0.3380  0.2176
   58SAPC  H14R 4357   4.037   1.574   9.089  0.0115 -2.1173  2.3016
   58SAPC  C215 4358   4.006   1.484   8.904 -0.0693  0.3604  0.6376
   58SAPC  H15R 4359   4.112   1.485   8.877 -0.7156 -2.1855 -2.7423
   58SAPC  C216 4360   3.920   1.416   8.796  0.1729  0.2575 -0.5234
   58SAPC  H16R 4361   3.829   1.377   8.847 -0.5849  0.7585 -1.4632
   58SAPC  H16S 4362   3.978   1.334   8.751  0.0743 -0.9463  1.4258
   58SAPC  C217 4363   3.878   1.516   8.681 -0.3182  0.1775  0.2624
   58SAPC  H17R 4364   3.827   1.463   8.597  1.3652 -0.4858 -0.3881
   58SAPC  H17S 4365   3.969   1.558   8.633  2.0601 -2.1730  2.4179
   58SAPC  C218 4366   3.791   1.636   8.713  0.5428  0.1695 -0.0748
   58SAPC  H18R 4367   3.825   1.693   8.802 -1.7274 -0.3119  1.1858
   58SAPC  H18S 4368   3.693   1.593   8.743 -0.1256  1.2011 -0.6995
   58SAPC  C219 4369   3.767   1.733   8.583  0.3936  0.5898  0.4489
   58SAPC  H19R 4370   3.733   1.672   8.497  0.0795 -0.1132  1.0558
   58SAPC  H19S 4371   3.868   1.771   8.559  0.8214 -0.9753 -0.3483
   58SAPC  C220 4372   3.659   1.839   8.598  0.2155  0.4950  0.2498
   58SAPC  H20R 4373   3.572   1.784   8.638  0.2353 -1.1002 -1.7461
   58SAPC  H20S 4374   3.641   1.876   8.495 -0.3790 -0.7906 -0.1270
   58SAPC  H20T 4375   3.691   1.923   8.663  1.6957 -0.3582  0.6841
   58SAPC   C33 4376   3.059   0.431  10.068  0.4818  0.1232  0.3346
   58SAPC   H3X 4377   3.018   0.363  10.145  0.3344 -1.2467 -0.9260
   58SAPC   H3Y 4378   3.159   0.395  10.038  0.3570 -0.0961  0.1807
   58SAPC   C34 4379   2.970   0.419   9.943 -0.3815 -0.5861 -0.0383
   58SAPC   H4X 4380   3.024   0.468   9.859 -2.2219  0.6295 -0.5780
   58SAPC   H4Y 4381   2.869   0.461   9.962 -0.7842 -1.5875  0.0974
   58SAPC   C35 4382   2.953   0.279   9.889 -0.3792  0.5269 -0.3319
   58SAPC   H5X 4383   2.888   0.210   9.948  2.8998 -0.7839  2.0310
   58SAPC   H5Y 4384   3.055   0.236   9.900 -1.1004 -0.8055  1.9342
   58SAPC   C36 4385   2.903   0.285   9.738  0.0798  0.2175  0.1241
   58SAPC   H6X 4386   2.958   0.370   9.693  0.8350 -0.6774 -0.6776
   58SAPC   H6Y 4387   2.794   0.304   9.749 -0.5623 -2.8854  0.2480
   58SAPC   C37 4388   2.918   0.148   9.665  0.3406  0.1658  1.4251
   58SAPC   H7X 4389   2.849   0.070   9.704  0.2577 -1.0084 -0.8785
   58SAPC   H7Y 4390   3.019   0.104   9.681  0.0663 -0.3812  1.6631
   58SAPC   C38 4391   2.893   0.163   9.514 -0.5166 -0.1307 -0.3886
   58SAPC   H8X 4392   2.917   0.061   9.477 -1.6293 -0.6429  0.2304
   58SAPC   H8Y 4393   2.955   0.238   9.461 -0.8957  0.2487 -0.3040
   58SAPC   C39 4394   2.748   0.192   9.487 -0.3500 -0.4713  0.7054
   58SAPC   H9X 4395   2.706   0.275   9.547  1.6291  2.3249 -1.4877
   58SAPC   H9Y 4396   2.706   0.091   9.506  1.1396 -1.1654  0.4650
   58SAPC  C310 4397   2.725   0.214   9.337 -0.1083 -0.0569  0.4900
   58SAPC  H10X 4398   2.757   0.314   9.302 -0.8687 -0.4238 -1.4087
   58SAPC  H10Y 4399   2.616   0.215   9.314 -0.2235  0.2323  1.0355
   58SAPC  C311 4400   2.784   0.095   9.251 -0.7702 -0.7388 -0.3226
   58SAPC  H11X 4401   2.758   0.002   9.306 -0.5579 -0.5919  0.0262
   58SAPC  H11Y 4402   2.894   0.111   9.247 -0.9504  1.4170  1.4380
   58SAPC  C312 4403   2.718   0.083   9.107 -0.4236 -0.0430 -0.4827
   58SAPC  H12X 4404   2.730   0.170   9.040  0.3956  0.9448  0.8924
   58SAPC  H12Y 4405   2.611   0.070   9.134 -0.4383  3.4730  1.8736
   58SAPC  C313 4406   2.760  -0.042   9.031 -0.9218  0.0139 -0.0485
   58SAPC  H13X 4407   2.770  -0.127   9.102 -1.1302 -0.0131 -0.0504
   58SAPC  H13Y 4408   2.866  -0.036   8.997 -0.7959 -2.5761 -0.3467
   58SAPC  C314 4409   2.672  -0.076   8.912  0.1504 -0.3032  0.2595
   58SAPC  H14X 4410   2.670   0.002   8.833 -0.3801 -0.6860 -0.1115
   58SAPC  H14Y 4411   2.565  -0.086   8.943 -0.6187  2.4681 -1.1865
   58SAPC  C315 4412   2.700  -0.205   8.848 -0.6681  0.4303  0.8577
   58SAPC  H15X 4413   2.618  -0.280   8.839  0.4695 -0.6637 -0.9799
   58SAPC  H15Y 4414   2.792  -0.247   8.895 -0.6114 -1.6821 -0.9604
   58SAPC  C316 4415   2.736  -0.194   8.697  0.2349 -0.2935  1.2177
   58SAPC  H16X 4416   2.804  -0.107   8.689 -1.5029  1.0389  0.0971
   58SAPC  H16Y 4417   2.654  -0.172   8.625  2.0384 -2.9157 -1.9493
   58SAPC  C317 4418   2.805  -0.321   8.641 -0.1034  0.3496  0.1932
   58SAPC  H17X 4419   2.878  -0.355   8.718 -0.9534  0.9725  1.3139
   58SAPC  H17Y 4420   2.856  -0.314   8.543  1.2675  1.5386  0.9610
   58SAPC  C318 4421   2.703  -0.441   8.616 -0.1235 -0.1593 -1.0795
   58SAPC  H18X 4422   2.752  -0.520   8.556  1.0765 -0.6138  0.4176
   58SAPC  H18Y 4423   2.618  -0.409   8.552 -1.1179 -1.3014 -0.3936
   58SAPC  H18Z 4424   2.671  -0.482   8.715  1.3320  0.9570 -0.0993
   59SAPC     N 4425   2.813   3.959  11.337 -0.0701 -0.8691  0.1076
   59SAPC   C12 4426   2.865   3.827  11.273  0.3020  0.1497  0.0470
   59SAPC  H12A 4427   2.933   3.774  11.338  0.5260  1.3865  0.8527
   59SAPC  H12B 4428   2.925   3.860  11.190  0.4682  1.5604  0.7061
   59SAPC   C13 4429   2.731   3.923  11.456 -0.5125  0.1476  0.3637
   59SAPC  H13A 4430   2.675   4.003  11.502  2.2686  0.5975  3.4030
   59SAPC  H13B 4431   2.656   3.848  11.434  0.0170  0.1043 -1.4717
   59SAPC  H13C 4432   2.806   3.882  11.523  0.6355 -1.0683 -1.5737
   59SAPC   C14 4433   2.932   4.039  11.388  0.2796  0.1409  0.3458
   59SAPC  H14A 4434   2.893   4.120  11.448 -0.8156  0.6156 -0.9641
   59SAPC  H14B 4435   3.000   3.978  11.446 -0.7692 -1.5085 -0.0575
   59SAPC  H14C 4436   2.992   4.084  11.311  0.0186 -2.1172 -1.2790
   59SAPC   C15 4437   2.733   4.043  11.252  0.1028 -0.1700  0.2802
   59SAPC  H15A 4438   2.778   4.055  11.154 -1.9006 -2.9008 -1.1217
   59SAPC  H15B 4439   2.637   4.003  11.222 -0.0741  0.2103  0.3403
   59SAPC  H15C 4440   2.712   4.141  11.291 -3.5808  0.9152 -3.5983
   59SAPC   C11 4441   2.767   3.718  11.234 -0.1113  0.0963  0.2921
   59SAPC  H11A 4442   2.737   3.664  11.326  1.7165 -0.5731  0.5402
   59SAPC  H11B 4443   2.828   3.646  11.176 -0.8381  1.1437 -1.9040
   59SAPC     P 4444   2.638   3.727  11.008 -0.0709 -0.1452 -0.0376
   59SAPC   O13 4445   2.595   3.585  10.992 -0.1102  0.0839 -0.1564
   59SAPC   O14 4446   2.543   3.820  10.947 -0.2212 -0.6199  0.0242
   59SAPC   O12 4447   2.654   3.767  11.162  0.1293 -0.1231 -0.3554
   59SAPC   O11 4448   2.780   3.748  10.944  0.3592 -0.4034  0.1199
   59SAPC    C1 4449   2.829   3.869  10.887 -0.1534 -0.2025  0.7716
   59SAPC    HA 4450   2.828   3.961  10.948  0.5709  0.7040 -0.5358
   59SAPC    HB 4451   2.939   3.854  10.887  0.0089  0.5864 -1.6372
   59SAPC    C2 4452   2.787   3.906  10.743  0.0501 -0.2548  0.0188
   59SAPC    HS 4453   2.677   3.913  10.745 -0.0689 -1.2898 -1.2322
   59SAPC   O21 4454   2.821   3.797  10.656  0.1780  0.6043 -0.2405
   59SAPC   C21 4455   2.748   3.784  10.545 -0.2539 -0.6736  0.2973
   59SAPC   O22 4456   2.646   3.848  10.525  0.0058  0.6310  0.0983
   59SAPC   C22 4457   2.807   3.675  10.451 -0.3500 -0.3271  0.1286
   59SAPC   H2R 4458   2.914   3.701  10.435 -0.5075  0.9832  1.0090
   59SAPC   H2S 4459   2.812   3.582  10.511 -0.7040 -1.5097 -1.6138
   59SAPC    C3 4460   2.852   4.042  10.692  0.3371 -0.0506 -0.2060
   59SAPC    HX 4461   2.962   4.027  10.689  0.5687  1.5659 -0.7712
   59SAPC    HY 4462   2.843   4.123  10.768 -0.8638 -0.2549 -0.1082
   59SAPC   O31 4463   2.813   4.092  10.566  1.0183 -0.7160  0.0383
   59SAPC   C31 4464   2.699   4.162  10.573 -0.3964 -0.2917  0.4594
   59SAPC   O32 4465   2.640   4.210  10.669 -0.0742  0.9812  0.3353
   59SAPC   C32 4466   2.658   4.195  10.427 -0.6209  0.0876 -0.0901
   59SAPC   H2X 4467   2.548   4.210  10.431 -1.0600 -2.3810 -1.2549
   59SAPC   H2Y 4468   2.678   4.100  10.374 -0.4992  0.1547 -0.1647
   59SAPC   C23 4469   2.723   3.648  10.324 -0.0972 -0.4975  0.5840
   59SAPC   H3R 4470   2.619   3.635  10.361  0.3370  0.2502  2.1766
   59SAPC   H3S 4471   2.772   3.561  10.276  1.1422 -0.0702  1.0200
   59SAPC   C24 4472   2.730   3.769  10.221  0.2967  0.5347 -0.4404
   59SAPC   H4R 4473   2.705   3.854  10.288 -3.2347 -1.7363  1.3986
   59SAPC   H4S 4474   2.643   3.764  10.153  1.1406 -1.4042 -1.4429
   59SAPC   C25 4475   2.851   3.793  10.141 -0.4144 -0.0327  0.1636
   59SAPC   H5R 4476   2.921   3.863  10.188 -1.2974 -0.8079  2.8032
   59SAPC   C26 4477   2.893   3.732  10.022 -0.2010 -0.4485 -0.7411
   59SAPC   H6R 4478   2.997   3.755   9.992 -0.7965  1.8557 -1.1746
   59SAPC   C27 4479   2.809   3.643   9.931  0.2405  0.6666 -0.6286
   59SAPC   H7R 4480   2.718   3.604   9.981 -1.1613  2.6694 -1.4907
   59SAPC   H7S 4481   2.867   3.556   9.893  1.9618  2.1143 -1.4716
   59SAPC   C28 4482   2.767   3.720   9.815 -0.0696 -0.1962 -0.0289
   59SAPC   H8R 4483   2.769   3.830   9.823 -2.8431 -0.1119  0.2231
   59SAPC   C29 4484   2.744   3.677   9.689  0.4554 -0.3809 -0.4624
   59SAPC   H9R 4485   2.709   3.745   9.611  0.9662 -1.6037 -1.7915
   59SAPC  C210 4486   2.747   3.538   9.638  0.2464  0.0850 -0.1474
   59SAPC  H10R 4487   2.835   3.485   9.678  1.0528  0.4933 -1.3195
   59SAPC  H10S 4488   2.775   3.539   9.531  2.5564 -2.3268  0.3510
   59SAPC  C211 4489   2.626   3.458   9.669  0.0742 -0.3048  0.1727
   59SAPC  H11R 4490   2.607   3.428   9.773  1.8700 -2.4765 -0.0349
   59SAPC  C212 4491   2.533   3.420   9.576 -0.3131 -1.1081 -0.7075
   59SAPC  H12R 4492   2.447   3.364   9.615 -1.5080  1.2121  0.2088
   59SAPC  C213 4493   2.530   3.446   9.426 -0.2028 -0.4616 -0.4479
   59SAPC  H13R 4494   2.482   3.356   9.382  0.1478 -1.6410  1.4589
   59SAPC  H13S 4495   2.632   3.430   9.385 -0.0728  0.4901 -0.5141
   59SAPC  C214 4496   2.479   3.575   9.369 -0.0684 -0.4014 -0.4183
   59SAPC  H14R 4497   2.405   3.632   9.428 -0.7838  1.3977 -2.8790
   59SAPC  C215 4498   2.520   3.630   9.252  1.7119  0.7080 -0.4175
   59SAPC  H15R 4499   2.479   3.723   9.210 -2.3681 -0.4340  0.5737
   59SAPC  C216 4500   2.620   3.580   9.147  0.3753 -1.1356 -0.2753
   59SAPC  H16R 4501   2.656   3.478   9.170 -2.7661 -2.0662  1.0900
   59SAPC  H16S 4502   2.701   3.653   9.122 -1.4297  0.1729 -2.6878
   59SAPC  C217 4503   2.556   3.559   9.006 -0.6255 -0.1448  0.0540
   59SAPC  H17R 4504   2.478   3.480   9.016  0.2750 -0.9378  1.0972
   59SAPC  H17S 4505   2.631   3.515   8.937 -0.7417 -1.4327  0.7153
   59SAPC  C218 4506   2.496   3.684   8.950  0.5353 -0.3755  0.3315
   59SAPC  H18R 4507   2.575   3.762   8.945  1.8186 -1.6776 -0.8978
   59SAPC  H18S 4508   2.413   3.716   9.016 -0.8560 -0.7327 -1.1746
   59SAPC  C219 4509   2.441   3.671   8.807  0.5794 -0.3716  0.4991
   59SAPC  H19R 4510   2.382   3.764   8.793  0.1600 -0.6302  0.5206
   59SAPC  H19S 4511   2.374   3.583   8.806 -1.9563  1.4209 -0.8389
   59SAPC  C220 4512   2.554   3.656   8.700 -0.7206  0.8072 -0.2012
   59SAPC  H20R 4513   2.624   3.742   8.702  1.3403 -0.7617  1.9950
   59SAPC  H20S 4514   2.506   3.655   8.600 -0.1219  2.0750 -0.5209
   59SAPC  H20T 4515   2.614   3.565   8.723 -0.5715  1.5663  2.8791
   59SAPC   C33 4516   2.743   4.312  10.375 -0.2203 -0.1419  0.0386
   59SAPC   H3X 4517   2.852   4.300  10.394 -0.1181 -1.8583 -1.4048
   59SAPC   H3Y 4518   2.710   4.399  10.435 -1.2629 -2.1272  2.5121
   59SAPC   C34 4519   2.728   4.334  10.220  0.4623  0.6589  0.0929
   59SAPC   H4X 4520   2.810   4.403  10.193  2.9707 -0.9788  2.9361
   59SAPC   H4Y 4521   2.634   4.390  10.197  0.5552  1.1575  0.9193
   59SAPC   C35 4522   2.750   4.202  10.133 -0.7549 -0.4506 -0.2279
   59SAPC   H5X 4523   2.664   4.131  10.141 -0.6343 -0.4563  1.1997
   59SAPC   H5Y 4524   2.844   4.157  10.173 -0.6362 -1.7035 -1.7976
   59SAPC   C36 4525   2.770   4.229   9.988 -0.8278 -0.6753  0.1936
   59SAPC   H6X 4526   2.858   4.296   9.974 -3.1985  2.1924 -2.4889
   59SAPC   H6Y 4527   2.682   4.291   9.960 -0.4751 -0.4288 -0.4120
   59SAPC   C37 4528   2.771   4.109   9.895 -0.7963  0.3385 -0.0460
   59SAPC   H7X 4529   2.670   4.065   9.892 -0.5158 -0.3350  0.2369
   59SAPC   H7Y 4530   2.842   4.031   9.929 -1.9632  0.2817  2.4851
   59SAPC   C38 4531   2.812   4.155   9.756  0.6164  0.2857 -0.4470
   59SAPC   H8X 4532   2.916   4.195   9.753  1.7251 -2.3039  0.7335
   59SAPC   H8Y 4533   2.746   4.241   9.732 -0.9677 -0.6971  0.1946
   59SAPC   C39 4534   2.783   4.056   9.651 -0.0885  0.2697 -0.7938
   59SAPC   H9X 4535   2.678   4.021   9.659 -0.1342  0.1667 -1.7795
   59SAPC   H9Y 4536   2.853   3.970   9.663 -0.1616  0.2321 -0.6331
   59SAPC  C310 4537   2.799   4.112   9.508  0.3456  0.7885 -0.6895
   59SAPC  H10X 4538   2.901   4.150   9.485  0.8156  0.4385  0.6844
   59SAPC  H10Y 4539   2.730   4.199   9.499  0.6181  0.9230 -1.5190
   59SAPC  C311 4540   2.749   4.026   9.398 -0.5328  0.5786  0.3748
   59SAPC  H11X 4541   2.654   3.981   9.431  0.2110 -1.4636 -0.1232
   59SAPC  H11Y 4542   2.809   3.932   9.395 -2.3816 -0.6851  1.5007
   59SAPC  C312 4543   2.737   4.085   9.256 -0.4948  0.4464  0.2530
   59SAPC  H12X 4544   2.838   4.111   9.219  0.8311 -1.4589  2.2948
   59SAPC  H12Y 4545   2.679   4.180   9.264 -1.0545  0.1500 -0.1663
   59SAPC  C313 4546   2.671   3.981   9.153 -0.3178 -0.1179  0.1244
   59SAPC  H13X 4547   2.564   3.977   9.183 -0.5128 -2.0713 -0.6610
   59SAPC  H13Y 4548   2.706   3.875   9.148 -0.8391 -0.2491 -3.6470
   59SAPC  C314 4549   2.678   4.034   9.014  0.4504  0.4229  0.5144
   59SAPC  H14X 4550   2.655   4.142   9.010  1.1531  0.5943  0.9132
   59SAPC  H14Y 4551   2.601   3.982   8.954  0.9511  1.1949 -0.8376
   59SAPC  C315 4552   2.800   3.995   8.924 -0.3564 -0.6045 -0.3025
   59SAPC  H15X 4553   2.816   3.885   8.918  0.4548 -0.4698 -0.6824
   59SAPC  H15Y 4554   2.877   4.049   8.982  0.6711 -1.4781 -0.8209
   59SAPC  C316 4555   2.790   4.063   8.782  0.3612 -0.4391 -0.7063
   59SAPC  H16X 4556   2.756   4.169   8.791  0.6972 -0.3159 -0.8584
   59SAPC  H16Y 4557   2.713   4.006   8.726 -2.4412  2.4525 -0.0659
   59SAPC  C317 4558   2.915   4.040   8.703 -0.2685  0.7506  0.2153
   59SAPC  H17X 4559   2.963   3.949   8.746 -2.0122  0.3709  1.4157
   59SAPC  H17Y 4560   2.990   4.121   8.716  0.6833 -0.0607 -0.0285
   59SAPC  C318 4561   2.891   4.016   8.554  0.0688  0.4997  0.1361
   59SAPC  H18X 4562   2.989   3.992   8.506  0.2911  0.6613  0.5051
   59SAPC  H18Y 4563   2.849   4.105   8.503 -2.4453  0.0757  1.3219
   59SAPC  H18Z 4564   2.824   3.928   8.539  1.9521 -0.9699 -0.1862
   60SAPC     N 4565   5.816   2.715  10.799 -0.4406 -0.2482  0.1952
   60SAPC   C12 4566   5.745   2.853  10.767 -0.4798  0.2139  0.5812
   60SAPC  H12A 4567   5.692   2.844  10.673  1.0415 -2.0602 -0.1341
   60SAPC  H12B 4568   5.826   2.924  10.753  0.1747 -0.7418 -0.7342
   60SAPC   C13 4569   5.913   2.716  10.909 -0.5797  0.2274 -0.0122
   60SAPC  H13A 4570   5.970   2.624  10.915 -0.3560  0.4128  0.9140
   60SAPC  H13B 4571   5.988   2.793  10.896  0.6867 -0.5062  2.2887
   60SAPC  H13C 4572   5.866   2.728  11.005 -1.7812  0.3373 -0.5898
   60SAPC   C14 4573   5.725   2.607  10.835  0.3298 -0.0396 -0.2646
   60SAPC  H14A 4574   5.780   2.516  10.858 -1.1190 -0.8145  0.2638
   60SAPC  H14B 4575   5.663   2.640  10.917  1.4738 -0.7127  0.9063
   60SAPC  H14C 4576   5.654   2.579  10.758 -0.8752 -1.4853  1.2885
   60SAPC   C15 4577   5.893   2.667  10.680 -0.3923  0.0948  0.0981
   60SAPC  H15A 4578   5.971   2.739  10.661  1.8711 -2.0714  0.6253
   60SAPC  H15B 4579   5.948   2.575  10.692  1.3543  1.2233  1.1111
   60SAPC  H15C 4580   5.827   2.650  10.596  0.0902 -0.4092 -0.1767
   60SAPC   C11 4581   5.640   2.908  10.872 -0.2922 -0.4601 -0.2249
   60SAPC  H11A 4582   5.651   3.018  10.883 -0.2692 -0.3238 -1.4868
   60SAPC  H11B 4583   5.661   2.853  10.967  1.5034 -2.6455 -1.7530
   60SAPC     P 4584   5.423   2.969  10.732 -0.4152 -0.0606  0.0977
   60SAPC   O13 4585   5.330   3.034  10.826  0.0229  0.0172  0.5157
   60SAPC   O14 4586   5.515   3.054  10.651  0.8140  0.5870  0.4769
   60SAPC   O12 4587   5.512   2.874  10.824  0.3813  0.1548  0.1511
   60SAPC   O11 4588   5.354   2.861  10.628  0.3937  0.8755 -0.5193
   60SAPC    C1 4589   5.411   2.747  10.577 -0.0885 -0.2848 -0.5558
   60SAPC    HA 4590   5.485   2.707  10.649 -3.1830 -1.3134  2.2660
   60SAPC    HB 4591   5.325   2.678  10.576 -1.3594  1.2445 -0.9763
   60SAPC    C2 4592   5.461   2.771  10.433  0.1834  0.8174 -0.0641
   60SAPC    HS 4593   5.556   2.828  10.437 -0.4402  1.8117  1.3493
   60SAPC   O21 4594   5.369   2.837  10.356  0.1022 -0.1771  0.3224
   60SAPC   C21 4595   5.412   2.906  10.253  1.5764  0.0541 -0.1808
   60SAPC   O22 4596   5.524   2.928  10.223 -0.1969 -0.3694 -0.1722
   60SAPC   C22 4597   5.295   2.963  10.190 -0.1931 -0.2175 -0.0052
   60SAPC   H2R 4598   5.211   2.891  10.183 -1.3893  1.2150 -1.0759
   60SAPC   H2S 4599   5.268   3.065  10.226  2.1689  1.5868 -2.8713
   60SAPC    C3 4600   5.498   2.639  10.363  0.1482 -0.0015 -0.1377
   60SAPC    HX 4601   5.410   2.587  10.319 -0.2991 -0.2638  1.0378
   60SAPC    HY 4602   5.543   2.564  10.432  1.4131  0.6603 -0.2205
   60SAPC   O31 4603   5.597   2.650  10.259 -0.1680  0.0519  0.2248
   60SAPC   C31 4604   5.608   2.539  10.187  0.6290 -0.2499  0.4083
   60SAPC   O32 4605   5.536   2.439  10.192  0.4419  0.1580 -0.9931
   60SAPC   C32 4606   5.714   2.560  10.077 -0.1182  0.8278  0.4264
   60SAPC   H2X 4607   5.716   2.460  10.028 -1.8757  2.1608 -2.6617
   60SAPC   H2Y 4608   5.808   2.588  10.130  0.2900 -0.0309  0.1769
   60SAPC   C23 4609   5.323   3.002  10.040 -0.2371 -0.2038 -0.7017
   60SAPC   H3R 4610   5.343   2.909   9.981  0.8988 -0.3984 -0.0251
   60SAPC   H3S 4611   5.415   3.064  10.041 -0.5048  0.2145 -1.2153
   60SAPC   C24 4612   5.191   3.060   9.982  0.6636  0.3684 -0.1267
   60SAPC   H4R 4613   5.122   3.085  10.065 -0.9733 -1.4824 -0.8585
   60SAPC   H4S 4614   5.135   2.986   9.922 -0.5284  1.7713 -0.8054
   60SAPC   C25 4615   5.225   3.189   9.903 -0.5617 -0.2355 -0.1776
   60SAPC   H5R 4616   5.235   3.269   9.978 -2.7424 -0.3102  0.2575
   60SAPC   C26 4617   5.228   3.210   9.774 -0.1602 -0.5898  0.7043
   60SAPC   H6R 4618   5.243   3.308   9.725  0.1591 -1.3663 -0.8262
   60SAPC   C27 4619   5.214   3.091   9.675  0.1993 -0.1153  0.1219
   60SAPC   H7R 4620   5.105   3.079   9.657  0.2394 -0.3888  0.0572
   60SAPC   H7S 4621   5.241   2.990   9.711  2.4320  0.7805  1.1256
   60SAPC   C28 4622   5.287   3.128   9.544  0.3448 -0.2769 -0.1108
   60SAPC   H8R 4623   5.393   3.100   9.536  0.4473  0.1018 -0.1184
   60SAPC   C29 4624   5.238   3.215   9.455  0.4811 -0.0807  0.1826
   60SAPC   H9R 4625   5.302   3.250   9.373 -0.2394  2.5152  0.6353
   60SAPC  C210 4626   5.103   3.287   9.462  0.9176 -0.3819 -0.8038
   60SAPC  H10R 4627   5.119   3.396   9.452  1.9862 -0.1896  1.9526
   60SAPC  H10S 4628   5.063   3.271   9.564  2.7003  0.4750  0.0858
   60SAPC  C211 4629   4.996   3.224   9.379 -0.2831 -0.3000 -0.3421
   60SAPC  H11R 4630   4.959   3.127   9.416  0.5306 -0.2469  0.6600
   60SAPC  C212 4631   4.937   3.280   9.272  0.2748  0.5248  0.2240
   60SAPC  H12R 4632   4.847   3.226   9.238  0.9832 -1.1048  0.8770
   60SAPC  C213 4633   4.979   3.411   9.210  0.9244 -0.4645 -0.2524
   60SAPC  H13R 4634   5.076   3.448   9.251  1.3930  1.0121 -2.4594
   60SAPC  H13S 4635   4.908   3.486   9.250  1.4817 -0.2142  0.2767
   60SAPC  C214 4636   4.989   3.416   9.056  0.2083 -0.1850  0.1526
   60SAPC  H14R 4637   4.906   3.476   9.016  0.2185  1.7292  2.7367
   60SAPC  C215 4638   5.082   3.369   8.976  0.6197  0.5626  0.0706
   60SAPC  H15R 4639   5.060   3.377   8.868 -1.8123  1.6897  0.5791
   60SAPC  C216 4640   5.204   3.299   9.016 -0.6626  0.8408  0.2494
   60SAPC  H16R 4641   5.207   3.191   8.990  1.2267  1.0073 -0.3829
   60SAPC  H16S 4642   5.208   3.299   9.127 -1.0292  0.8429  0.2652
   60SAPC  C217 4643   5.344   3.365   8.988 -0.1216 -0.4189  0.3029
   60SAPC  H17R 4644   5.429   3.318   9.043  1.9838  1.1649 -1.3988
   60SAPC  H17S 4645   5.346   3.469   9.027  0.0003 -0.4699  0.4323
   60SAPC  C218 4646   5.373   3.376   8.832 -0.0811 -1.0484 -0.5421
   60SAPC  H18R 4647   5.448   3.455   8.810  1.1095 -2.5358 -2.1414
   60SAPC  H18S 4648   5.283   3.389   8.769 -0.0522 -0.3679 -0.4517
   60SAPC  C219 4649   5.449   3.247   8.787  0.6082  0.1496  0.1992
   60SAPC  H19R 4650   5.384   3.158   8.799 -2.0475  1.6765 -1.9660
   60SAPC  H19S 4651   5.539   3.238   8.852  0.0383  1.1656  1.1667
   60SAPC  C220 4652   5.489   3.270   8.645  0.1501  0.8120 -0.1261
   60SAPC  H20R 4653   5.399   3.285   8.583 -1.1404 -0.3482  1.3748
   60SAPC  H20S 4654   5.542   3.182   8.604  0.8258  0.5671  1.1953
   60SAPC  H20T 4655   5.560   3.356   8.640  0.3376  0.6689  0.0440
   60SAPC   C33 4656   5.672   2.671   9.975  0.3102  0.3218 -0.3296
   60SAPC   H3X 4657   5.757   2.729   9.934  0.4510  0.1906 -0.2271
   60SAPC   H3Y 4658   5.623   2.751  10.035 -1.1155  0.4900 -1.6661
   60SAPC   C34 4659   5.582   2.625   9.862 -0.5923  0.1475  0.9244
   60SAPC   H4X 4660   5.496   2.565   9.901 -0.2256  0.3722  2.1186
   60SAPC   H4Y 4661   5.647   2.561   9.799 -0.2460  0.8803  0.5304
   60SAPC   C35 4662   5.536   2.739   9.779  0.5746  0.3705  0.0907
   60SAPC   H5X 4663   5.472   2.815   9.828 -1.0143 -1.0022  0.2367
   60SAPC   H5Y 4664   5.459   2.695   9.712 -2.1442  2.0588  1.9107
   60SAPC   C36 4665   5.641   2.810   9.697 -0.5894  0.3900  0.8074
   60SAPC   H6X 4666   5.743   2.767   9.698  0.4740  2.7391  0.9074
   60SAPC   H6Y 4667   5.660   2.912   9.736 -1.9376  0.0362  2.5223
   60SAPC   C37 4668   5.596   2.842   9.549 -0.1847 -0.5685  0.4015
   60SAPC   H7X 4669   5.685   2.889   9.503  0.6062 -1.4656  0.9667
   60SAPC   H7Y 4670   5.511   2.913   9.554 -0.1665 -0.6022  1.6508
   60SAPC   C38 4671   5.564   2.719   9.463 -0.9075 -0.1916  0.2325
   60SAPC   H8X 4672   5.463   2.685   9.496 -0.6065 -0.9510  0.4026
   60SAPC   H8Y 4673   5.633   2.637   9.492 -0.5096  0.1339  0.2201
   60SAPC   C39 4674   5.574   2.733   9.302  0.5769 -0.3328 -0.0629
   60SAPC   H9X 4675   5.679   2.747   9.270  0.9545 -4.5986 -1.1387
   60SAPC   H9Y 4676   5.515   2.823   9.273  0.7868 -0.5917 -1.3332
   60SAPC  C310 4677   5.507   2.611   9.231 -0.3543  0.5159  0.0603
   60SAPC  H10X 4678   5.403   2.591   9.264  0.7225 -2.4532  1.9905
   60SAPC  H10Y 4679   5.581   2.531   9.253  0.9404  1.9991  1.3261
   60SAPC  C311 4680   5.509   2.633   9.077 -0.2693 -0.0107  0.3263
   60SAPC  H11X 4681   5.507   2.531   9.033  0.1119 -0.5938  1.6321
   60SAPC  H11Y 4682   5.609   2.675   9.053 -0.1977 -0.2265  0.2428
   60SAPC  C312 4683   5.393   2.721   9.028  0.2116 -0.3322  0.1329
   60SAPC  H12X 4684   5.418   2.821   9.070  1.5531 -0.4801 -0.2527
   60SAPC  H12Y 4685   5.294   2.699   9.073 -0.2420  0.8980 -0.2367
   60SAPC  C313 4686   5.385   2.742   8.879 -0.0446 -0.3455 -0.1307
   60SAPC  H13X 4687   5.339   2.655   8.827  2.1424 -0.4424 -2.0556
   60SAPC  H13Y 4688   5.492   2.747   8.849 -0.3255 -1.6961 -1.5300
   60SAPC  C314 4689   5.320   2.881   8.848 -0.0328 -0.5611  0.0177
   60SAPC  H14X 4690   5.386   2.965   8.878 -2.5987  1.0082  1.6730
   60SAPC  H14Y 4691   5.223   2.880   8.901 -1.4981 -2.8942 -2.4449
   60SAPC  C315 4692   5.295   2.905   8.695  0.0200  0.1074  0.1037
   60SAPC  H15X 4693   5.383   2.867   8.640 -0.8466 -1.0172 -0.5686
   60SAPC  H15Y 4694   5.278   3.014   8.684 -1.3488  0.0529  1.2944
   60SAPC  C316 4695   5.177   2.825   8.638  0.0864  0.9411 -0.6011
   60SAPC  H16X 4696   5.084   2.871   8.677  0.5513  0.4607  1.1345
   60SAPC  H16Y 4697   5.180   2.726   8.687  0.2505  0.9516 -0.5890
   60SAPC  C317 4698   5.156   2.815   8.485  0.0413  0.4142 -0.6324
   60SAPC  H17X 4699   5.238   2.752   8.444 -1.0489 -2.4982  1.3717
   60SAPC  H17Y 4700   5.160   2.922   8.457 -0.7463 -0.1528 -3.2509
   60SAPC  C318 4701   5.028   2.744   8.436  0.5839 -0.2402  0.8303
   60SAPC  H18X 4702   4.938   2.806   8.454 -0.3861 -1.2326 -0.4937
   60SAPC  H18Y 4703   5.014   2.644   8.484  0.8826  0.0915  1.6416
   60SAPC  H18Z 4704   5.029   2.736   8.326  1.6088  1.3150  0.6890
   61SAPC     N 4705   6.036   1.562  11.384  0.4636 -0.0638 -0.3378
   61SAPC   C12 4706   6.054   1.507  11.250 -0.2923  0.4631 -0.0586
   61SAPC  H12A 4707   5.955   1.487  11.212  0.4363 -0.3601 -1.6606
   61SAPC  H12B 4708   6.112   1.417  11.262  1.8163  1.9943  2.0012
   61SAPC   C13 4709   5.932   1.675  11.381 -0.2344  0.0075  0.3792
   61SAPC  H13A 4710   5.932   1.721  11.478  0.1565 -1.4051  1.0752
   61SAPC  H13B 4711   5.962   1.752  11.312  1.7927 -0.0715  1.0969
   61SAPC  H13C 4712   5.832   1.645  11.356 -0.3931  0.6703  0.1965
   61SAPC   C14 4713   5.991   1.448  11.469  0.7206 -0.1486 -0.5120
   61SAPC  H14A 4714   6.058   1.365  11.454  0.6832 -0.8901  2.6787
   61SAPC  H14B 4715   5.986   1.480  11.572  2.1460  0.5188 -0.6320
   61SAPC  H14C 4716   5.888   1.420  11.447  0.5370 -1.7499  1.9415
   61SAPC   C15 4717   6.171   1.611  11.433 -0.1634 -0.1371 -0.4742
   61SAPC  H15A 4718   6.185   1.620  11.539  4.6535  1.2105 -0.9912
   61SAPC  H15B 4719   6.248   1.544  11.396 -0.6805 -0.5006 -0.9276
   61SAPC  H15C 4720   6.198   1.710  11.400  1.2960 -0.5200 -0.5286
   61SAPC   C11 4721   6.125   1.590  11.138  0.4074  0.9340 -0.6214
   61SAPC  H11A 4722   6.151   1.518  11.057  2.0699 -0.3115  0.9101
   61SAPC  H11B 4723   6.223   1.634  11.167 -0.2870  1.7329  0.5947
   61SAPC     P 4724   5.918   1.663  11.004 -0.1467 -0.1669  0.2233
   61SAPC   O13 4725   5.832   1.564  11.075  0.2587 -0.2691  0.9858
   61SAPC   O14 4726   5.861   1.795  10.966 -0.4345 -0.0479  0.4529
   61SAPC   O12 4727   6.040   1.701  11.095 -0.5240  0.2313 -0.5219
   61SAPC   O11 4728   5.990   1.592  10.884 -0.1847  0.3229  0.1601
   61SAPC    C1 4729   6.086   1.654  10.794 -0.0698 -0.5294 -0.2522
   61SAPC    HA 4730   6.142   1.732  10.849 -2.1948  0.8835  0.0517
   61SAPC    HB 4731   6.154   1.573  10.760  0.6466  0.8519 -2.2912
   61SAPC    C2 4732   6.018   1.727  10.677  0.0298 -0.3903 -0.2701
   61SAPC    HS 4733   5.947   1.806  10.711  0.8176  1.7213 -3.1104
   61SAPC   O21 4734   5.946   1.640  10.590 -0.1607 -0.2860  0.3630
   61SAPC   C21 4735   5.864   1.703  10.512  0.0132 -0.8062 -0.5107
   61SAPC   O22 4736   5.835   1.822  10.512 -0.1541 -0.3086  0.1005
   61SAPC   C22 4737   5.798   1.597  10.416 -0.5144 -0.4974 -0.0737
   61SAPC   H2R 4738   5.866   1.509  10.403 -1.7390 -1.4328 -0.3259
   61SAPC   H2S 4739   5.703   1.557  10.457 -2.0640  2.1429 -0.8646
   61SAPC    C3 4740   6.130   1.811  10.604 -0.6720  0.2378 -0.3743
   61SAPC    HX 4741   6.183   1.880  10.673 -0.7358  0.6733 -0.7564
   61SAPC    HY 4742   6.087   1.879  10.528 -0.0443  0.2983 -0.6734
   61SAPC   O31 4743   6.227   1.738  10.531  0.5950  0.9354  0.6793
   61SAPC   C31 4744   6.339   1.803  10.506  0.0370  1.0862 -0.5035
   61SAPC   O32 4745   6.358   1.922  10.521 -0.4986  0.1064 -0.5916
   61SAPC   C32 4746   6.434   1.709  10.435  0.2959 -0.2733  1.0202
   61SAPC   H2X 4747   6.417   1.601  10.450  0.5375 -0.4778 -0.0728
   61SAPC   H2Y 4748   6.528   1.740  10.486 -1.2766  0.5723  3.5969
   61SAPC   C23 4749   5.766   1.672  10.278 -0.4649 -0.0490 -1.1728
   61SAPC   H3R 4750   5.839   1.754  10.262  0.2987 -0.6618 -0.8913
   61SAPC   H3S 4751   5.665   1.719  10.284 -0.2511  0.3396 -0.5576
   61SAPC   C24 4752   5.756   1.579  10.157  0.0499  0.4377  0.2305
   61SAPC   H4R 4753   5.688   1.622  10.081 -0.9228 -0.1190  0.7661
   61SAPC   H4S 4754   5.705   1.483  10.179 -0.4369  0.1762 -1.8981
   61SAPC   C25 4755   5.884   1.550  10.089  0.2321  0.2960  1.2076
   61SAPC   H5R 4756   5.972   1.513  10.144  0.1687  0.3509  1.3465
   61SAPC   C26 4757   5.908   1.583   9.963 -0.2073 -0.4147 -0.2424
   61SAPC   H6R 4758   6.008   1.561   9.922  0.9520 -2.6292  3.3233
   61SAPC   C27 4759   5.818   1.657   9.870 -0.7441 -0.1032  0.0931
   61SAPC   H7R 4760   5.710   1.649   9.895 -0.5829  0.3931  0.9883
   61SAPC   H7S 4761   5.821   1.616   9.767 -0.3558 -0.7684  0.3577
   61SAPC   C28 4762   5.860   1.803   9.871  0.4271 -0.0130 -0.9690
   61SAPC   H8R 4763   5.882   1.841   9.972 -0.7621 -1.3031 -0.1791
   61SAPC   C29 4764   5.869   1.880   9.762  0.2774 -0.4190 -0.5135
   61SAPC   H9R 4765   5.889   1.987   9.778  0.5644 -0.5227 -0.1597
   61SAPC  C210 4766   5.838   1.840   9.620 -0.1936  0.7330  0.1562
   61SAPC  H10R 4767   5.839   1.932   9.559  0.4758  1.8164  1.7352
   61SAPC  H10S 4768   5.741   1.786   9.626  1.5421 -2.5707  1.9229
   61SAPC  C211 4769   5.941   1.745   9.567 -0.0739  0.4052 -0.0061
   61SAPC  H11R 4770   6.033   1.729   9.626 -0.5273 -0.1036  0.5872
   61SAPC  C212 4771   5.940   1.674   9.451 -0.6320  0.6705  1.2328
   61SAPC  H12R 4772   6.017   1.598   9.434 -1.7537 -0.2393  0.0063
   61SAPC  C213 4773   5.834   1.682   9.337  0.1015 -0.3358 -0.4155
   61SAPC  H13R 4774   5.792   1.784   9.334  2.8874  1.0710  2.6047
   61SAPC  H13S 4775   5.748   1.613   9.350 -0.2472  0.2040  0.1558
   61SAPC  C214 4776   5.904   1.648   9.214 -0.9338  1.3668  0.2331
   61SAPC  H14R 4777   5.967   1.558   9.219 -2.6816  0.1111  0.3615
   61SAPC  C215 4778   5.882   1.701   9.093  0.4245  0.2415  0.7377
   61SAPC  H15R 4779   5.942   1.661   9.010  0.8969  1.2557  0.5698
   61SAPC  C216 4780   5.777   1.800   9.049 -0.4016 -0.5011 -0.1399
   61SAPC  H16R 4781   5.784   1.879   9.127 -0.0369  0.1350 -0.8093
   61SAPC  H16S 4782   5.676   1.753   9.049  0.0544 -1.5668 -2.0033
   61SAPC  C217 4783   5.810   1.849   8.904  0.6785  0.2130  0.1704
   61SAPC  H17R 4784   5.919   1.869   8.898  0.4271  1.7586  0.4879
   61SAPC  H17S 4785   5.752   1.942   8.885 -0.2120 -0.6608 -1.8144
   61SAPC  C218 4786   5.760   1.751   8.799  0.6043  0.1203 -0.7190
   61SAPC  H18R 4787   5.657   1.727   8.833  0.3480  0.2539 -1.3872
   61SAPC  H18S 4788   5.820   1.657   8.796  1.3249  0.2235  3.5950
   61SAPC  C219 4789   5.749   1.817   8.661 -0.5100 -0.2673 -0.0720
   61SAPC  H19R 4790   5.820   1.764   8.595  0.6818  0.7015  0.4050
   61SAPC  H19S 4791   5.761   1.927   8.666 -0.0983 -0.3645  2.2871
   61SAPC  C220 4792   5.621   1.785   8.590  0.4447  0.0938 -0.7172
   61SAPC  H20R 4793   5.577   1.689   8.625 -1.8001  1.4110  0.3257
   61SAPC  H20S 4794   5.636   1.788   8.480 -1.2134 -2.0529 -1.0719
   61SAPC  H20T 4795   5.545   1.864   8.612  1.6424  0.6174  1.8887
   61SAPC   C33 4796   6.426   1.747  10.285 -0.5653  0.2384 -0.0830
   61SAPC   H3X 4797   6.423   1.856  10.262 -3.0919  0.5952  1.5386
   61SAPC   H3Y 4798   6.326   1.717  10.248  0.0894 -0.6198 -1.2246
   61SAPC   C34 4799   6.537   1.680  10.192  0.3939 -0.1876  0.3309
   61SAPC   H4X 4800   6.522   1.570  10.196 -0.2128 -0.3122 -2.7460
   61SAPC   H4Y 4801   6.636   1.722  10.222 -0.0243  2.5859 -1.7153
   61SAPC   C35 4802   6.521   1.716  10.046 -0.0273 -0.0869 -0.4276
   61SAPC   H5X 4803   6.523   1.827  10.038 -1.1273  0.0277  0.6499
   61SAPC   H5Y 4804   6.418   1.687  10.018 -1.4542  1.8345  2.3737
   61SAPC   C36 4805   6.628   1.648   9.958  0.0332  0.2039  0.4404
   61SAPC   H6X 4806   6.630   1.537   9.962  1.3595  0.0495 -2.2168
   61SAPC   H6Y 4807   6.728   1.683   9.992 -0.4997  0.7021  1.5632
   61SAPC   C37 4808   6.609   1.677   9.805 -0.3699 -0.6869 -0.4932
   61SAPC   H7X 4809   6.597   1.784   9.777  1.4966  0.0418  1.2447
   61SAPC   H7Y 4810   6.516   1.621   9.781  0.1415 -1.5464 -0.5257
   61SAPC   C38 4811   6.722   1.620   9.717 -0.3147 -0.8639  0.7451
   61SAPC   H8X 4812   6.746   1.515   9.744  0.0818 -0.9519  0.0729
   61SAPC   H8Y 4813   6.813   1.681   9.740 -1.7477  0.5725  3.0308
   61SAPC   C39 4814   6.695   1.606   9.565  0.0870 -0.0684 -0.0472
   61SAPC   H9X 4815   6.688   1.707   9.519 -2.4080  0.0180  0.3895
   61SAPC   H9Y 4816   6.598   1.555   9.544 -0.2477  0.9027 -0.9153
   61SAPC  C310 4817   6.800   1.520   9.490 -0.0130  0.3226  0.6435
   61SAPC  H10X 4818   6.812   1.417   9.530  0.4281 -0.9402 -2.4924
   61SAPC  H10Y 4819   6.894   1.573   9.514 -0.1431  0.8677 -0.0246
   61SAPC  C311 4820   6.789   1.522   9.335  0.1130 -0.0917 -0.3112
   61SAPC  H11X 4821   6.793   1.627   9.299  0.9966 -0.0930 -0.2398
   61SAPC  H11Y 4822   6.692   1.479   9.304 -0.4373  0.1091  1.0814
   61SAPC  C312 4823   6.902   1.445   9.258 -0.7038  0.5353 -0.5284
   61SAPC  H12X 4824   6.887   1.340   9.288  1.2960  1.0230  2.5836
   61SAPC  H12Y 4825   7.006   1.472   9.283  0.5581 -0.9940 -3.5565
   61SAPC  C313 4826   6.878   1.460   9.106  0.2835  0.2231  0.2407
   61SAPC  H13X 4827   6.895   1.566   9.077 -2.3081  0.0098 -2.5695
   61SAPC  H13Y 4828   6.770   1.450   9.083  0.5938  0.4124 -1.4510
   61SAPC  C314 4829   6.974   1.390   9.009  0.1526 -0.4894  0.1715
   61SAPC  H14X 4830   6.969   1.279   9.016 -0.5355 -0.4189  1.0818
   61SAPC  H14Y 4831   7.077   1.431   9.020 -0.0545  0.3218 -0.7046
   61SAPC  C315 4832   6.932   1.423   8.858 -0.4594 -0.0398 -0.1220
   61SAPC  H15X 4833   6.822   1.407   8.848 -0.1415 -2.7895  0.2314
   61SAPC  H15Y 4834   6.982   1.348   8.794 -0.0498 -0.0853  0.2438
   61SAPC  C316 4835   6.982   1.563   8.823  0.2646  0.0041  0.8928
   61SAPC  H16X 4836   7.081   1.579   8.871  1.3569  3.7082 -2.0981
   61SAPC  H16Y 4837   6.913   1.642   8.860 -1.8305 -1.1606 -0.3188
   61SAPC  C317 4838   7.000   1.582   8.674 -0.2261 -0.5268  0.6447
   61SAPC  H17X 4839   6.908   1.580   8.611  0.3981  2.9748 -0.6209
   61SAPC  H17Y 4840   7.075   1.514   8.627  1.2687  2.0770 -1.0255
   61SAPC  C318 4841   7.064   1.721   8.646  0.2236  0.3752  0.2058
   61SAPC  H18X 4842   7.156   1.733   8.707  1.1226 -1.1180 -0.8019
   61SAPC  H18Y 4843   6.987   1.802   8.653  1.3709  1.4948  0.2718
   61SAPC  H18Z 4844   7.108   1.727   8.545  0.9726  0.1319  0.5138
   62SAPC     N 4845   5.051   2.611  10.949 -0.5759  0.0092  0.1080
   62SAPC   C12 4846   4.978   2.500  10.871 -0.5413  0.4153 -0.6724
   62SAPC  H12A 4847   4.946   2.542  10.777  2.0151  1.7383 -1.0488
   62SAPC  H12B 4848   4.893   2.466  10.927  0.7460 -2.3789 -0.2297
   62SAPC   C13 4849   4.953   2.719  10.983  0.3819 -0.1859  0.4038
   62SAPC  H13A 4850   4.922   2.777  10.897 -1.0022  0.0798  1.0569
   62SAPC  H13B 4851   4.865   2.669  11.020  0.7523 -0.5712  0.7745
   62SAPC  H13C 4852   4.979   2.781  11.067 -2.7698  0.1077  1.2788
   62SAPC   C14 4853   5.091   2.555  11.077  0.5826  0.0542 -0.1296
   62SAPC  H14A 4854   5.169   2.608  11.129 -1.2015  2.6816  0.0904
   62SAPC  H14B 4855   5.003   2.553  11.139  1.0705 -0.0091  0.5655
   62SAPC  H14C 4856   5.130   2.454  11.070 -0.9194 -0.5277 -0.5709
   62SAPC   C15 4857   5.177   2.650  10.877 -0.4408 -0.3575 -0.1765
   62SAPC  H15A 4858   5.153   2.681  10.777  1.3417  1.0931 -0.1989
   62SAPC  H15B 4859   5.226   2.731  10.928 -0.2308 -0.9362  0.5664
   62SAPC  H15C 4860   5.238   2.562  10.860 -0.5629 -0.2767 -1.0980
   62SAPC   C11 4861   5.055   2.369  10.841 -0.3570  0.3711 -0.5450
   62SAPC  H11A 4862   4.969   2.315  10.797  0.8539 -0.5232 -1.9229
   62SAPC  H11B 4863   5.080   2.320  10.937  1.2333 -0.7394 -1.4763
   62SAPC     P 4864   5.160   2.352  10.599 -0.3453  0.4293 -0.2751
   62SAPC   O13 4865   5.281   2.407  10.538 -0.0356 -0.2978 -0.0939
   62SAPC   O14 4866   5.134   2.200  10.581  0.5714 -0.1075 -0.0926
   62SAPC   O12 4867   5.165   2.389  10.756 -0.3423 -0.3856  0.3658
   62SAPC   O11 4868   5.038   2.441  10.559 -0.1438 -0.4851  0.0027
   62SAPC    C1 4869   5.038   2.582  10.531  0.7957  0.2865 -0.1381
   62SAPC    HA 4870   4.974   2.637  10.603  2.8600  1.4497  0.8807
   62SAPC    HB 4871   5.142   2.620  10.529  0.6897  0.6429  0.9085
   62SAPC    C2 4872   4.969   2.622  10.391  0.2010 -0.6940  0.3033
   62SAPC    HS 4873   4.878   2.560  10.378  0.1748 -0.7059  0.5282
   62SAPC   O21 4874   5.061   2.595  10.287  0.2745 -0.6743 -0.6812
   62SAPC   C21 4875   5.053   2.473  10.240 -0.4365  0.4900  0.0284
   62SAPC   O22 4876   4.958   2.397  10.256 -0.4619  0.1050 -0.4671
   62SAPC   C22 4877   5.178   2.445  10.152 -0.2707 -0.0223 -0.2723
   62SAPC   H2R 4878   5.192   2.539  10.095 -0.7836 -0.2879 -0.8450
   62SAPC   H2S 4879   5.263   2.439  10.224 -1.8823  1.1998  1.8454
   62SAPC    C3 4880   4.925   2.763  10.386  0.4090  0.4702 -0.1707
   62SAPC    HX 4881   5.021   2.814  10.411  0.7572 -0.5369  0.6149
   62SAPC    HY 4882   4.854   2.781  10.470  2.3932  0.7566  1.5575
   62SAPC   O31 4883   4.871   2.806  10.260 -0.7354  0.0219  0.4328
   62SAPC   C31 4884   4.877   2.930  10.223 -0.2543 -0.7767  0.7286
   62SAPC   O32 4885   4.933   3.025  10.280 -0.2948 -0.2971 -0.0209
   62SAPC   C32 4886   4.781   2.954  10.109  0.2024  0.7645 -0.2827
   62SAPC   H2X 4887   4.707   3.034  10.131 -0.8810  0.3463 -2.1832
   62SAPC   H2Y 4888   4.709   2.869  10.098  0.3186  0.0563  3.1270
   62SAPC   C23 4889   5.167   2.327  10.058  0.1310 -0.5840 -0.5697
   62SAPC   H3R 4890   5.097   2.252  10.101  1.4562 -1.7482 -0.3423
   62SAPC   H3S 4891   5.267   2.279  10.051  0.3726 -0.7176  2.5994
   62SAPC   C24 4892   5.123   2.381   9.922 -0.4079  0.4821  0.1412
   62SAPC   H4R 4893   5.032   2.441   9.940 -1.8033 -1.2156 -0.9016
   62SAPC   H4S 4894   5.100   2.288   9.866  1.4516  0.8682 -1.3958
   62SAPC   C25 4895   5.238   2.454   9.858  0.3779 -0.5078 -0.2809
   62SAPC   H5R 4896   5.338   2.420   9.891  0.4758 -2.3844 -2.2583
   62SAPC   C26 4897   5.225   2.530   9.746 -0.1620  0.7373 -0.0037
   62SAPC   H6R 4898   5.318   2.577   9.709  1.2656 -0.0116  2.3635
   62SAPC   C27 4899   5.107   2.548   9.669 -0.0625  0.8391  0.6422
   62SAPC   H7R 4900   5.017   2.495   9.706 -0.1131 -2.1809 -3.1267
   62SAPC   H7S 4901   5.118   2.507   9.566 -1.0636 -1.3722  1.3485
   62SAPC   C28 4902   5.073   2.694   9.651 -0.2834  0.2172 -0.4327
   62SAPC   H8R 4903   5.045   2.748   9.743 -0.8211 -0.1415 -0.3781
   62SAPC   C29 4904   5.086   2.771   9.542  0.3023  0.1025 -0.5432
   62SAPC   H9R 4905   5.054   2.876   9.543 -1.5029 -0.4259 -0.1854
   62SAPC  C210 4906   5.138   2.716   9.415  0.3760 -0.2708 -0.2186
   62SAPC  H10R 4907   5.069   2.654   9.354  0.1790  1.1157 -1.4729
   62SAPC  H10S 4908   5.223   2.646   9.429  1.0554  0.1304 -1.9703
   62SAPC  C211 4909   5.181   2.841   9.337 -0.2489 -0.5270 -0.1365
   62SAPC  H11R 4910   5.264   2.899   9.381  0.6903 -0.8958 -1.3611
   62SAPC  C212 4911   5.126   2.881   9.217  0.9706 -0.2234  0.5935
   62SAPC  H12R 4912   5.172   2.969   9.170  0.5116 -0.8154 -1.0535
   62SAPC  C213 4913   5.001   2.829   9.141  0.0766  0.4366 -0.5087
   62SAPC  H13R 4914   4.952   2.753   9.206  2.3630  1.1246  2.2050
   62SAPC  H13S 4915   5.046   2.778   9.053 -0.8316 -0.1943 -0.6275
   62SAPC  C214 4916   4.896   2.932   9.096  0.2857 -0.4003 -0.1746
   62SAPC  H14R 4917   4.860   2.999   9.175  0.7215 -0.5649  0.1652
   62SAPC  C215 4918   4.839   2.945   8.974  1.3400 -0.0979  0.6908
   62SAPC  H15R 4919   4.762   3.022   8.959  2.2658  0.6715 -0.3036
   62SAPC  C216 4920   4.871   2.858   8.854  0.3795 -0.1556  0.5619
   62SAPC  H16R 4921   4.964   2.800   8.872  0.3142 -0.2169  0.7042
   62SAPC  H16S 4922   4.871   2.927   8.766  0.2433 -1.0345 -0.1425
   62SAPC  C217 4923   4.772   2.745   8.836  0.8852 -0.0206 -0.2951
   62SAPC  H17R 4924   4.669   2.779   8.811  0.8235 -0.8249 -1.1909
   62SAPC  H17S 4925   4.762   2.705   8.940  0.0388  0.5611 -0.1430
   62SAPC  C218 4926   4.807   2.633   8.729 -0.0735 -0.1368 -0.3890
   62SAPC  H18R 4927   4.820   2.680   8.630  4.0863  0.1354  0.1149
   62SAPC  H18S 4928   4.720   2.564   8.718 -1.0382  0.9744  0.0213
   62SAPC  C219 4929   4.934   2.548   8.763  0.1940  0.5781  0.4598
   62SAPC  H19R 4930   5.019   2.618   8.775 -0.0312  0.8203  0.6613
   62SAPC  H19S 4931   4.967   2.482   8.680 -0.1202 -2.0918  2.2950
   62SAPC  C220 4932   4.926   2.463   8.895  0.1091 -0.2827 -0.1799
   62SAPC  H20R 4933   4.888   2.359   8.881 -0.9251 -0.0487  0.7542
   62SAPC  H20S 4934   4.868   2.507   8.979  1.6367 -1.6307  1.7029
   62SAPC  H20T 4935   5.030   2.456   8.936  0.0467  0.8014  0.1924
   62SAPC   C33 4936   4.853   2.994   9.984 -0.0460 -0.6295 -0.4650
   62SAPC   H3X 4937   4.926   2.914   9.957  0.8995 -0.0741  0.4281
   62SAPC   H3Y 4938   4.908   3.085  10.015  0.6861 -1.5269  0.9876
   62SAPC   C34 4939   4.756   3.032   9.877 -0.5325 -0.7295  0.5680
   62SAPC   H4X 4940   4.700   3.126   9.892  0.8635  0.7202 -2.4310
   62SAPC   H4Y 4941   4.672   2.959   9.882 -1.1580 -0.0294  0.4134
   62SAPC   C35 4942   4.815   3.027   9.730  0.4571 -0.1451  0.5123
   62SAPC   H5X 4943   4.855   2.924   9.714  2.2787  0.7868 -1.5090
   62SAPC   H5Y 4944   4.892   3.107   9.719 -0.7019  1.0318  0.7255
   62SAPC   C36 4945   4.707   3.039   9.625 -0.0768 -0.1475 -0.5235
   62SAPC   H6X 4946   4.628   2.961   9.633  1.0217 -1.2618 -0.1906
   62SAPC   H6Y 4947   4.757   3.028   9.527 -1.1782  0.8480 -1.2294
   62SAPC   C37 4948   4.637   3.181   9.618  0.0342  0.0363 -0.1668
   62SAPC   H7X 4949   4.719   3.247   9.582 -0.7235  0.2328 -1.5808
   62SAPC   H7Y 4950   4.608   3.201   9.723  2.8724 -1.0753  0.9543
   62SAPC   C38 4951   4.525   3.197   9.514  0.4796 -0.0520  0.1847
   62SAPC   H8X 4952   4.491   3.303   9.506  0.9658  0.1048  0.1496
   62SAPC   H8Y 4953   4.444   3.133   9.554 -0.9322  1.1581 -0.6382
   62SAPC   C39 4954   4.566   3.159   9.366 -0.0342  0.1447 -0.6598
   62SAPC   H9X 4955   4.605   3.055   9.367 -0.2779  0.0521 -0.7069
   62SAPC   H9Y 4956   4.651   3.227   9.343  0.0088  0.0170 -0.8894
   62SAPC  C310 4957   4.458   3.191   9.264  0.1050 -0.5373 -0.6486
   62SAPC  H10X 4958   4.431   3.296   9.288  1.0761 -0.0590 -1.5618
   62SAPC  H10Y 4959   4.370   3.127   9.285  0.3769 -0.6962  0.0374
   62SAPC  C311 4960   4.514   3.183   9.123  0.5290 -0.1897  0.5705
   62SAPC  H11X 4961   4.543   3.078   9.101  0.2861 -0.0341 -0.5513
   62SAPC  H11Y 4962   4.606   3.245   9.115  0.6752 -0.6162 -2.0535
   62SAPC  C312 4963   4.418   3.229   9.012 -0.5611 -0.0242 -0.9268
   62SAPC  H12X 4964   4.395   3.337   9.026 -0.5335 -0.3192  2.0901
   62SAPC  H12Y 4965   4.318   3.183   9.028 -2.1179  2.0861 -3.5692
   62SAPC  C313 4966   4.464   3.192   8.878 -0.0934 -0.1395  0.3904
   62SAPC  H13X 4967   4.383   3.215   8.805  2.1678  2.1176 -1.6110
   62SAPC  H13Y 4968   4.469   3.081   8.876 -0.9117 -0.1917 -1.4130
   62SAPC  C314 4969   4.595   3.248   8.827  0.0440  0.0754 -0.2652
   62SAPC  H14X 4970   4.661   3.242   8.915  0.4126  0.2513 -0.5258
   62SAPC  H14Y 4971   4.588   3.355   8.796 -1.0234  0.3563  0.8768
   62SAPC  C315 4972   4.671   3.184   8.712  0.2149  0.2773  0.2947
   62SAPC  H15X 4973   4.626   3.191   8.611  3.5322 -1.8019 -1.4580
   62SAPC  H15Y 4974   4.675   3.075   8.728 -0.4275  0.3636  1.1581
   62SAPC  C316 4975   4.818   3.229   8.703  0.3605  0.6042 -0.1185
   62SAPC  H16X 4976   4.878   3.181   8.782  0.9838  0.9756 -0.3612
   62SAPC  H16Y 4977   4.834   3.338   8.716  3.1884  0.4489 -1.4790
   62SAPC  C317 4978   4.880   3.182   8.571 -0.6953  0.3561  0.1568
   62SAPC  H17X 4979   4.820   3.224   8.487 -0.9326  0.2690  0.2802
   62SAPC  H17Y 4980   4.873   3.071   8.573 -1.2828  0.4029  1.0732
   62SAPC  C318 4981   5.029   3.227   8.559  0.7990 -0.0021  0.2402
   62SAPC  H18X 4982   5.068   3.205   8.458  1.0328  2.1676 -0.1965
   62SAPC  H18Y 4983   5.094   3.183   8.637  0.7967  0.2057  0.3608
   62SAPC  H18Z 4984   5.034   3.338   8.568  0.6909  0.1153 -1.0155
   63SAPC     N 4985   6.491   0.073   6.192  0.2581  0.1461 -0.3686
   63SAPC   C12 4986   6.395  -0.004   6.091  0.1830 -0.0091 -1.2747
   63SAPC  H12A 4987   6.448  -0.088   6.050 -2.0952 -1.5791 -1.2035
   63SAPC  H12B 4988   6.359   0.063   6.013  1.4952  0.4264 -1.5309
   63SAPC   C13 4989   6.423   0.202   6.230  0.0352 -0.3401  0.1869
   63SAPC  H13A 4990   6.322   0.188   6.265 -0.3737  2.9073  0.6220
   63SAPC  H13B 4991   6.485   0.255   6.301  1.0920 -2.0848  0.6387
   63SAPC  H13C 4992   6.403   0.270   6.148  2.2182 -0.2420 -0.3340
   63SAPC   C14 4993   6.538  -0.006   6.303 -1.2139 -1.1922  0.5315
   63SAPC  H14A 4994   6.620   0.035   6.360 -2.8724  0.3340  1.9566
   63SAPC  H14B 4995   6.456  -0.036   6.367 -0.7595 -2.0251  0.7462
   63SAPC  H14C 4996   6.583  -0.097   6.267  0.1744  0.4303 -2.1281
   63SAPC   C15 4997   6.614   0.100   6.105  0.0345 -0.3043 -0.2229
   63SAPC  H15A 4998   6.659   0.010   6.066  1.2216  0.3530 -0.4150
   63SAPC  H15B 4999   6.588   0.158   6.017  0.0700 -0.2668 -0.2083
   63SAPC  H15C 5000   6.686   0.151   6.167 -1.9992  0.9335  1.2519
   63SAPC   C11 5001   6.265  -0.064   6.145 -0.1631  0.2480 -0.4330
   63SAPC  H11A 5002   6.211  -0.105   6.057 -1.3923  1.8300 -0.4675
   63SAPC  H11B 5003   6.202   0.015   6.192  0.8334  0.2053  1.0312
   63SAPC     P 5004   6.195  -0.246   6.320  0.1057 -0.0017 -0.1305
   63SAPC   O13 5005   6.079  -0.288   6.241  0.6319 -0.2215 -0.2293
   63SAPC   O14 5006   6.262  -0.354   6.400 -0.8202 -0.6536 -0.2491
   63SAPC   O12 5007   6.300  -0.161   6.244  0.2737  0.3074 -0.5207
   63SAPC   O11 5008   6.149  -0.133   6.414 -0.0735 -0.2347 -0.0428
   63SAPC    C1 5009   6.232  -0.083   6.518 -0.2502 -0.7197 -0.8523
   63SAPC    HA 5010   6.336  -0.119   6.533  0.1517  1.1945  1.3687
   63SAPC    HB 5011   6.231   0.027   6.505 -4.0084 -0.4785  0.2462
   63SAPC    C2 5012   6.159  -0.116   6.652 -0.7562  0.9595 -0.3702
   63SAPC    HS 5013   6.120  -0.219   6.635 -2.2119  1.6059 -1.1159
   63SAPC   O21 5014   6.044  -0.035   6.669  0.7452 -0.2647  0.1140
   63SAPC   C21 5015   5.940  -0.089   6.728  0.6218  0.1228  0.0248
   63SAPC   O22 5016   5.929  -0.207   6.764 -0.1514 -0.3256 -0.0621
   63SAPC   C22 5017   5.827   0.012   6.737 -0.0972 -0.4679 -0.7046
   63SAPC   H2R 5018   5.802   0.055   6.638 -1.9468 -0.2039 -0.1631
   63SAPC   H2S 5019   5.736  -0.044   6.768 -1.8968  2.6784  0.1401
   63SAPC    C3 5020   6.251  -0.117   6.780 -0.0817 -0.7589 -0.5535
   63SAPC    HX 5021   6.307  -0.022   6.772 -1.8097  0.4181  0.6728
   63SAPC    HY 5022   6.326  -0.199   6.777 -1.8717 -2.4425 -1.7441
   63SAPC   O31 5023   6.184  -0.104   6.909  0.2011 -0.3708 -0.1275
   63SAPC   C31 5024   6.153  -0.221   6.961  0.3014  0.3126  0.0933
   63SAPC   O32 5025   6.187  -0.325   6.912 -0.2444  0.2854  0.1629
   63SAPC   C32 5026   6.064  -0.211   7.085  0.4305 -0.2291  0.2948
   63SAPC   H2X 5027   6.044  -0.315   7.119  0.5171  0.1161  1.4486
   63SAPC   H2Y 5028   5.973  -0.156   7.052  0.7351  0.3370  0.4014
   63SAPC   C23 5029   5.855   0.124   6.841  0.0932 -0.0892  0.2796
   63SAPC   H3R 5030   5.942   0.182   6.804 -1.0234  0.1854 -2.1000
   63SAPC   H3S 5031   5.878   0.075   6.938 -0.0829  0.9839  0.8785
   63SAPC   C24 5032   5.728   0.206   6.879 -0.5087  0.0963  0.1513
   63SAPC   H4R 5033   5.709   0.247   6.778 -0.5892 -1.2928 -0.4255
   63SAPC   H4S 5034   5.760   0.294   6.938 -0.5436  1.2476 -1.4834
   63SAPC   C25 5035   5.618   0.116   6.922  0.2949 -0.0232  0.2770
   63SAPC   H5R 5036   5.557   0.074   6.841  1.3538 -0.3553 -0.3590
   63SAPC   C26 5037   5.589   0.080   7.047 -0.4720 -0.2801  0.1477
   63SAPC   H6R 5038   5.505   0.015   7.075 -1.9952  2.5687  2.7395
   63SAPC   C27 5039   5.658   0.145   7.170 -0.3927  0.2914 -0.2688
   63SAPC   H7R 5040   5.609   0.244   7.176 -2.2327 -0.5351 -0.9158
   63SAPC   H7S 5041   5.767   0.162   7.154 -1.1432  2.4255 -4.1682
   63SAPC   C28 5042   5.631   0.068   7.295 -0.6420 -0.2292  0.4936
   63SAPC   H8R 5043   5.595  -0.036   7.284 -2.7680  0.2008  2.6620
   63SAPC   C29 5044   5.665   0.106   7.415  0.3193 -0.3112  0.3647
   63SAPC   H9R 5045   5.635   0.046   7.502  2.8067 -0.4403  1.2305
   63SAPC  C210 5046   5.732   0.242   7.437 -0.0460  0.1344 -0.0244
   63SAPC  H10R 5047   5.659   0.323   7.455 -0.5120 -0.0315 -1.1019
   63SAPC  H10S 5048   5.789   0.282   7.350  1.4238 -0.4440  0.6229
   63SAPC  C211 5049   5.847   0.234   7.534  0.0426  0.7438  0.1930
   63SAPC  H11R 5050   5.946   0.195   7.508  1.5210  2.6375  2.4890
   63SAPC  C212 5051   5.847   0.292   7.650  0.4128 -0.3850 -0.2373
   63SAPC  H12R 5052   5.944   0.280   7.701 -0.4682 -1.3586  1.3061
   63SAPC  C213 5053   5.728   0.380   7.702 -0.3459  0.0151 -0.4705
   63SAPC  H13R 5054   5.700   0.350   7.806 -0.1513 -1.7374 -0.8799
   63SAPC  H13S 5055   5.634   0.371   7.643 -0.5150  0.3925 -0.2603
   63SAPC  C214 5056   5.778   0.518   7.712 -0.0577  0.5511 -0.1617
   63SAPC  H14R 5057   5.849   0.543   7.793  2.9178 -4.8619 -0.6259
   63SAPC  C215 5058   5.739   0.616   7.628  0.1008 -0.0264  0.6068
   63SAPC  H15R 5059   5.785   0.715   7.637 -0.5406  0.3461 -0.0637
   63SAPC  C216 5060   5.642   0.617   7.513  0.6607 -0.3783  0.2849
   63SAPC  H16R 5061   5.567   0.698   7.514 -0.8053 -1.6774  1.0032
   63SAPC  H16S 5062   5.565   0.538   7.527 -1.6325  1.5135 -1.0904
   63SAPC  C217 5063   5.724   0.611   7.381  0.4954 -0.0743 -0.7322
   63SAPC  H17R 5064   5.786   0.520   7.393 -0.4590 -0.3319  3.5684
   63SAPC  H17S 5065   5.797   0.694   7.392  1.2226 -0.8615  0.6296
   63SAPC  C218 5066   5.643   0.604   7.256 -0.5833 -0.0235 -0.1075
   63SAPC  H18R 5067   5.583   0.697   7.244  0.9552  1.0129 -0.1604
   63SAPC  H18S 5068   5.574   0.518   7.267 -0.5373 -0.3913 -2.3387
   63SAPC  C219 5069   5.734   0.575   7.127  0.0727 -0.8489 -0.4887
   63SAPC  H19R 5070   5.792   0.483   7.151 -0.4789 -1.0863 -0.0339
   63SAPC  H19S 5071   5.801   0.663   7.113  0.6033 -1.4687 -1.9625
   63SAPC  C220 5072   5.650   0.550   7.001  0.2654 -0.0321  0.4944
   63SAPC  H20R 5073   5.602   0.645   6.968  3.3957  0.7841 -2.2395
   63SAPC  H20S 5074   5.572   0.470   7.007  0.4980 -0.3339 -0.3250
   63SAPC  H20T 5075   5.714   0.533   6.912 -1.6092 -2.7248 -0.4839
   63SAPC   C33 5076   6.128  -0.121   7.199 -0.2738  0.2316 -0.1724
   63SAPC   H3X 5077   6.161  -0.018   7.172 -1.5742  0.6856 -0.0760
   63SAPC   H3Y 5078   6.220  -0.180   7.220  0.6255  1.2477 -1.0794
   63SAPC   C34 5079   6.052  -0.112   7.333 -0.6031 -0.1016  0.2947
   63SAPC   H4X 5080   6.020  -0.217   7.351 -1.0260  0.3016  2.0336
   63SAPC   H4Y 5081   5.967  -0.041   7.333  0.8638  1.8316 -1.8968
   63SAPC   C35 5082   6.143  -0.069   7.455 -0.4133 -1.3271 -0.1623
   63SAPC   H5X 5083   6.175   0.034   7.431  0.6069 -2.0391 -2.1360
   63SAPC   H5Y 5084   6.236  -0.129   7.450  0.1560 -0.3776 -1.8033
   63SAPC   C36 5085   6.078  -0.079   7.591 -0.0111  0.0584  0.6458
   63SAPC   H6X 5086   6.031  -0.173   7.628 -1.7785  1.5610  2.4599
   63SAPC   H6Y 5087   5.996  -0.005   7.585  0.9510  1.1129 -0.0696
   63SAPC   C37 5088   6.175  -0.023   7.701 -0.1122  0.1520 -0.6065
   63SAPC   H7X 5089   6.189   0.084   7.676  1.2429  0.4889  1.3070
   63SAPC   H7Y 5090   6.281  -0.056   7.709 -0.2163  0.1444  1.1470
   63SAPC   C38 5091   6.098  -0.040   7.832 -0.2799  0.5233  0.2942
   63SAPC   H8X 5092   6.078  -0.150   7.830 -2.2483  0.8493  0.3992
   63SAPC   H8Y 5093   6.002   0.011   7.811  0.7272  1.1141 -3.6628
   63SAPC   C39 5094   6.173   0.011   7.946  0.5556 -0.1644  0.7015
   63SAPC   H9X 5095   6.204   0.112   7.910 -0.2705 -0.6397 -1.5080
   63SAPC   H9Y 5096   6.261  -0.054   7.965 -0.5398 -1.4359  1.6347
   63SAPC  C310 5097   6.085   0.034   8.066  0.0068  0.9109 -0.9028
   63SAPC  H10X 5098   6.139   0.023   8.162 -1.8426 -2.2423 -0.0823
   63SAPC  H10Y 5099   6.008  -0.046   8.063  0.9152  0.0221 -1.3599
   63SAPC  C311 5100   5.992   0.156   8.070 -0.3091 -0.3776 -0.4582
   63SAPC  H11X 5101   5.906   0.149   8.139 -0.5467  0.7566 -0.6118
   63SAPC  H11Y 5102   5.954   0.172   7.966  0.4511  1.7904 -0.4610
   63SAPC  C312 5103   6.071   0.285   8.106  0.8470  0.1678  0.4255
   63SAPC  H12X 5104   5.995   0.363   8.128  1.4996  0.4766  1.7102
   63SAPC  H12Y 5105   6.126   0.317   8.015  0.2892  0.2077  0.0968
   63SAPC  C313 5106   6.156   0.270   8.232 -0.2643 -0.3818 -1.0402
   63SAPC  H13X 5107   6.247   0.207   8.229 -0.2902 -0.5078  0.1174
   63SAPC  H13Y 5108   6.094   0.231   8.316 -0.6762  0.4566 -0.9409
   63SAPC  C314 5109   6.215   0.401   8.279 -0.1072  0.4088  0.1826
   63SAPC  H14X 5110   6.126   0.467   8.279 -0.3828  0.0805 -1.8012
   63SAPC  H14Y 5111   6.275   0.445   8.197  0.0165 -0.3520 -0.1423
   63SAPC  C315 5112   6.281   0.380   8.416  0.5531 -0.1468 -1.2485
   63SAPC  H15X 5113   6.332   0.282   8.430 -1.2581 -0.9086  0.6013
   63SAPC  H15Y 5114   6.199   0.377   8.491  0.1121  2.3512 -1.5516
   63SAPC  C316 5115   6.372   0.493   8.470  0.7130  0.3489 -0.1537
   63SAPC  H16X 5116   6.401   0.468   8.574  1.2432  0.4882 -0.2649
   63SAPC  H16Y 5117   6.315   0.588   8.458  3.2081  1.8134 -1.1993
   63SAPC  C317 5118   6.493   0.508   8.379  0.1799  0.2145  0.0396
   63SAPC  H17X 5119   6.459   0.491   8.275  1.1613 -0.5580 -0.1737
   63SAPC  H17Y 5120   6.572   0.435   8.408  0.5910  0.3794 -0.6254
   63SAPC  C318 5121   6.567   0.640   8.397  0.6214 -0.4582  0.1274
   63SAPC  H18X 5122   6.488   0.717   8.381 -0.5782 -1.5022  0.7616
   63SAPC  H18Y 5123   6.647   0.648   8.321 -0.0348 -1.0424 -0.6500
   63SAPC  H18Z 5124   6.610   0.655   8.499  1.2518 -2.1854  0.1476
   64SAPC     N 5125   2.242   2.149   6.393 -0.5192 -0.1161  0.4195
   64SAPC   C12 5126   2.153   2.210   6.505  0.2193 -0.2846 -1.0237
   64SAPC  H12A 5127   2.210   2.210   6.597 -1.6853 -1.9102  0.2386
   64SAPC  H12B 5128   2.078   2.134   6.523  0.5481 -0.0737  1.5718
   64SAPC   C13 5129   2.307   2.024   6.443  1.1913 -0.4006  0.3090
   64SAPC  H13A 5130   2.237   1.951   6.482  0.6876 -0.5660 -0.8753
   64SAPC  H13B 5131   2.356   1.962   6.369 -3.5719 -2.7903 -1.2409
   64SAPC  H13C 5132   2.376   2.055   6.520  0.9801 -0.7564  0.6454
   64SAPC   C14 5133   2.162   2.123   6.274 -0.3615 -0.2803  0.5821
   64SAPC  H14A 5134   2.227   2.084   6.196 -1.8829 -0.1296 -0.8087
   64SAPC  H14B 5135   2.079   2.057   6.296 -0.7618  0.6228  1.8639
   64SAPC  H14C 5136   2.126   2.217   6.236  0.0790 -0.0389  0.7545
   64SAPC   C15 5137   2.343   2.253   6.351 -0.7701  0.3366 -0.0475
   64SAPC  H15A 5138   2.405   2.278   6.437 -1.8160 -0.9735  1.1304
   64SAPC  H15B 5139   2.412   2.205   6.284 -0.9180 -0.5752  0.4468
   64SAPC  H15C 5140   2.297   2.341   6.309 -0.6183  1.1261  1.3651
   64SAPC   C11 5141   2.074   2.344   6.485 -0.3712 -0.3487 -0.5620
   64SAPC  H11A 5142   2.149   2.421   6.457 -2.1086  1.3866 -0.6369
   64SAPC  H11B 5143   2.026   2.378   6.580  0.1879  0.6798 -0.6316
   64SAPC     P 5144   1.950   2.448   6.289 -0.2226 -0.1927 -0.0726
   64SAPC   O13 5145   2.048   2.464   6.176 -0.2579  0.4952 -0.1640
   64SAPC   O14 5146   1.809   2.430   6.254 -0.1540  0.5587  0.7058
   64SAPC   O12 5147   1.981   2.328   6.377 -1.0654  0.0098  0.1129
   64SAPC   O11 5148   1.976   2.565   6.388 -0.0264 -0.1955 -0.1811
   64SAPC    C1 5149   1.883   2.590   6.492  0.1020  0.9839 -0.0566
   64SAPC    HA 5150   1.783   2.544   6.477  1.0984 -0.7606 -1.9134
   64SAPC    HB 5151   1.923   2.552   6.589  2.7307 -0.5689 -1.6139
   64SAPC    C2 5152   1.849   2.743   6.518 -0.5708  0.0459 -0.8345
   64SAPC    HS 5153   1.820   2.779   6.417 -0.0324  3.2693  0.0695
   64SAPC   O21 5154   1.977   2.799   6.556  0.0367  0.2619 -0.0611
   64SAPC   C21 5155   1.977   2.932   6.541  0.0906  0.4284  0.2681
   64SAPC   O22 5156   1.889   2.995   6.494  0.1450 -0.0002  0.0951
   64SAPC   C22 5157   2.118   2.977   6.559  0.7942  0.1819  0.3293
   64SAPC   H2R 5158   2.167   2.909   6.632  1.1423 -0.3733 -0.4123
   64SAPC   H2S 5159   2.163   2.949   6.461 -0.6190  0.5742 -0.4500
   64SAPC    C3 5160   1.729   2.760   6.616 -0.1932 -0.2251  0.4649
   64SAPC    HX 5161   1.632   2.729   6.572  0.2572  2.4808 -2.8673
   64SAPC    HY 5162   1.719   2.871   6.620  3.4813  0.2163  3.5826
   64SAPC   O31 5163   1.759   2.697   6.741  0.0174 -0.1060  0.0502
   64SAPC   C31 5164   1.726   2.756   6.851  0.0736 -0.0605 -0.0709
   64SAPC   O32 5165   1.688   2.872   6.862  0.1318  0.1317  0.2015
   64SAPC   C32 5166   1.730   2.647   6.957  0.1153  0.6951 -0.6461
   64SAPC   H2X 5167   1.835   2.621   6.980 -0.1042 -2.3865 -2.6097
   64SAPC   H2Y 5168   1.684   2.552   6.923  2.6809 -0.9620  0.2402
   64SAPC   C23 5169   2.126   3.127   6.586  0.4150 -0.0731 -0.4329
   64SAPC   H3R 5170   2.082   3.194   6.509  1.0517  2.3279  1.1672
   64SAPC   H3S 5171   2.233   3.148   6.567 -0.1499  1.4539 -2.2614
   64SAPC   C24 5172   2.107   3.176   6.733  0.1155  0.2942  0.1525
   64SAPC   H4R 5173   2.140   3.282   6.733 -0.9315  0.6400  0.1683
   64SAPC   H4S 5174   2.179   3.120   6.796 -0.3413 -1.7511 -1.0448
   64SAPC   C25 5175   1.965   3.166   6.782 -0.0297  0.2120 -0.0616
   64SAPC   H5R 5176   1.889   3.212   6.717 -2.5697 -2.0869  1.0575
   64SAPC   C26 5177   1.914   3.113   6.895 -0.5373 -0.2016  0.1578
   64SAPC   H6R 5178   1.805   3.105   6.907 -0.5763 -1.8400 -0.9198
   64SAPC   C27 5179   1.992   3.026   6.995  0.3887  0.2739  0.5308
   64SAPC   H7R 5180   2.067   2.969   6.936 -0.4940  0.5471 -0.9028
   64SAPC   H7S 5181   1.924   2.955   7.045  1.0018  0.8950  2.3205
   64SAPC   C28 5182   2.060   3.113   7.098  0.5220 -0.4073  0.6694
   64SAPC   H8R 5183   2.120   3.194   7.054  0.1920 -0.3341  0.3521
   64SAPC   C29 5184   2.064   3.096   7.226 -0.3318 -0.4990 -0.3958
   64SAPC   H9R 5185   2.103   3.176   7.290  3.7051 -2.2304 -0.3599
   64SAPC  C210 5186   2.000   2.983   7.297 -0.3007 -0.6619 -0.2557
   64SAPC  H10R 5187   2.061   2.977   7.389 -0.8715  0.2765  0.1912
   64SAPC  H10S 5188   2.021   2.898   7.228  2.8759  0.0729 -0.3544
   64SAPC  C211 5189   1.849   3.004   7.330 -0.0442  0.0052  0.2834
   64SAPC  H11R 5190   1.784   3.016   7.242 -2.1446 -2.0559  1.4250
   64SAPC  C212 5191   1.793   3.001   7.454  0.5584 -0.2028 -0.8769
   64SAPC  H12R 5192   1.686   3.021   7.466  1.0490  1.6177  1.2718
   64SAPC  C213 5193   1.869   2.989   7.584 -0.2050 -0.2797 -0.3034
   64SAPC  H13R 5194   1.947   2.911   7.572  0.5207  0.4326 -0.2643
   64SAPC  H13S 5195   1.805   2.936   7.657  0.1581 -0.8406 -0.3871
   64SAPC  C214 5196   1.942   3.115   7.638  0.0315  1.2603  0.6204
   64SAPC  H14R 5197   1.974   3.194   7.569 -0.0550 -1.3102 -2.5706
   64SAPC  C215 5198   1.975   3.126   7.768  0.0211  0.9554 -0.0041
   64SAPC  H15R 5199   2.027   3.221   7.785 -0.7562  1.2622  0.7905
   64SAPC  C216 5200   1.963   3.043   7.895 -0.4994 -0.4403  0.7991
   64SAPC  H16R 5201   2.050   2.974   7.902 -0.5011 -0.5210  0.1066
   64SAPC  H16S 5202   1.869   2.984   7.890 -0.3280 -0.7054  0.6855
   64SAPC  C217 5203   1.945   3.126   8.030  0.4675  0.6398  0.1118
   64SAPC  H17R 5204   1.869   3.205   8.016  0.5225  0.5861 -0.4950
   64SAPC  H17S 5205   2.035   3.187   8.053 -0.2086  1.7176 -0.0171
   64SAPC  C218 5206   1.897   3.032   8.142 -0.2104  0.2025  0.6107
   64SAPC  H18R 5207   1.978   2.957   8.153 -0.0483  0.3986  0.7645
   64SAPC  H18S 5208   1.800   2.982   8.118 -0.0683 -1.2290  2.7164
   64SAPC  C219 5209   1.894   3.109   8.276  0.3462 -0.9163  0.5878
   64SAPC  H19R 5210   1.828   3.196   8.256  0.8956 -0.7291 -0.4997
   64SAPC  H19S 5211   2.000   3.140   8.294  0.5098 -0.7733 -0.5408
   64SAPC  C220 5212   1.839   3.029   8.391  0.2515  0.9650  0.2681
   64SAPC  H20R 5213   1.738   3.000   8.357  0.6809  3.6460 -4.0362
   64SAPC  H20S 5214   1.828   3.081   8.488  0.9626  0.2662  0.7316
   64SAPC  H20T 5215   1.901   2.938   8.401  0.2494  1.1645  2.6125
   64SAPC   C33 5216   1.648   2.698   7.090 -0.2508 -0.3236  0.4267
   64SAPC   H3X 5217   1.552   2.739   7.053  1.1961  1.5336 -1.4638
   64SAPC   H3Y 5218   1.701   2.781   7.142  2.3141  0.0217 -2.4443
   64SAPC   C34 5219   1.611   2.579   7.184 -0.0337  0.0503  0.3524
   64SAPC   H4X 5220   1.699   2.524   7.225 -1.6249 -0.4206  3.4180
   64SAPC   H4Y 5221   1.556   2.508   7.119 -0.4131  1.2621 -0.6918
   64SAPC   C35 5222   1.527   2.615   7.302  0.2931  0.7678  0.3368
   64SAPC   H5X 5223   1.513   2.519   7.355  1.5067  0.4504  0.1085
   64SAPC   H5Y 5224   1.421   2.635   7.274  0.3728  0.2419 -0.3620
   64SAPC   C36 5225   1.578   2.713   7.402  0.5449  0.8872  0.3224
   64SAPC   H6X 5226   1.593   2.819   7.375 -0.0756  1.4386  2.0491
   64SAPC   H6Y 5227   1.682   2.675   7.413 -0.0344 -0.9471 -0.0856
   64SAPC   C37 5228   1.498   2.705   7.534  0.2053 -0.2410  0.3942
   64SAPC   H7X 5229   1.503   2.598   7.563  0.2261 -0.7585 -1.4041
   64SAPC   H7Y 5230   1.394   2.736   7.509  0.7206  0.4374 -1.0062
   64SAPC   C38 5231   1.550   2.791   7.647 -0.1400 -0.0547 -1.1059
   64SAPC   H8X 5232   1.546   2.901   7.631 -1.5520  0.2075  0.6318
   64SAPC   H8Y 5233   1.656   2.769   7.671 -0.7634  0.0074  2.1593
   64SAPC   C39 5234   1.482   2.765   7.780  0.1210  0.2534  0.2167
   64SAPC   H9X 5235   1.503   2.656   7.787  3.7376  0.7175 -1.0171
   64SAPC   H9Y 5236   1.374   2.791   7.773 -0.2745 -1.6058 -1.2865
   64SAPC  C310 5237   1.551   2.831   7.894 -0.0840  0.0680  0.8370
   64SAPC  H10X 5238   1.532   2.940   7.886  0.2569  0.1316  0.8662
   64SAPC  H10Y 5239   1.659   2.824   7.871 -0.5038  0.2422 -1.3774
   64SAPC  C311 5240   1.509   2.776   8.033  0.1070  0.3535  0.3541
   64SAPC  H11X 5241   1.594   2.797   8.102 -0.3951  2.3638  0.4335
   64SAPC  H11Y 5242   1.501   2.666   8.029  0.6889  0.2698  1.1193
   64SAPC  C312 5243   1.375   2.823   8.081 -0.5739 -0.2303  0.0142
   64SAPC  H12X 5244   1.311   2.808   7.992  1.8708  0.2540 -1.9090
   64SAPC  H12Y 5245   1.382   2.933   8.099  2.4577 -0.4291  0.6261
   64SAPC  C313 5246   1.333   2.741   8.200  0.3947  0.8716  0.5870
   64SAPC  H13X 5247   1.323   2.633   8.177 -2.2275  1.1797 -0.0478
   64SAPC  H13Y 5248   1.232   2.777   8.228 -0.4874 -2.0110  1.4056
   64SAPC  C314 5249   1.420   2.757   8.327  0.0790 -0.2869  0.4473
   64SAPC  H14X 5250   1.428   2.865   8.354 -1.1156  0.2858 -1.3400
   64SAPC  H14Y 5251   1.526   2.726   8.311  0.6142  1.4846  0.2929
   64SAPC  C315 5252   1.359   2.695   8.455  0.1233  0.0345 -0.4393
   64SAPC  H15X 5253   1.367   2.587   8.431 -3.0964 -0.1250 -1.2973
   64SAPC  H15Y 5254   1.251   2.719   8.467 -0.1170 -1.1956  0.0201
   64SAPC  C316 5255   1.417   2.738   8.595 -0.2990  0.2827 -0.1258
   64SAPC  H16X 5256   1.415   2.849   8.593 -0.4842  0.2888  0.2456
   64SAPC  H16Y 5257   1.521   2.700   8.599 -0.1105  0.8628  0.8022
   64SAPC  C317 5258   1.329   2.678   8.712  0.1539  0.3367  0.8665
   64SAPC  H17X 5259   1.292   2.574   8.697 -1.7682  1.1110 -0.2342
   64SAPC  H17Y 5260   1.234   2.736   8.719 -0.5223 -0.4998 -0.7294
   64SAPC  C318 5261   1.403   2.674   8.843 -0.5647 -0.4353 -0.0433
   64SAPC  H18X 5262   1.495   2.613   8.831  1.5320  2.3122  0.8091
   64SAPC  H18Y 5263   1.341   2.622   8.918  1.4205  0.2644  2.2155
   64SAPC  H18Z 5264   1.427   2.776   8.880  0.5828 -0.4114 -0.7928
   65SAPC     N 5265   1.216   1.481   5.848 -0.1120  0.1456 -0.6455
   65SAPC   C12 5266   1.114   1.386   5.916 -0.2074  0.0918  0.3413
   65SAPC  H12A 5267   1.022   1.397   5.860  0.1867  0.0188 -0.3430
   65SAPC  H12B 5268   1.097   1.427   6.014 -2.0121  1.7656 -0.6027
   65SAPC   C13 5269   1.169   1.617   5.864  0.3716 -0.8913 -0.6500
   65SAPC  H13A 5270   1.240   1.692   5.830 -0.1727  0.0346  0.2273
   65SAPC  H13B 5271   1.076   1.633   5.812 -0.7459  0.0632  1.5173
   65SAPC  H13C 5272   1.153   1.635   5.969  1.8836 -1.0741 -0.3625
   65SAPC   C14 5273   1.358   1.462   5.887 -1.2855  0.2666  0.1527
   65SAPC  H14A 5274   1.418   1.523   5.822 -1.7424  0.6263  0.0600
   65SAPC  H14B 5275   1.367   1.490   5.991 -1.2866  2.2377 -0.3515
   65SAPC  H14C 5276   1.381   1.356   5.895 -0.4019  0.2844 -1.8021
   65SAPC   C15 5277   1.219   1.447   5.699  0.0054 -0.2188  0.1390
   65SAPC  H15A 5278   1.125   1.445   5.645 -0.9788  1.2961  1.7078
   65SAPC  H15B 5279   1.286   1.504   5.636  0.2437  0.1979  0.7649
   65SAPC  H15C 5280   1.268   1.352   5.686  1.6789  0.5410  0.6884
   65SAPC   C11 5281   1.142   1.230   5.923  0.5925  0.5855  0.1950
   65SAPC  H11A 5282   1.136   1.186   5.822  0.5006  3.6131 -1.2337
   65SAPC  H11B 5283   1.054   1.194   5.981  0.5303  0.1405 -0.1741
   65SAPC     P 5284   1.301   1.076   6.070  0.1111 -0.1202  0.1350
   65SAPC   O13 5285   1.184   1.045   6.151 -0.1284 -0.2540 -0.2318
   65SAPC   O14 5286   1.344   0.978   5.971  0.3240 -0.4752 -0.0335
   65SAPC   O12 5287   1.260   1.213   5.998 -0.0693  0.6078 -0.2675
   65SAPC   O11 5288   1.418   1.129   6.159  0.3578  0.0759  0.2184
   65SAPC    C1 5289   1.400   1.251   6.232  0.3853 -0.4215 -0.9364
   65SAPC    HA 5290   1.488   1.311   6.200 -1.2230  1.8021 -1.3924
   65SAPC    HB 5291   1.323   1.320   6.192  1.1918 -0.9897 -3.6385
   65SAPC    C2 5292   1.412   1.250   6.387 -0.0874 -0.0201  0.3797
   65SAPC    HS 5293   1.499   1.193   6.425  0.0771  0.1817  0.3091
   65SAPC   O21 5294   1.291   1.198   6.445  0.2752  0.7835  0.0806
   65SAPC   C21 5295   1.280   1.068   6.463 -0.2040 -0.0463  0.1211
   65SAPC   O22 5296   1.367   0.988   6.435 -0.2900  0.8246 -0.1451
   65SAPC   C22 5297   1.139   1.028   6.494  0.6687 -0.1130 -0.2796
   65SAPC   H2R 5298   1.086   1.111   6.546 -1.3743 -0.4718 -1.6987
   65SAPC   H2S 5299   1.086   0.998   6.402 -3.1024 -1.7251  2.1577
   65SAPC    C3 5300   1.432   1.395   6.438 -0.0331  0.0406  0.1682
   65SAPC    HX 5301   1.381   1.466   6.370 -0.1562  1.3220  1.5327
   65SAPC    HY 5302   1.541   1.415   6.429 -0.2326  0.7702 -0.7843
   65SAPC   O31 5303   1.388   1.414   6.572  0.2518  0.4426  0.7573
   65SAPC   C31 5304   1.267   1.459   6.587  1.2701  0.4431 -0.2573
   65SAPC   O32 5305   1.182   1.476   6.500  0.0119  0.1426 -0.1639
   65SAPC   C32 5306   1.239   1.475   6.740 -0.0645  0.0018  0.2800
   65SAPC   H2X 5307   1.130   1.495   6.737  0.0986  0.7360 -1.8479
   65SAPC   H2Y 5308   1.287   1.568   6.778 -1.7010  1.1283 -0.3116
   65SAPC   C23 5309   1.145   0.912   6.594  0.0319  0.3448  0.3724
   65SAPC   H3R 5310   1.205   0.936   6.685  3.3740 -1.0713 -1.2902
   65SAPC   H3S 5311   1.193   0.829   6.539 -2.4047 -0.9916  0.1315
   65SAPC   C24 5312   1.006   0.866   6.636 -1.0313 -0.0594 -0.2933
   65SAPC   H4R 5313   0.938   0.848   6.550 -0.6743  1.8230 -1.0089
   65SAPC   H4S 5314   0.949   0.934   6.703  0.3094 -0.2185  1.0568
   65SAPC   C25 5315   1.030   0.737   6.703 -0.3996 -0.4695 -0.1171
   65SAPC   H5R 5316   1.020   0.647   6.640 -0.6461 -0.5638  0.0546
   65SAPC   C26 5317   1.042   0.716   6.837 -0.0133 -0.4392 -0.7407
   65SAPC   H6R 5318   1.059   0.610   6.864  0.5475 -0.3492 -0.7232
   65SAPC   C27 5319   1.045   0.834   6.940 -0.3459 -0.3057  0.3958
   65SAPC   H7R 5320   0.939   0.852   6.968 -1.1959 -0.6170 -2.3615
   65SAPC   H7S 5321   1.091   0.929   6.904 -1.2835 -0.1647 -0.4856
   65SAPC   C28 5322   1.124   0.795   7.060 -0.3318  0.4778  0.5303
   65SAPC   H8R 5323   1.233   0.798   7.049 -0.2342 -0.6495  1.0636
   65SAPC   C29 5324   1.081   0.732   7.169 -0.7793  0.0198 -0.3437
   65SAPC   H9R 5325   1.151   0.709   7.250  0.5717  0.6161 -1.3067
   65SAPC  C210 5326   0.942   0.688   7.201  0.3761 -0.7040 -0.2391
   65SAPC  H10R 5327   0.878   0.670   7.112 -0.9717 -1.0607  0.7698
   65SAPC  H10S 5328   0.896   0.770   7.260  1.6504  1.2300 -1.7968
   65SAPC  C211 5329   0.940   0.562   7.279  0.5582 -0.2821 -0.5633
   65SAPC  H11R 5330   0.940   0.472   7.216 -0.4390 -0.0037 -0.9800
   65SAPC  C212 5331   0.922   0.547   7.413  0.1545  0.3125  0.5329
   65SAPC  H12R 5332   0.908   0.442   7.442 -1.2337 -0.8775 -3.6475
   65SAPC  C213 5333   0.909   0.650   7.520 -0.1699  0.6350  0.5318
   65SAPC  H13R 5334   0.803   0.640   7.554 -0.3194 -1.0663 -0.3387
   65SAPC  H13S 5335   0.920   0.752   7.477 -2.5527  1.0507  0.7460
   65SAPC  C214 5336   0.999   0.633   7.636  0.7599  0.5855 -0.3864
   65SAPC  H14R 5337   1.103   0.618   7.603 -0.0227  0.6278 -3.1343
   65SAPC  C215 5338   0.963   0.627   7.758 -0.0938 -0.1088 -0.6806
   65SAPC  H15R 5339   1.035   0.621   7.841 -0.9225  1.8772  0.2339
   65SAPC  C216 5340   0.820   0.649   7.808  0.0894  0.3292  0.1605
   65SAPC  H16R 5341   0.793   0.553   7.856 -0.3596 -1.2872 -3.0672
   65SAPC  H16S 5342   0.740   0.649   7.731  0.4181 -0.4855 -0.1905
   65SAPC  C217 5343   0.795   0.768   7.905 -0.0340  0.0989  0.7849
   65SAPC  H17R 5344   0.687   0.760   7.928 -0.1378  1.8051  0.9963
   65SAPC  H17S 5345   0.798   0.862   7.845  2.9585 -0.1582  0.3540
   65SAPC  C218 5346   0.885   0.775   8.029 -0.4903  0.3266  0.4815
   65SAPC  H18R 5347   0.991   0.748   8.007 -0.1100  1.3959  0.9390
   65SAPC  H18S 5348   0.849   0.698   8.100 -1.0308 -0.8846 -1.0413
   65SAPC  C219 5349   0.892   0.921   8.086  0.3595 -0.1482 -0.6433
   65SAPC  H19R 5350   0.798   0.946   8.139  0.2997 -0.3066 -0.6742
   65SAPC  H19S 5351   0.918   0.993   8.006  1.6392  1.6158  1.2640
   65SAPC  C220 5352   1.008   0.933   8.183 -0.1475 -0.4971 -0.6412
   65SAPC  H20R 5353   1.032   1.041   8.195  0.1244 -0.7217  1.0285
   65SAPC  H20S 5354   1.100   0.886   8.142 -0.2670  0.2751 -1.8718
   65SAPC  H20T 5355   0.986   0.899   8.286 -2.2780  2.8236  0.1846
   65SAPC   C33 5356   1.280   1.357   6.831 -0.1848 -0.1447 -0.4546
   65SAPC   H3X 5357   1.382   1.329   6.798  0.1848  0.8162 -0.1505
   65SAPC   H3Y 5358   1.202   1.280   6.814 -2.3120  1.9188 -0.5046
   65SAPC   C34 5359   1.275   1.387   6.977 -0.1492  0.0826  0.2636
   65SAPC   H4X 5360   1.180   1.444   6.992  1.6441  3.7222 -1.0850
   65SAPC   H4Y 5361   1.361   1.454   6.999  1.1423 -0.1136 -3.4924
   65SAPC   C35 5362   1.282   1.268   7.077  0.4180 -0.0048  0.1287
   65SAPC   H5X 5363   1.383   1.222   7.069 -0.3266 -2.2360  2.3244
   65SAPC   H5Y 5364   1.204   1.191   7.059  2.2932 -2.2188  0.9218
   65SAPC   C36 5365   1.264   1.320   7.217 -0.1904 -0.0069 -0.4098
   65SAPC   H6X 5366   1.182   1.394   7.231  0.9020  1.1048  0.3304
   65SAPC   H6Y 5367   1.354   1.382   7.233  0.4837 -1.0944  0.0736
   65SAPC   C37 5368   1.261   1.211   7.319 -0.1753 -0.1282 -0.2525
   65SAPC   H7X 5369   1.351   1.146   7.308 -1.2434 -1.4297 -1.7696
   65SAPC   H7Y 5370   1.178   1.151   7.277 -1.0002  0.8435 -0.0489
   65SAPC   C38 5371   1.245   1.239   7.464 -0.8148 -0.6294 -0.1394
   65SAPC   H8X 5372   1.158   1.305   7.481  0.4913  1.3044 -0.6420
   65SAPC   H8Y 5373   1.333   1.286   7.513 -1.6902  2.6476 -1.4714
   65SAPC   C39 5374   1.230   1.115   7.560  0.2029 -0.0775  0.2610
   65SAPC   H9X 5375   1.307   1.044   7.523 -3.6819 -3.1116 -2.9929
   65SAPC   H9Y 5376   1.143   1.052   7.532  0.9106 -0.2415 -1.6764
   65SAPC  C310 5377   1.227   1.137   7.719 -0.5063 -0.3698 -0.3936
   65SAPC  H10X 5378   1.332   1.167   7.742 -0.3291 -0.3917 -1.1595
   65SAPC  H10Y 5379   1.213   1.037   7.764 -0.1309 -1.2091 -2.0655
   65SAPC  C311 5380   1.131   1.246   7.772  0.1287  0.0535  0.3537
   65SAPC  H11X 5381   1.033   1.242   7.719  0.0736 -0.3889  0.4893
   65SAPC  H11Y 5382   1.185   1.340   7.747 -0.2975  0.0026 -0.8281
   65SAPC  C312 5383   1.099   1.243   7.928 -1.0072 -0.6030 -0.2823
   65SAPC  H12X 5384   1.057   1.144   7.957 -1.4919 -0.1917  0.4385
   65SAPC  H12Y 5385   1.033   1.325   7.962  1.3012  0.9174  0.8155
   65SAPC  C313 5386   1.230   1.292   7.997  0.4475  0.2699  0.2123
   65SAPC  H13X 5387   1.257   1.395   7.963 -1.0073  0.1154 -1.5886
   65SAPC  H13Y 5388   1.321   1.232   7.975  0.2758 -0.3607  1.1699
   65SAPC  C314 5389   1.210   1.288   8.158 -1.5162 -1.0707 -0.1340
   65SAPC  H14X 5390   1.104   1.292   8.190 -1.4071  2.6256  0.2741
   65SAPC  H14Y 5391   1.251   1.387   8.190 -1.7890 -1.4343  1.3877
   65SAPC  C315 5392   1.308   1.190   8.222  0.2489  0.1207 -0.4467
   65SAPC  H15X 5393   1.413   1.218   8.199 -0.3777  1.8408 -1.3549
   65SAPC  H15Y 5394   1.288   1.085   8.191  0.3069 -0.4979  1.5061
   65SAPC  C316 5395   1.301   1.205   8.376  0.0976  0.3891 -0.5094
   65SAPC  H16X 5396   1.202   1.168   8.411 -1.1210  2.6740 -1.2812
   65SAPC  H16Y 5397   1.311   1.312   8.403  0.4061  0.5094 -1.0781
   65SAPC  C317 5398   1.414   1.127   8.457 -0.5566  0.8339 -0.3657
   65SAPC  H17X 5399   1.369   1.119   8.558 -2.1116 -0.4859 -1.1309
   65SAPC  H17Y 5400   1.513   1.178   8.464 -0.3339  0.3496  0.1325
   65SAPC  C318 5401   1.439   0.991   8.402 -0.2162 -0.6501 -0.2336
   65SAPC  H18X 5402   1.524   0.932   8.441  1.7789 -0.5081 -3.9121
   65SAPC  H18Y 5403   1.460   0.990   8.293  1.7874 -2.7186  0.0883
   65SAPC  H18Z 5404   1.355   0.927   8.436  0.9028 -0.7769  2.5580
   66SAPC     N 5405   0.344   0.744   5.965  0.7578  0.7277 -0.4063
   66SAPC   C12 5406   0.387   0.789   6.100  0.2139 -0.4873 -0.5351
   66SAPC  H12A 5407   0.429   0.705   6.154  1.6076  0.8009  0.4650
   66SAPC  H12B 5408   0.292   0.810   6.148  0.3320 -1.6840  0.2729
   66SAPC   C13 5409   0.281   0.608   5.969  0.7517 -0.2432 -0.1858
   66SAPC  H13A 5410   0.250   0.570   5.873  0.5933  3.5334 -1.7942
   66SAPC  H13B 5411   0.343   0.528   6.005 -0.9107 -1.7484 -0.5348
   66SAPC  H13C 5412   0.188   0.604   6.025  0.5276 -1.3830 -0.6164
   66SAPC   C14 5413   0.240   0.837   5.905 -0.6516  0.7248 -0.1261
   66SAPC  H14A 5414   0.236   0.827   5.797  0.1684  0.4675 -0.1405
   66SAPC  H14B 5415   0.139   0.809   5.930 -0.4177  1.1266  1.3431
   66SAPC  H14C 5416   0.269   0.939   5.927  2.6468 -0.0363 -0.4218
   66SAPC   C15 5417   0.467   0.741   5.876 -0.5713 -0.6678  0.3653
   66SAPC  H15A 5418   0.500   0.844   5.872 -1.1560 -0.4265  1.3402
   66SAPC  H15B 5419   0.554   0.698   5.923  0.4499  1.1022  0.1938
   66SAPC  H15C 5420   0.452   0.698   5.778  1.8759 -1.9840  0.4966
   66SAPC   C11 5421   0.481   0.913   6.109  0.4964 -0.6536 -0.2249
   66SAPC  H11A 5422   0.575   0.881   6.059 -0.7262 -0.5153 -2.7861
   66SAPC  H11B 5423   0.499   0.929   6.218 -1.5926 -2.9765  0.5722
   66SAPC     P 5424   0.441   1.175   6.088  0.1085 -0.7528  0.4122
   66SAPC   O13 5425   0.587   1.185   6.113 -0.3719  0.3984 -0.6388
   66SAPC   O14 5426   0.390   1.251   5.978 -0.3093 -0.4560  0.2911
   66SAPC   O12 5427   0.410   1.027   6.052 -0.1824 -0.0213 -0.1710
   66SAPC   O11 5428   0.358   1.214   6.208  0.5327  0.7541 -0.8949
   66SAPC    C1 5429   0.246   1.150   6.266  0.6715 -0.0973  0.0285
   66SAPC    HA 5430   0.155   1.212   6.257 -0.8196 -2.2970 -1.0774
   66SAPC    HB 5431   0.224   1.054   6.215 -1.1209  0.2726  0.0559
   66SAPC    C2 5432   0.274   1.112   6.416 -0.0317  0.0764 -0.6777
   66SAPC    HS 5433   0.292   1.208   6.467 -0.8196 -0.9275  1.6259
   66SAPC   O21 5434   0.391   1.030   6.424  0.1703  0.2983  0.1551
   66SAPC   C21 5435   0.457   1.039   6.541 -0.7058 -0.2243  0.0942
   66SAPC   O22 5436   0.430   1.120   6.634 -0.7369 -0.5714 -0.0366
   66SAPC   C22 5437   0.565   0.930   6.544  0.4395 -0.0053 -0.0302
   66SAPC   H2R 5438   0.536   0.841   6.484  1.6617 -0.5014  0.0702
   66SAPC   H2S 5439   0.641   0.982   6.481  0.5757 -1.0565 -0.7595
   66SAPC    C3 5440   0.157   1.035   6.482  0.6198  0.0048 -0.1273
   66SAPC    HX 5441   0.162   0.936   6.432  1.3777 -0.9371  1.7478
   66SAPC    HY 5442   0.056   1.074   6.455  0.6325 -0.0764 -0.2958
   66SAPC   O31 5443   0.165   1.012   6.622 -0.0990  0.5678 -0.2260
   66SAPC   C31 5444   0.137   1.118   6.702 -0.6471  0.3910 -0.1842
   66SAPC   O32 5445   0.089   1.223   6.666  0.5073  0.9531 -0.1663
   66SAPC   C32 5446   0.182   1.088   6.842  0.2505 -0.5861 -0.4090
   66SAPC   H2X 5447   0.273   1.144   6.872 -0.2580 -0.5210  1.1220
   66SAPC   H2Y 5448   0.213   0.981   6.853 -1.9048 -1.4162 -1.8813
   66SAPC   C23 5449   0.628   0.899   6.683  0.3863 -0.2334 -0.0998
   66SAPC   H3R 5450   0.626   0.992   6.745 -4.6801  0.2633 -0.5255
   66SAPC   H3S 5451   0.734   0.874   6.665  0.2663  1.1694 -3.5031
   66SAPC   C24 5452   0.541   0.804   6.763 -1.0284 -0.1138 -0.6076
   66SAPC   H4R 5453   0.529   0.705   6.715  0.9002 -1.1877  1.0149
   66SAPC   H4S 5454   0.446   0.861   6.771  0.2626  2.3575 -1.5125
   66SAPC   C25 5455   0.605   0.761   6.891 -0.0678  0.2789 -0.3641
   66SAPC   H5R 5456   0.708   0.727   6.869 -0.2506  1.1074 -2.8664
   66SAPC   C26 5457   0.561   0.782   7.015  0.4760  0.1531  0.7200
   66SAPC   H6R 5458   0.627   0.751   7.097  3.9363  1.4579 -1.3878
   66SAPC   C27 5459   0.440   0.852   7.058  0.3367 -0.0702 -0.8924
   66SAPC   H7R 5460   0.379   0.768   7.097 -0.8991  1.1977 -0.0059
   66SAPC   H7S 5461   0.382   0.884   6.969 -3.4625  0.3168  1.5274
   66SAPC   C28 5462   0.459   0.956   7.166  0.1347 -0.3804 -0.3799
   66SAPC   H8R 5463   0.467   1.058   7.124  0.2687 -0.3246 -0.2202
   66SAPC   C29 5464   0.476   0.941   7.298  1.0113  0.3586 -0.2084
   66SAPC   H9R 5465   0.489   1.035   7.354  0.2822  0.5000 -0.2741
   66SAPC  C210 5466   0.466   0.809   7.369 -0.0204  0.5100  0.9996
   66SAPC  H10R 5467   0.550   0.790   7.439  1.2980  0.5119 -0.5423
   66SAPC  H10S 5468   0.472   0.725   7.297 -0.9646  0.1157  1.3623
   66SAPC  C211 5469   0.323   0.799   7.437  0.1192  0.4053 -0.8332
   66SAPC  H11R 5470   0.230   0.786   7.380 -0.4018 -2.2980  0.5098
   66SAPC  C212 5471   0.303   0.785   7.569  0.4629 -0.2226  0.1554
   66SAPC  H12R 5472   0.200   0.770   7.604 -1.5868  1.0691 -4.5129
   66SAPC  C213 5473   0.390   0.788   7.687 -0.5589  0.8468 -0.6538
   66SAPC  H13R 5474   0.495   0.767   7.656 -0.6470 -0.9337  0.1307
   66SAPC  H13S 5475   0.362   0.721   7.771 -0.5440 -1.9390 -2.7229
   66SAPC  C214 5476   0.397   0.928   7.745  0.3049 -0.0078 -0.3735
   66SAPC  H14R 5477   0.413   1.010   7.672  3.5734  0.3021  0.5239
   66SAPC  C215 5478   0.394   0.953   7.875 -0.5701 -0.6001 -0.2834
   66SAPC  H15R 5479   0.394   1.060   7.901 -0.5341 -1.0397  1.6085
   66SAPC  C216 5480   0.388   0.863   7.995 -0.6373  0.0181 -0.8134
   66SAPC  H16R 5481   0.435   0.765   7.968  2.1417  1.3302 -1.1482
   66SAPC  H16S 5482   0.283   0.851   8.028 -0.3910 -0.0359 -0.0499
   66SAPC  C217 5483   0.474   0.932   8.108  0.1197 -0.2320  0.9405
   66SAPC  H17R 5484   0.434   1.032   8.133  1.9105  0.5822  0.7448
   66SAPC  H17S 5485   0.582   0.929   8.080 -0.3988  0.3166 -1.3250
   66SAPC  C218 5486   0.453   0.870   8.240  0.9185  0.3510  0.1277
   66SAPC  H18R 5487   0.513   0.776   8.244 -0.8919 -0.8846 -0.4902
   66SAPC  H18S 5488   0.346   0.844   8.255  0.7292  0.7115 -0.5782
   66SAPC  C219 5489   0.486   0.958   8.354 -0.1875 -0.0255 -0.7210
   66SAPC  H19R 5490   0.408   1.036   8.366 -1.0074 -0.8448 -0.6410
   66SAPC  H19S 5491   0.589   0.996   8.338  0.4901 -0.2927  2.4129
   66SAPC  C220 5492   0.484   0.880   8.495  0.7383  0.4629  0.5696
   66SAPC  H20R 5493   0.385   0.832   8.512 -0.0420 -0.2305 -4.4054
   66SAPC  H20S 5494   0.501   0.959   8.572 -0.1741 -0.2473  1.5283
   66SAPC  H20T 5495   0.562   0.802   8.494 -0.9191 -1.3143  1.9729
   66SAPC   C33 5496   0.067   1.117   6.943 -0.4105 -0.0926 -0.3423
   66SAPC   H3X 5497  -0.025   1.065   6.907 -1.2405 -1.2583  3.0980
   66SAPC   H3Y 5498   0.044   1.225   6.954 -0.8854 -0.4122  2.2359
   66SAPC   C34 5499   0.090   1.058   7.079  0.0917 -0.6422 -0.3201
   66SAPC   H4X 5500   0.185   1.090   7.127 -0.9631  3.1379 -0.4668
   66SAPC   H4Y 5501   0.100   0.947   7.078  1.2105 -0.5639  0.1856
   66SAPC   C35 5502  -0.022   1.104   7.178 -0.5063  0.2737 -0.4585
   66SAPC   H5X 5503  -0.124   1.095   7.136 -1.0533  0.6892  0.7456
   66SAPC   H5Y 5504  -0.007   1.213   7.194  1.3265 -0.2307  1.9491
   66SAPC   C36 5505  -0.011   1.032   7.308  0.2835  0.2064  0.8645
   66SAPC   H6X 5506   0.094   1.030   7.345  1.0675 -2.0372 -1.1938
   66SAPC   H6Y 5507  -0.037   0.924   7.300  0.3742  0.2381  0.0282
   66SAPC   C37 5508  -0.099   1.095   7.417 -0.2484  0.2275  0.6101
   66SAPC   H7X 5509  -0.207   1.074   7.399  0.0270 -1.2665  0.6072
   66SAPC   H7Y 5510  -0.080   1.204   7.427  0.4986  0.0345  1.3618
   66SAPC   C38 5511  -0.056   1.023   7.543  0.0760 -0.3122  0.8482
   66SAPC   H8X 5512   0.054   1.028   7.552  0.5469 -0.1921 -3.3325
   66SAPC   H8Y 5513  -0.078   0.915   7.528 -1.2419  0.0880 -0.2577
   66SAPC   C39 5514  -0.111   1.070   7.680 -0.0182  0.4781  0.0552
   66SAPC   H9X 5515  -0.215   1.030   7.689 -0.2686  0.6893 -1.5617
   66SAPC   H9Y 5516  -0.121   1.181   7.677 -1.4109  0.3851  0.3509
   66SAPC  C310 5517  -0.018   1.018   7.794  0.3394 -0.0199  0.1801
   66SAPC  H10X 5518   0.066   1.089   7.786  0.3612 -0.1427 -0.8692
   66SAPC  H10Y 5519   0.014   0.913   7.776  0.9194 -0.0091  1.0887
   66SAPC  C311 5520  -0.085   1.040   7.932 -0.1998  0.3166  0.2190
   66SAPC  H11X 5521  -0.183   0.989   7.943 -0.6428  1.0701 -0.1137
   66SAPC  H11Y 5522  -0.099   1.145   7.965 -1.9320  0.2357 -0.2027
   66SAPC  C312 5523   0.004   0.968   8.034 -0.1675  0.5296  0.0646
   66SAPC  H12X 5524   0.109   1.003   8.029 -0.1127  0.2575 -0.7758
   66SAPC  H12Y 5525   0.005   0.858   8.020  1.4965  0.4373  0.6622
   66SAPC  C313 5526  -0.057   0.984   8.171  0.1097  0.2220  1.0032
   66SAPC  H13X 5527  -0.134   0.904   8.170  1.2647 -1.0273 -2.3848
   66SAPC  H13Y 5528  -0.101   1.083   8.197 -2.0383 -0.4151  0.0131
   66SAPC  C314 5529   0.056   0.955   8.275  0.7020 -0.2343  0.2369
   66SAPC  H14X 5530   0.151   1.010   8.254  0.9554 -0.6044  0.3893
   66SAPC  H14Y 5531   0.084   0.848   8.261 -2.7545 -1.4547  1.6254
   66SAPC  C315 5532   0.018   0.974   8.424 -0.2670 -0.5919  0.7156
   66SAPC  H15X 5533  -0.064   0.906   8.455 -0.2840  0.3149  2.8433
   66SAPC  H15Y 5534  -0.000   1.083   8.433  0.0509 -0.2903 -1.6820
   66SAPC  C316 5535   0.140   0.937   8.511 -0.7264  0.1581 -0.0359
   66SAPC  H16X 5536   0.220   1.012   8.493 -0.0836 -0.6143 -0.4460
   66SAPC  H16Y 5537   0.170   0.831   8.496 -1.8405 -0.1026 -0.5298
   66SAPC  C317 5538   0.124   0.949   8.669  0.1399 -0.9020  0.8093
   66SAPC  H17X 5539   0.068   1.044   8.679  0.1863 -0.7043 -0.6389
   66SAPC  H17Y 5540   0.221   0.954   8.722  0.6470 -3.1023  0.2248
   66SAPC  C318 5541   0.047   0.839   8.742 -0.6980  0.2422 -0.2023
   66SAPC  H18X 5542   0.089   0.741   8.711 -1.1988 -0.3374  0.8861
   66SAPC  H18Y 5543  -0.059   0.831   8.708  0.0372 -1.4939 -2.2964
   66SAPC  H18Z 5544   0.045   0.858   8.852  0.2628 -1.5427  0.1666
   67SAPC     N 5545   3.045   5.241   6.273  0.1902  1.1002  0.4988
   67SAPC   C12 5546   3.038   5.220   6.427  0.3042 -0.3656  0.6469
   67SAPC  H12A 5547   2.940   5.248   6.465  0.4319  1.8768 -0.5148
   67SAPC  H12B 5548   3.103   5.291   6.477 -0.1994 -0.9380  2.1933
   67SAPC   C13 5549   2.930   5.164   6.219  0.4357  1.0061  0.6102
   67SAPC  H13A 5550   2.941   5.154   6.112 -0.1240  0.8951  0.5605
   67SAPC  H13B 5551   2.921   5.062   6.252 -1.1335  0.6050 -0.8790
   67SAPC  H13C 5552   2.837   5.208   6.253 -1.7888 -2.4912 -0.4189
   67SAPC   C14 5553   3.027   5.394   6.247 -0.3431 -0.0623 -0.6653
   67SAPC  H14A 5554   2.952   5.430   6.316  0.7316  0.2135  0.3698
   67SAPC  H14B 5555   3.123   5.439   6.261  0.3428 -0.7035 -2.9169
   67SAPC  H14C 5556   3.004   5.417   6.144 -0.8385 -0.8641 -0.7425
   67SAPC   C15 5557   3.177   5.212   6.212 -0.2623 -0.2426  0.1338
   67SAPC  H15A 5558   3.169   5.226   6.105  2.4981 -0.6254 -0.1988
   67SAPC  H15B 5559   3.251   5.283   6.245  3.1807 -2.0587 -2.9648
   67SAPC  H15C 5560   3.213   5.111   6.225  2.3916  0.0350 -3.4798
   67SAPC   C11 5561   3.067   5.083   6.481  0.1004  0.1814 -0.3350
   67SAPC  H11A 5562   3.068   5.095   6.592 -2.4492 -0.8756 -0.1229
   67SAPC  H11B 5563   3.165   5.052   6.440 -0.9923 -1.6894 -1.6553
   67SAPC     P 5564   2.964   4.841   6.477 -0.3204  0.0938 -0.0461
   67SAPC   O13 5565   2.860   4.777   6.390 -0.5095 -0.5114  0.5261
   67SAPC   O14 5566   3.103   4.799   6.446 -0.3491 -0.5871  0.5860
   67SAPC   O12 5567   2.955   4.998   6.452 -0.3671 -0.6218 -0.0294
   67SAPC   O11 5568   2.925   4.797   6.626 -0.6885 -0.4540  0.0842
   67SAPC    C1 5569   2.822   4.882   6.678  0.0141 -0.3443  0.4826
   67SAPC    HA 5570   2.843   4.991   6.677 -0.9704 -0.0989  2.5777
   67SAPC    HB 5571   2.719   4.850   6.652 -0.9197  2.3142  0.6469
   67SAPC    C2 5572   2.842   4.867   6.826 -0.1488  0.4582 -0.2337
   67SAPC    HS 5573   2.798   4.768   6.847 -2.7629  1.7191  0.6521
   67SAPC   O21 5574   2.761   4.965   6.892 -0.2738 -0.0525  0.1082
   67SAPC   C21 5575   2.630   4.943   6.894 -0.3107  0.6761 -0.3784
   67SAPC   O22 5576   2.579   4.835   6.859 -0.2625 -0.0432 -0.2014
   67SAPC   C22 5577   2.566   5.062   6.953  0.9537 -0.4250  0.8834
   67SAPC   H2R 5578   2.624   5.156   6.949 -0.3702  0.3736 -0.9657
   67SAPC   H2S 5579   2.478   5.086   6.891  1.2545 -0.2554  0.5164
   67SAPC    C3 5580   2.991   4.874   6.874 -0.4738 -0.1080 -0.8307
   67SAPC    HX 5581   3.031   4.971   6.836 -0.6461  0.7187  0.9896
   67SAPC    HY 5582   3.040   4.784   6.832  0.9738 -0.4155  1.3027
   67SAPC   O31 5583   2.998   4.855   7.015  0.0186 -0.0561 -0.0895
   67SAPC   C31 5584   3.110   4.913   7.059  0.4415  0.3397  0.6102
   67SAPC   O32 5585   3.201   4.953   6.988  0.1495 -0.0720  0.3144
   67SAPC   C32 5586   3.116   4.906   7.209 -0.0375  0.2957  0.4456
   67SAPC   H2X 5587   3.089   4.800   7.224  0.4750  0.4163  2.6581
   67SAPC   H2Y 5588   3.037   4.974   7.248  0.2064  0.2408  1.0497
   67SAPC   C23 5589   2.488   5.037   7.090 -0.7044  0.2093  1.0173
   67SAPC   H3R 5590   2.425   4.948   7.072 -0.8628  0.7517 -1.3826
   67SAPC   H3S 5591   2.417   5.121   7.103  1.1174  2.2636 -1.3188
   67SAPC   C24 5592   2.586   5.044   7.206  0.1368  0.5144 -0.6656
   67SAPC   H4R 5593   2.601   5.147   7.246  0.0628 -0.4123  1.9780
   67SAPC   H4S 5594   2.683   5.008   7.168  0.5639 -0.0986  0.9185
   67SAPC   C25 5595   2.532   4.953   7.317  0.3629 -1.1520  0.7372
   67SAPC   H5R 5596   2.423   4.943   7.318  0.1981  0.3868  0.4570
   67SAPC   C26 5597   2.601   4.886   7.413  0.1184 -0.1044 -0.0547
   67SAPC   H6R 5598   2.540   4.810   7.464  1.0704 -0.4796  0.5510
   67SAPC   C27 5599   2.752   4.887   7.425 -0.0056  0.3294  0.4663
   67SAPC   H7R 5600   2.782   4.981   7.476  0.9429 -0.3549  1.1997
   67SAPC   H7S 5601   2.797   4.894   7.324 -2.6417 -0.9842 -0.9088
   67SAPC   C28 5602   2.815   4.774   7.496  0.0367  0.2678  0.3450
   67SAPC   H8R 5603   2.868   4.706   7.429 -0.1439  1.3551 -0.9352
   67SAPC   C29 5604   2.829   4.747   7.629 -0.3519  0.5075 -0.0152
   67SAPC   H9R 5605   2.892   4.662   7.659 -2.6059 -1.9294 -1.7528
   67SAPC  C210 5606   2.771   4.814   7.748 -0.0365 -0.6028 -0.8296
   67SAPC  H10R 5607   2.732   4.912   7.715 -1.5750 -1.2355 -0.9928
   67SAPC  H10S 5608   2.854   4.825   7.821 -0.8713  0.0625  0.0545
   67SAPC  C211 5609   2.656   4.739   7.817  0.2831  0.4291  0.5731
   67SAPC  H11R 5610   2.587   4.705   7.739 -1.2174  1.6486  1.3159
   67SAPC  C212 5611   2.651   4.711   7.952  0.4691  0.6524  0.0541
   67SAPC  H12R 5612   2.575   4.636   7.978 -0.7128  0.3544 -3.5668
   67SAPC  C213 5613   2.753   4.755   8.056  0.5742  0.1584  0.6823
   67SAPC  H13R 5614   2.716   4.855   8.088  0.6561  0.3759  0.1095
   67SAPC  H13S 5615   2.853   4.774   8.012  0.0373 -0.5430 -0.9462
   67SAPC  C214 5616   2.778   4.650   8.160 -0.4193  0.2742  0.1685
   67SAPC  H14R 5617   2.824   4.558   8.122  0.1363  0.5269  0.2304
   67SAPC  C215 5618   2.764   4.670   8.295 -0.8239 -0.0520 -0.5962
   67SAPC  H15R 5619   2.762   4.586   8.367  1.2246 -1.0387 -1.6171
   67SAPC  C216 5620   2.713   4.790   8.364  0.7943  0.3574  0.0962
   67SAPC  H16R 5621   2.638   4.762   8.441 -1.7237  1.6031 -1.7642
   67SAPC  H16S 5622   2.655   4.848   8.289  0.1595 -1.5709 -0.9594
   67SAPC  C217 5623   2.826   4.877   8.410  0.2753 -0.7705 -0.2547
   67SAPC  H17R 5624   2.908   4.887   8.336 -0.1849 -0.2087 -0.6913
   67SAPC  H17S 5625   2.877   4.830   8.497 -0.9049  2.1392  2.1833
   67SAPC  C218 5626   2.785   5.021   8.447 -0.5891  0.2225 -0.5678
   67SAPC  H18R 5627   2.702   5.029   8.519  1.5451  1.0160  1.9773
   67SAPC  H18S 5628   2.759   5.091   8.364 -0.9956 -0.1822 -0.7836
   67SAPC  C219 5629   2.903   5.088   8.524  0.0842 -0.0224  0.7709
   67SAPC  H19R 5630   2.995   5.108   8.466 -0.6083 -0.5080 -0.5213
   67SAPC  H19S 5631   2.935   5.018   8.604  1.6535 -1.0176 -0.6555
   67SAPC  C220 5632   2.862   5.224   8.586  0.8689 -0.0632 -0.3048
   67SAPC  H20R 5633   2.954   5.262   8.635 -0.2430  0.7634  1.2088
   67SAPC  H20S 5634   2.783   5.221   8.664 -0.1149  1.0800 -1.2344
   67SAPC  H20T 5635   2.840   5.298   8.507 -0.8138  1.2394  1.3239
   67SAPC   C33 5636   3.250   4.934   7.273  0.3586 -0.3438 -0.2162
   67SAPC   H3X 5637   3.269   5.043   7.265 -0.5280 -0.3000 -2.5069
   67SAPC   H3Y 5638   3.333   4.883   7.219 -0.2286  0.0216 -1.5177
   67SAPC   C34 5639   3.264   4.904   7.429  0.2303 -0.6760 -0.1139
   67SAPC   H4X 5640   3.370   4.926   7.450  0.1138  0.7219 -0.8720
   67SAPC   H4Y 5641   3.244   4.796   7.448 -2.4072 -0.3988 -0.8661
   67SAPC   C35 5642   3.174   4.989   7.526  0.4367 -0.1566 -0.6030
   67SAPC   H5X 5643   3.070   4.954   7.509  0.1732  1.9243 -4.3456
   67SAPC   H5Y 5644   3.183   5.097   7.501  2.0163 -0.2628 -0.6048
   67SAPC   C36 5645   3.195   4.974   7.677 -0.8803 -0.4115 -0.0461
   67SAPC   H6X 5646   3.303   4.988   7.702 -1.6196  0.8026  2.9610
   67SAPC   H6Y 5647   3.186   4.868   7.709  0.4777 -0.7065 -0.5880
   67SAPC   C37 5648   3.127   5.074   7.771 -0.0325  0.0601  0.3562
   67SAPC   H7X 5649   3.018   5.055   7.761  0.0173 -1.2181  1.7542
   67SAPC   H7Y 5650   3.148   5.177   7.738  1.1926 -0.2006  0.2756
   67SAPC   C38 5651   3.168   5.064   7.917 -0.6994  0.1861 -0.4686
   67SAPC   H8X 5652   3.276   5.068   7.943 -1.0069 -1.3840  1.2592
   67SAPC   H8Y 5653   3.128   4.972   7.963 -0.2260  0.5671  0.7481
   67SAPC   C39 5654   3.081   5.175   7.987  0.6587  0.5388  0.0031
   67SAPC   H9X 5655   2.981   5.169   7.939  0.3767  2.2278  0.3149
   67SAPC   H9Y 5656   3.111   5.281   7.970 -1.2199  0.7902 -2.3040
   67SAPC  C310 5657   3.063   5.133   8.135 -0.0627  0.0032 -1.0331
   67SAPC  H10X 5658   3.041   5.025   8.151  0.8705 -0.2134 -1.1700
   67SAPC  H10Y 5659   2.967   5.177   8.169  0.5824  2.9210 -2.7021
   67SAPC  C311 5660   3.174   5.181   8.233 -0.1015  0.5184 -0.8728
   67SAPC  H11X 5661   3.269   5.141   8.192 -1.4373 -1.4178 -2.3186
   67SAPC  H11Y 5662   3.159   5.135   8.333  1.5044 -0.3137 -0.9831
   67SAPC  C312 5663   3.168   5.329   8.251  0.0725  0.2008  0.9975
   67SAPC  H12X 5664   3.063   5.362   8.263 -1.3917 -2.8420 -1.7662
   67SAPC  H12Y 5665   3.202   5.378   8.157  1.1351 -3.1243 -0.5020
   67SAPC  C313 5666   3.255   5.386   8.366  0.4143 -0.2561  0.3930
   67SAPC  H13X 5667   3.257   5.495   8.341  0.6288 -0.0354  1.3022
   67SAPC  H13Y 5668   3.354   5.337   8.358 -0.0851 -0.9910 -1.8432
   67SAPC  C314 5669   3.195   5.377   8.505  0.1885  0.1288 -0.2497
   67SAPC  H14X 5670   3.201   5.272   8.541  1.3312  0.8971  1.9529
   67SAPC  H14Y 5671   3.085   5.387   8.490  0.3659  0.9350 -1.1729
   67SAPC  C315 5672   3.252   5.464   8.620  0.0374  0.5903  0.4586
   67SAPC  H15X 5673   3.236   5.566   8.580  1.8637  1.7250  2.4289
   67SAPC  H15Y 5674   3.361   5.446   8.632  0.5507  1.8120 -1.8192
   67SAPC  C316 5675   3.179   5.435   8.756 -0.1051  0.6390  0.2695
   67SAPC  H16X 5676   3.193   5.332   8.795 -3.9254 -0.9679 -2.0388
   67SAPC  H16Y 5677   3.072   5.458   8.737  0.3197  2.4582 -0.0611
   67SAPC  C317 5678   3.228   5.527   8.874  0.0049  0.0895 -0.5997
   67SAPC  H17X 5679   3.337   5.515   8.893 -0.0010  0.4308 -0.3537
   67SAPC  H17Y 5680   3.176   5.486   8.964  0.3884 -1.4902 -1.0674
   67SAPC  C318 5681   3.189   5.677   8.876  0.0070 -0.7013 -0.8118
   67SAPC  H18X 5682   3.253   5.739   8.810 -0.7779  0.4195 -0.5452
   67SAPC  H18Y 5683   3.203   5.716   8.979  0.0174  1.4158 -1.5770
   67SAPC  H18Z 5684   3.082   5.686   8.849 -0.4026  2.2661  1.3152
   68SAPC     N 5685   0.038   1.887   6.092 -0.1898 -0.9267 -0.3919
   68SAPC   C12 5686  -0.031   1.917   6.222  0.8752  0.3426  0.8115
   68SAPC  H12A 5687   0.015   1.859   6.300  0.9552  0.5620  0.9292
   68SAPC  H12B 5688  -0.134   1.884   6.214  0.9972  0.2435 -0.6146
   68SAPC   C13 5689   0.039   1.738   6.089  0.1862  0.1565  0.3910
   68SAPC  H13A 5690   0.057   1.697   6.187  0.3786  0.3711  0.4476
   68SAPC  H13B 5691  -0.059   1.707   6.055  0.1899  0.0844  0.4477
   68SAPC  H13C 5692   0.113   1.699   6.020  0.6796  1.6465  0.0389
   68SAPC   C14 5693  -0.034   1.951   5.973 -0.1665  0.5472  0.2441
   68SAPC  H14A 5694  -0.051   2.055   5.997  2.2344  1.5920 -2.0404
   68SAPC  H14B 5695   0.029   1.964   5.886 -0.3151 -0.1587  0.0232
   68SAPC  H14C 5696  -0.120   1.892   5.945  0.9153 -1.1722  0.4139
   68SAPC   C15 5697   0.183   1.933   6.095  0.2563 -0.1438  0.0516
   68SAPC  H15A 5698   0.238   1.900   6.182  1.3509 -0.4310 -0.7303
   68SAPC  H15B 5699   0.238   1.892   6.012  1.0434 -0.9388  0.9408
   68SAPC  H15C 5700   0.185   2.041   6.093  2.1349 -0.0926  1.5314
   68SAPC   C11 5701  -0.025   2.076   6.250 -0.5950  0.7091  0.1678
   68SAPC  H11A 5702   0.074   2.125   6.249 -0.4037  0.3813  1.1668
   68SAPC  H11B 5703  -0.056   2.095   6.355  0.8405 -0.6891  0.8967
   68SAPC     P 5704  -0.259   2.164   6.162  0.0430 -0.2549  0.3232
   68SAPC   O13 5705  -0.288   2.309   6.160  0.4736 -0.1785 -0.2552
   68SAPC   O14 5706  -0.317   2.088   6.046  0.5549 -0.6884 -0.3335
   68SAPC   O12 5707  -0.104   2.149   6.152  0.3558 -0.3309  0.3018
   68SAPC   O11 5708  -0.298   2.106   6.302 -0.7882 -0.0574  0.1287
   68SAPC    C1 5709  -0.409   2.020   6.301  0.1710  1.0681  0.6239
   68SAPC    HA 5710  -0.502   2.067   6.264  0.8409 -1.1078 -4.7984
   68SAPC    HB 5711  -0.394   1.927   6.242  2.9404  1.6368  0.2690
   68SAPC    C2 5712  -0.444   1.968   6.447 -0.0075 -0.3041 -0.0386
   68SAPC    HS 5713  -0.531   1.899   6.442 -1.4056  1.0732  2.7924
   68SAPC   O21 5714  -0.473   2.075   6.547 -0.1193 -0.0265  0.5451
   68SAPC   C21 5715  -0.586   2.135   6.521  0.2086 -0.0118 -0.7150
   68SAPC   O22 5716  -0.671   2.109   6.434 -0.1773 -0.1058  0.6642
   68SAPC   C22 5717  -0.614   2.232   6.641  0.2297 -0.5245  0.2097
   68SAPC   H2R 5718  -0.573   2.331   6.611  0.1298 -0.4104  0.4416
   68SAPC   H2S 5719  -0.724   2.247   6.653  0.5582  1.9059  0.8525
   68SAPC    C3 5720  -0.325   1.883   6.501 -0.1314  0.1457  0.1780
   68SAPC    HX 5721  -0.236   1.949   6.497 -1.0371  1.4136  0.0827
   68SAPC    HY 5722  -0.298   1.796   6.437 -2.6207 -0.2038 -0.5298
   68SAPC   O31 5723  -0.353   1.834   6.630 -0.2425 -0.5351 -0.4918
   68SAPC   C31 5724  -0.441   1.738   6.647  0.0752 -0.1564 -0.1425
   68SAPC   O32 5725  -0.483   1.662   6.565 -0.2048  0.0041 -0.1845
   68SAPC   C32 5726  -0.483   1.729   6.793  0.3907 -0.1277 -0.4950
   68SAPC   H2X 5727  -0.439   1.640   6.843  0.4129  0.6306  0.8734
   68SAPC   H2Y 5728  -0.593   1.715   6.793  0.3130  0.4066  0.2875
   68SAPC   C23 5729  -0.548   2.204   6.775  0.1798 -0.9663  0.8596
   68SAPC   H3R 5730  -0.437   2.199   6.775  0.3538  1.5034  0.4571
   68SAPC   H3S 5731  -0.591   2.107   6.805 -3.6714  0.9758  2.2816
   68SAPC   C24 5732  -0.577   2.309   6.883 -0.1695 -0.1267  0.2586
   68SAPC   H4R 5733  -0.533   2.402   6.841  0.2788 -0.3740  0.1760
   68SAPC   H4S 5734  -0.518   2.290   6.975  0.7586  2.2240  0.1989
   68SAPC   C25 5735  -0.719   2.322   6.925  0.1347  0.1116  0.0371
   68SAPC   H5R 5736  -0.792   2.363   6.853 -0.7245  0.8243  1.2635
   68SAPC   C26 5737  -0.779   2.277   7.039  0.5372  0.2610 -0.0921
   68SAPC   H6R 5738  -0.885   2.304   7.050  0.0626 -1.1485 -0.9008
   68SAPC   C27 5739  -0.704   2.218   7.152 -1.3191 -0.2439 -0.5286
   68SAPC   H7R 5740  -0.680   2.301   7.221 -0.5028 -0.1841 -0.8795
   68SAPC   H7S 5741  -0.604   2.187   7.115  0.2327  0.9575  2.3065
   68SAPC   C28 5742  -0.770   2.095   7.215  0.6306 -0.2466  0.3376
   68SAPC   H8R 5743  -0.816   2.024   7.145  0.1371  0.3634  0.0251
   68SAPC   C29 5744  -0.785   2.076   7.351  0.4779  0.6472 -0.2482
   68SAPC   H9R 5745  -0.835   1.983   7.382  0.5903  0.2135 -1.3417
   68SAPC  C210 5746  -0.735   2.157   7.467  0.4951  0.0555  0.7184
   68SAPC  H10R 5747  -0.805   2.167   7.552  2.1593  1.0564  2.0313
   68SAPC  H10S 5748  -0.739   2.262   7.429  0.3182 -0.4166 -0.6200
   68SAPC  C211 5749  -0.595   2.146   7.514  0.3949 -0.0136 -0.1469
   68SAPC  H11R 5750  -0.516   2.136   7.438  0.0995 -1.0866 -0.3224
   68SAPC  C212 5751  -0.551   2.188   7.635 -0.1040 -0.2610  0.6428
   68SAPC  H12R 5752  -0.443   2.181   7.653  0.4294  1.1798 -1.6644
   68SAPC  C213 5753  -0.638   2.242   7.750  0.1144  0.1494  0.4651
   68SAPC  H13R 5754  -0.721   2.307   7.713 -1.5501 -2.0671  0.0423
   68SAPC  H13S 5755  -0.583   2.317   7.809  0.2736 -2.3946  3.8384
   68SAPC  C214 5756  -0.691   2.131   7.832  0.2602  0.3639 -0.2074
   68SAPC  H14R 5757  -0.673   2.031   7.789  0.8296 -0.2295  1.3444
   68SAPC  C215 5758  -0.762   2.141   7.946 -0.7769  0.6416 -0.4299
   68SAPC  H15R 5759  -0.786   2.043   7.990 -0.0470  1.2477  1.4301
   68SAPC  C216 5760  -0.788   2.268   8.024 -0.1885  0.0224  0.0912
   68SAPC  H16R 5761  -0.894   2.295   8.007 -0.7435 -0.7508  1.9866
   68SAPC  H16S 5762  -0.732   2.350   7.975 -1.4879  0.8485 -0.0474
   68SAPC  C217 5763  -0.765   2.256   8.175  0.0494  0.0535 -0.2795
   68SAPC  H17R 5764  -0.668   2.209   8.199 -0.7799 -0.9474  1.2511
   68SAPC  H17S 5765  -0.847   2.190   8.209 -0.2571 -0.0625 -1.2144
   68SAPC  C218 5766  -0.772   2.392   8.245 -0.3311 -0.0039  0.0522
   68SAPC  H18R 5767  -0.870   2.441   8.228 -0.9431 -1.2661 -0.1799
   68SAPC  H18S 5768  -0.691   2.458   8.208  0.1050 -0.1083  0.7978
   68SAPC  C219 5769  -0.739   2.378   8.398  0.2963  0.2835  0.5166
   68SAPC  H19R 5770  -0.702   2.475   8.437  1.0931 -0.3773  1.4707
   68SAPC  H19S 5771  -0.651   2.311   8.413 -0.6907 -1.1119  0.2790
   68SAPC  C220 5772  -0.851   2.338   8.487  0.1340 -0.5774  0.1970
   68SAPC  H20R 5773  -0.935   2.410   8.495  0.3016 -0.5387  1.9726
   68SAPC  H20S 5774  -0.801   2.327   8.586 -0.6728 -2.3986  0.4348
   68SAPC  H20T 5775  -0.898   2.240   8.465 -1.0524 -0.1301  0.6769
   68SAPC   C33 5776  -0.431   1.849   6.883  0.5169 -0.2198 -0.1964
   68SAPC   H3X 5777  -0.456   1.948   6.838 -1.5801  0.6033  2.5328
   68SAPC   H3Y 5778  -0.326   1.842   6.919  0.6411  0.2359 -0.4570
   68SAPC   C34 5779  -0.521   1.851   7.009  0.4520  0.7036 -0.4918
   68SAPC   H4X 5780  -0.627   1.829   6.984  0.4154 -0.8601  0.8945
   68SAPC   H4Y 5781  -0.513   1.949   7.060 -0.1426  0.6395 -0.2656
   68SAPC   C35 5782  -0.476   1.752   7.115  0.5376 -0.2407 -0.1401
   68SAPC   H5X 5783  -0.365   1.759   7.126  0.5558 -1.3196  0.4202
   68SAPC   H5Y 5784  -0.496   1.647   7.086 -2.9778  0.4802 -0.7071
   68SAPC   C36 5785  -0.541   1.783   7.249  0.8838 -0.4656 -0.8373
   68SAPC   H6X 5786  -0.649   1.765   7.230  0.6071  1.9276 -1.7900
   68SAPC   H6Y 5787  -0.519   1.890   7.270  0.4210  0.1641 -3.3159
   68SAPC   C37 5788  -0.499   1.699   7.370 -0.7278 -0.0386  0.0369
   68SAPC   H7X 5789  -0.391   1.721   7.367 -0.5086 -0.9190 -3.8178
   68SAPC   H7Y 5790  -0.519   1.590   7.358  0.6705 -0.9333  4.1473
   68SAPC   C38 5791  -0.570   1.753   7.493  0.3856 -0.1923 -0.2316
   68SAPC   H8X 5792  -0.680   1.737   7.484  0.6324 -1.0997 -2.1036
   68SAPC   H8Y 5793  -0.555   1.863   7.507 -0.0213 -0.1957  0.2699
   68SAPC   C39 5794  -0.534   1.675   7.617 -0.3801 -0.0692  0.4073
   68SAPC   H9X 5795  -0.428   1.642   7.615 -0.6274 -0.9302 -2.1407
   68SAPC   H9Y 5796  -0.592   1.582   7.636  0.5979 -0.1874  3.2836
   68SAPC  C310 5797  -0.523   1.766   7.743 -0.1257  0.3704 -0.1747
   68SAPC  H10X 5798  -0.623   1.807   7.766  0.1418  1.3479 -0.6820
   68SAPC  H10Y 5799  -0.455   1.851   7.718 -0.5125  0.8624  0.4290
   68SAPC  C311 5800  -0.459   1.691   7.865  0.1929 -0.0622  0.2817
   68SAPC  H11X 5801  -0.352   1.669   7.842 -0.2824 -1.8142 -0.3269
   68SAPC  H11Y 5802  -0.518   1.603   7.897 -0.5672  0.3376  0.0007
   68SAPC  C312 5803  -0.458   1.793   7.981 -0.3404  0.2817 -0.3096
   68SAPC  H12X 5804  -0.425   1.893   7.946 -1.5827  0.7454 -0.1984
   68SAPC  H12Y 5805  -0.376   1.766   8.051  2.2625  0.9229 -2.8799
   68SAPC  C313 5806  -0.587   1.808   8.064  0.2310 -0.0662  0.2659
   68SAPC  H13X 5807  -0.621   1.710   8.103  0.9608  0.4445  2.2634
   68SAPC  H13Y 5808  -0.666   1.851   7.997  0.4643  0.2569  0.1963
   68SAPC  C314 5809  -0.582   1.906   8.183 -0.0262  0.6529  0.4625
   68SAPC  H14X 5810  -0.546   2.003   8.143 -0.1764  1.1875  1.5848
   68SAPC  H14Y 5811  -0.500   1.873   8.250 -0.2502  0.6867  0.7562
   68SAPC  C315 5812  -0.712   1.926   8.266  0.3250  0.6149  0.2971
   68SAPC  H15X 5813  -0.801   1.944   8.201 -0.9545  1.0679  2.0913
   68SAPC  H15Y 5814  -0.713   2.016   8.330  0.9865  2.4224 -2.0713
   68SAPC  C316 5815  -0.742   1.809   8.359  0.2813  0.6508 -0.7858
   68SAPC  H16X 5816  -0.751   1.718   8.295 -1.5945  1.5870 -1.9379
   68SAPC  H16Y 5817  -0.842   1.816   8.408  0.0062 -0.6065 -1.1370
   68SAPC  C317 5818  -0.652   1.796   8.482  0.0358  0.5755  0.6012
   68SAPC  H17X 5819  -0.704   1.864   8.552 -1.4573 -1.0001  1.0953
   68SAPC  H17Y 5820  -0.545   1.825   8.473  0.5206 -1.2242  0.0705
   68SAPC  C318 5821  -0.647   1.663   8.555 -0.0481  0.4723 -0.1613
   68SAPC  H18X 5822  -0.752   1.633   8.575 -0.1951  0.9825 -0.1472
   68SAPC  H18Y 5823  -0.603   1.686   8.655  0.6064 -0.2194 -0.2834
   68SAPC  H18Z 5824  -0.583   1.584   8.509  0.1017 -1.3952  2.8979
   69SLPC     N 5825   0.433   4.810  11.115  0.2092  0.2928  0.2223
   69SLPC   C13 5826   0.390   4.904  11.220 -0.2571 -0.0269 -0.6344
   69SLPC  H13A 5827   0.386   4.850  11.313 -0.7462 -3.2397 -2.3628
   69SLPC  H13B 5828   0.468   4.973  11.246  0.2666 -1.8349  3.4735
   69SLPC  H13C 5829   0.302   4.963  11.199  1.0221  2.9187  1.5631
   69SLPC   C14 5830   0.336   4.698  11.101 -0.5299 -0.2646  0.2475
   69SLPC  H14A 5831   0.369   4.618  11.035  2.0063  1.6436 -0.9736
   69SLPC  H14B 5832   0.336   4.649  11.197  2.3080  1.1069  1.0384
   69SLPC  H14C 5833   0.241   4.737  11.068 -0.2966 -1.4389 -2.0357
   69SLPC   C15 5834   0.561   4.747  11.161  0.4435  0.0994 -0.6172
   69SLPC  H15A 5835   0.580   4.656  11.106  5.1393 -1.2520  2.6729
   69SLPC  H15B 5836   0.650   4.807  11.147  0.4180 -0.1295 -1.9203
   69SLPC  H15C 5837   0.561   4.737  11.268  0.5218  2.2894 -0.3560
   69SLPC   C12 5838   0.443   4.880  10.980  0.2460 -0.2596  0.1475
   69SLPC  H12A 5839   0.352   4.935  10.962  0.3283 -0.6857 -1.8153
   69SLPC  H12B 5840   0.443   4.812  10.897  1.8302 -0.1453  0.0082
   69SLPC   C11 5841   0.563   4.967  10.952  0.2307 -0.1780  0.6893
   69SLPC  H11A 5842   0.572   5.043  11.032 -2.9801  0.3233  0.7170
   69SLPC  H11B 5843   0.542   5.021  10.857  1.8610 -1.6620 -0.5904
   69SLPC     P 5844   0.821   4.938  10.908 -0.4407 -0.0236 -0.2593
   69SLPC   O13 5845   0.852   5.033  11.013 -0.1533  0.2841  0.0763
   69SLPC   O14 5846   0.911   4.822  10.894  0.3702  0.5029  0.1051
   69SLPC   O12 5847   0.677   4.884  10.929 -0.2126  0.0569  0.2615
   69SLPC   O11 5848   0.821   5.011  10.765  0.5523 -0.3260  0.2050
   69SLPC    C1 5849   0.788   4.942  10.649  0.1155  0.7822  0.4781
   69SLPC    HA 5850   0.824   4.838  10.665  1.0070  1.2348  1.5292
   69SLPC    HB 5851   0.677   4.944  10.646  0.1171 -0.2363 -2.0170
   69SLPC    C2 5852   0.848   5.003  10.519  0.9210 -0.9503 -0.0173
   69SLPC    HS 5853   0.880   4.917  10.455 -2.0938 -2.5574  0.4352
   69SLPC   O21 5854   0.961   5.092  10.548  0.3113  0.3003 -0.3357
   69SLPC   C21 5855   1.072   5.024  10.584  0.4190 -0.7054 -0.0753
   69SLPC   O22 5856   1.095   4.905  10.576 -0.5155 -0.6641  0.0116
   69SLPC   C22 5857   1.177   5.128  10.638  0.6569  0.1033 -0.0884
   69SLPC   H2R 5858   1.173   5.225  10.584 -1.7996  2.1307  3.2913
   69SLPC   H2S 5859   1.147   5.150  10.743 -0.9677 -0.5498 -0.3831
   69SLPC    C3 5860   0.747   5.078  10.420  0.5041  0.5912  0.2502
   69SLPC    HX 5861   0.719   5.174  10.468 -0.2082  0.9516 -0.8253
   69SLPC    HY 5862   0.654   5.017  10.415 -1.0894  2.8329  0.9179
   69SLPC   O31 5863   0.798   5.100  10.284  0.0761 -0.6761 -0.2746
   69SLPC   C31 5864   0.856   5.218  10.274  0.3329  0.0599  0.1102
   69SLPC   O32 5865   0.882   5.293  10.368  0.8765  0.2836  0.7299
   69SLPC   C32 5866   0.918   5.237  10.139 -0.3170  0.1257 -0.6034
   69SLPC   H2X 5867   0.885   5.158  10.067  1.6768 -1.4187  0.0975
   69SLPC   H2Y 5868   1.029   5.237  10.144 -0.3099  1.1429 -0.5932
   69SLPC   C23 5869   1.320   5.070  10.652  0.0132 -0.9292  0.1883
   69SLPC   H3R 5870   1.318   4.960  10.669 -1.9903 -1.4162 -2.5904
   69SLPC   H3S 5871   1.359   5.126  10.740 -4.8039  2.1883  0.7268
   69SLPC   C24 5872   1.405   5.095  10.529  0.6609  0.0797 -0.1593
   69SLPC   H4R 5873   1.504   5.059  10.565  0.5566  1.2903  1.4235
   69SLPC   H4S 5874   1.405   5.205  10.516  0.7002  0.5411  3.0223
   69SLPC   C25 5875   1.358   5.006  10.409 -0.1016  0.6832 -0.1217
   69SLPC   H5R 5876   1.263   5.055  10.379 -0.0881 -0.4934 -2.2876
   69SLPC   H5S 5877   1.329   4.908  10.452 -0.4860  1.1920  0.7912
   69SLPC   C26 5878   1.457   4.979  10.292 -0.8877  0.3680 -0.4553
   69SLPC   H6R 5879   1.554   4.941  10.331  1.1802  5.5326  0.2764
   69SLPC   H6S 5880   1.479   5.082  10.255 -0.0195 -0.2211 -1.6399
   69SLPC   C27 5881   1.387   4.907  10.187  0.6388  0.2119  0.3327
   69SLPC   H7R 5882   1.282   4.942  10.176 -0.6979 -4.0239 -4.4093
   69SLPC   H7S 5883   1.378   4.797  10.201  1.3577  0.1405  0.2462
   69SLPC   C28 5884   1.448   4.936  10.047  0.0109  0.1879  0.0485
   69SLPC   H8R 5885   1.436   5.047  10.042  0.4664  0.2338 -0.0770
   69SLPC   H8S 5886   1.388   4.891   9.965  1.0420 -3.3752  1.0979
   69SLPC   C29 5887   1.589   4.897  10.023  0.2403  0.2075 -0.1721
   69SLPC   H9R 5888   1.647   4.877  10.114  1.1116  2.1934 -0.2454
   69SLPC  C210 5889   1.653   4.931   9.910  0.5843  0.4840 -0.4814
   69SLPC  H10R 5890   1.751   4.881   9.904 -0.3501 -1.2600 -2.6726
   69SLPC  C211 5891   1.607   4.995   9.783  0.5613  0.4836  1.3763
   69SLPC  H11R 5892   1.698   5.054   9.758  1.7841 -2.0861 -0.7286
   69SLPC  H11S 5893   1.531   5.074   9.803  0.6791  0.9892 -0.0499
   69SLPC  C212 5894   1.554   4.901   9.681 -0.0360 -0.2968 -0.1225
   69SLPC  H12R 5895   1.475   4.828   9.704 -1.5395  1.1883 -0.4394
   69SLPC  C213 5896   1.590   4.902   9.550 -0.1577 -0.6449 -0.4574
   69SLPC  H13R 5897   1.548   4.819   9.490 -2.8376 -1.8559  2.8034
   69SLPC  C214 5898   1.708   4.982   9.498 -0.5426 -0.0866 -0.0664
   69SLPC  H14R 5899   1.795   4.913   9.493 -1.7945 -1.7375 -0.0056
   69SLPC  H14S 5900   1.749   5.069   9.554 -0.2456 -0.1440 -0.1906
   69SLPC  C215 5901   1.697   5.031   9.355 -0.0919  0.1252  0.3218
   69SLPC  H15R 5902   1.778   5.104   9.332 -2.1183  1.8421 -1.9902
   69SLPC  H15S 5903   1.603   5.091   9.355 -0.6333 -0.6714  1.8034
   69SLPC  C216 5904   1.684   4.924   9.251 -0.1926  0.1706  0.4544
   69SLPC  H16R 5905   1.604   4.851   9.272  0.4303 -1.0064 -1.0717
   69SLPC  H16S 5906   1.779   4.868   9.256  1.1462  1.8851 -2.4804
   69SLPC  C217 5907   1.682   4.975   9.101  0.0558  0.8996  0.3048
   69SLPC  H17R 5908   1.785   5.016   9.098  0.5932 -0.4421 -0.3612
   69SLPC  H17S 5909   1.612   5.059   9.080 -1.2690 -0.0548  0.7598
   69SLPC  C218 5910   1.671   4.866   8.992  0.2825 -0.2573 -0.5227
   69SLPC  H18R 5911   1.759   4.799   8.991  2.0203  1.8184  1.6148
   69SLPC  H18S 5912   1.673   4.919   8.894  0.8211 -1.2067 -1.0342
   69SLPC  H18T 5913   1.577   4.807   9.000 -0.1889  0.5302 -0.0835
   69SLPC   C33 5914   0.849   5.358  10.073 -0.4895  0.2734  0.3946
   69SLPC   H3X 5915   0.862   5.456  10.123  1.8613  0.1245  0.1561
   69SLPC   H3Y 5916   0.741   5.332  10.068 -0.2765 -0.8511  1.2191
   69SLPC   C34 5917   0.889   5.393   9.925 -0.5636 -0.8269  0.2727
   69SLPC   H4X 5918   0.995   5.427   9.931 -0.6687 -0.4969  0.2814
   69SLPC   H4Y 5919   0.823   5.473   9.887 -1.2546 -1.0365  1.0184
   69SLPC   C35 5920   0.877   5.285   9.823  0.7465  0.7709  0.1685
   69SLPC   H5X 5921   0.775   5.241   9.834  1.2064 -0.2990  0.3355
   69SLPC   H5Y 5922   0.933   5.191   9.842  2.2661  1.7597  0.7313
   69SLPC   C36 5923   0.900   5.335   9.681 -0.3450  0.5353  0.4612
   69SLPC   H6X 5924   1.009   5.342   9.661 -0.0215 -1.1332  1.4856
   69SLPC   H6Y 5925   0.843   5.429   9.662  2.2146  1.9841 -0.5996
   69SLPC   C37 5926   0.842   5.229   9.590  0.5223  0.7075  0.0473
   69SLPC   H7X 5927   0.733   5.219   9.602  0.4893  1.7346  0.7650
   69SLPC   H7Y 5928   0.878   5.129   9.623 -0.5345  0.4042  0.3158
   69SLPC   C38 5929   0.881   5.243   9.439  0.2572  0.4295  0.1946
   69SLPC   H8X 5930   0.875   5.140   9.397 -0.7239  0.8151 -0.6525
   69SLPC   H8Y 5931   0.988   5.270   9.426  0.1640  1.4033  1.2502
   69SLPC   C39 5932   0.787   5.323   9.357  0.4729 -0.6840 -0.7302
   69SLPC   H9X 5933   0.766   5.425   9.394 -0.1312 -0.3981 -1.8172
   69SLPC   H9Y 5934   0.690   5.271   9.366 -1.3657  2.2840 -1.9908
   69SLPC  C310 5935   0.828   5.339   9.200 -0.4612  0.4190  0.1874
   69SLPC  H10X 5936   0.819   5.243   9.146  0.7641 -0.8996  2.1650
   69SLPC  H10Y 5937   0.932   5.380   9.197 -1.3044  2.8507  1.0556
   69SLPC  C311 5938   0.751   5.444   9.114 -0.0197 -0.2932  0.1628
   69SLPC  H11X 5939   0.763   5.546   9.156 -1.0423 -0.8354  1.8444
   69SLPC  H11Y 5940   0.646   5.410   9.126 -0.4171 -0.0855 -2.1117
   69SLPC  C312 5941   0.801   5.430   8.966 -0.0767 -0.0643  0.5843
   69SLPC  H12X 5942   0.793   5.329   8.921 -0.1885  1.1989 -2.5308
   69SLPC  H12Y 5943   0.906   5.466   8.975 -0.4314  1.2463 -0.2025
   69SLPC  C313 5944   0.719   5.518   8.864 -0.0521  0.2035 -0.0566
   69SLPC  H13X 5945   0.704   5.622   8.900 -1.2790  1.9726 -4.8823
   69SLPC  H13Y 5946   0.616   5.476   8.866  0.1379 -0.3897 -1.6540
   69SLPC  C314 5947   0.772   5.520   8.719 -0.1893  0.0584  0.0656
   69SLPC  H14X 5948   0.797   5.414   8.698 -0.2891 -0.1819  1.0884
   69SLPC  H14Y 5949   0.870   5.574   8.717 -0.7467  1.1864  1.5535
   69SLPC  C315 5950   0.681   5.567   8.604  0.1146  0.1737  0.4007
   69SLPC  H15X 5951   0.585   5.515   8.621 -0.1074  0.8966  1.4314
   69SLPC  H15Y 5952   0.713   5.536   8.502 -2.3213 -0.2317 -0.2870
   69SLPC  C316 5953   0.665   5.723   8.602  0.0427  1.1129  0.2415
   69SLPC  H16X 5954   0.766   5.765   8.582  0.1125  1.1759  0.7000
   69SLPC  H16Y 5955   0.646   5.771   8.701  2.8421  1.3311  0.7593
   69SLPC  C317 5956   0.553   5.779   8.512 -0.3601 -0.0771 -0.8216
   69SLPC  H17X 5957   0.569   5.887   8.530  1.3348 -0.3260 -0.6295
   69SLPC  H17Y 5958   0.453   5.764   8.558  1.2231  1.0300  3.5123
   69SLPC  C318 5959   0.571   5.763   8.358 -0.3281 -0.3365 -0.1799
   69SLPC  H18X 5960   0.494   5.825   8.307 -0.2148  1.8103  2.0834
   69SLPC  H18Y 5961   0.543   5.656   8.345 -2.9834  0.4183 -1.4681
   69SLPC  H18Z 5962   0.671   5.785   8.316 -2.0301  2.9108 -3.0388
   70SLPC     N 5963   0.825   3.719  10.964  0.2222  0.4208  0.3996
   70SLPC   C13 5964   0.716   3.650  11.033 -0.0615 -0.5762 -0.8023
   70SLPC  H13A 5965   0.727   3.651  11.140 -2.3172  0.5354 -0.5198
   70SLPC  H13B 5966   0.630   3.714  11.022  0.8473  0.7884 -0.3449
   70SLPC  H13C 5967   0.704   3.551  10.991  0.3559 -1.6901  1.5519
   70SLPC   C14 5968   0.951   3.646  10.989 -0.9792 -0.1087 -0.2088
   70SLPC  H14A 5969   1.029   3.711  10.953 -0.2161 -1.4495 -1.0182
   70SLPC  H14B 5970   0.980   3.631  11.092 -2.6673  2.7113  0.7729
   70SLPC  H14C 5971   0.969   3.545  10.955  1.8389 -0.0908  0.9487
   70SLPC   C15 5972   0.836   3.856  11.020 -0.1466  0.3940  0.0604
   70SLPC  H15A 5973   0.750   3.919  11.004 -0.3973 -0.5559 -2.8952
   70SLPC  H15B 5974   0.856   3.844  11.125  2.4005  3.9890  0.2044
   70SLPC  H15C 5975   0.924   3.902  10.976 -0.1756 -1.1788 -1.7815
   70SLPC   C12 5976   0.802   3.722  10.816 -0.2151 -0.0229  0.1003
   70SLPC  H12A 5977   0.866   3.789  10.761 -0.3840 -1.0484 -1.4140
   70SLPC  H12B 5978   0.702   3.760  10.805 -0.6909 -0.8240  1.3566
   70SLPC   C11 5979   0.801   3.579  10.746 -0.4982  0.0287  0.4304
   70SLPC  H11A 5980   0.901   3.531  10.759 -0.5165 -0.3170 -0.6037
   70SLPC  H11B 5981   0.783   3.592  10.637 -2.1286 -0.1338  0.6575
   70SLPC     P 5982   0.558   3.509  10.752 -0.1623 -0.0564  0.4620
   70SLPC   O13 5983   0.464   3.425  10.825  0.0613 -0.3737 -0.0042
   70SLPC   O14 5984   0.522   3.651  10.752 -0.9024  0.0016  0.1798
   70SLPC   O12 5985   0.707   3.492  10.809  0.1729 -0.0006  0.2698
   70SLPC   O11 5986   0.573   3.451  10.604 -0.0624  0.0744  0.2856
   70SLPC    C1 5987   0.630   3.320  10.594 -0.2979 -0.2962 -0.3171
   70SLPC    HA 5988   0.674   3.278  10.687  0.3152  1.6694  0.3275
   70SLPC    HB 5989   0.543   3.253  10.575  0.3550 -1.1524 -0.3389
   70SLPC    C2 5990   0.742   3.308  10.484  0.2984 -0.1979 -0.2249
   70SLPC    HS 5991   0.815   3.391  10.499 -0.8158  0.7525  0.1102
   70SLPC   O21 5992   0.677   3.313  10.356 -0.2026 -0.4783 -0.0399
   70SLPC   C21 5993   0.695   3.413  10.273  0.3849 -0.0839  0.0762
   70SLPC   O22 5994   0.762   3.514  10.294  0.0248  1.0956 -0.3346
   70SLPC   C22 5995   0.649   3.355  10.140  0.0076  0.1297 -0.0623
   70SLPC   H2R 5996   0.652   3.244  10.141 -0.0850  0.0526 -2.5491
   70SLPC   H2S 5997   0.541   3.380  10.127 -0.2461 -0.0721  1.4638
   70SLPC    C3 5998   0.826   3.176  10.501  0.3507 -0.1478 -0.2446
   70SLPC    HX 5999   0.760   3.089  10.521 -0.7776  0.8971  0.6855
   70SLPC    HY 6000   0.887   3.180  10.594  3.2465 -0.3188 -1.9979
   70SLPC   O31 6001   0.916   3.156  10.384  0.4967 -0.1862 -0.3458
   70SLPC   C31 6002   1.041   3.191  10.399 -0.2755  0.3021  0.0674
   70SLPC   O32 6003   1.084   3.254  10.494  0.7434 -0.0518  0.5930
   70SLPC   C32 6004   1.120   3.151  10.275  0.0977  0.4563  0.8495
   70SLPC   H2X 6005   1.118   3.040  10.275 -0.9875  0.4638  0.3551
   70SLPC   H2Y 6006   1.221   3.197  10.287  0.0853  0.6276  0.3286
   70SLPC   C23 6007   0.735   3.418  10.030  0.4301  0.5253  0.8683
   70SLPC   H3R 6008   0.838   3.383  10.052 -0.0773 -2.2566 -0.6531
   70SLPC   H3S 6009   0.714   3.527  10.028  0.5436  0.5468 -1.0427
   70SLPC   C24 6010   0.712   3.365   9.889  0.5607  0.3024  0.1998
   70SLPC   H4R 6011   0.705   3.255   9.875  0.5326  0.5249 -1.8803
   70SLPC   H4S 6012   0.795   3.396   9.822 -0.9260  0.8841 -1.4886
   70SLPC   C25 6013   0.575   3.404   9.828 -0.2823 -0.0884 -0.3603
   70SLPC   H5R 6014   0.572   3.512   9.800  0.8739  0.2322  0.6564
   70SLPC   H5S 6015   0.488   3.391   9.895 -1.0840 -2.0093 -1.6607
   70SLPC   C26 6016   0.533   3.341   9.691  0.3631  0.2535  0.0878
   70SLPC   H6R 6017   0.513   3.231   9.694  1.4092 -0.0045 -1.2928
   70SLPC   H6S 6018   0.602   3.355   9.605 -1.5431 -1.3815 -1.8409
   70SLPC   C27 6019   0.403   3.396   9.629  0.4404  0.2580 -0.2205
   70SLPC   H7R 6020   0.415   3.502   9.598 -0.4796  0.6585  0.7262
   70SLPC   H7S 6021   0.333   3.395   9.715  0.8720  0.8060  0.1463
   70SLPC   C28 6022   0.362   3.320   9.507 -0.0770 -0.3729  0.3186
   70SLPC   H8R 6023   0.344   3.213   9.534 -0.0545 -0.1005  1.4539
   70SLPC   H8S 6024   0.434   3.322   9.423 -2.0958  2.0516 -1.4879
   70SLPC   C29 6025   0.233   3.383   9.452 -0.4014  0.0947 -0.1501
   70SLPC   H9R 6026   0.155   3.408   9.526 -2.3117  1.7762 -2.5567
   70SLPC  C210 6027   0.199   3.426   9.327 -0.1945  0.3266  0.9842
   70SLPC  H10R 6028   0.098   3.468   9.314 -0.4625  0.0348  1.9913
   70SLPC  C211 6029   0.284   3.402   9.207  0.8002 -0.4452  0.0619
   70SLPC  H11R 6030   0.389   3.426   9.235  0.5102  1.5741 -0.4265
   70SLPC  H11S 6031   0.256   3.475   9.129  2.3761 -0.4452 -0.5452
   70SLPC  C212 6032   0.268   3.261   9.155  0.0920 -0.3149 -0.3742
   70SLPC  H12R 6033   0.233   3.197   9.237  0.8496  1.0903  1.0964
   70SLPC  C213 6034   0.278   3.216   9.032 -0.3897  1.3148 -0.2546
   70SLPC  H13R 6035   0.271   3.108   9.010 -0.0966  0.9314  1.3886
   70SLPC  C214 6036   0.318   3.294   8.907  0.8670  0.5072  0.2984
   70SLPC  H14R 6037   0.426   3.281   8.883  0.2148  1.2265 -3.8460
   70SLPC  H14S 6038   0.320   3.405   8.921  2.3080  0.7468 -1.4612
   70SLPC  C215 6039   0.245   3.257   8.777 -0.1951  0.6799 -0.7972
   70SLPC  H15R 6040   0.254   3.148   8.757 -2.6945  0.3902 -0.6537
   70SLPC  H15S 6041   0.300   3.306   8.694  0.6902 -1.3125 -1.4443
   70SLPC  C216 6042   0.102   3.311   8.765  0.3780  0.4514  0.3392
   70SLPC  H16R 6043   0.100   3.423   8.762  1.9204  0.4997  0.4005
   70SLPC  H16S 6044   0.050   3.278   8.857  3.3780  0.5053  2.2019
   70SLPC  C217 6045   0.035   3.263   8.629  0.2984  0.9817 -0.2309
   70SLPC  H17R 6046   0.016   3.155   8.651  1.8358  1.2332  2.8881
   70SLPC  H17S 6047   0.109   3.268   8.547  0.2285  2.0771 -0.2403
   70SLPC  C218 6048  -0.088   3.347   8.592 -0.3099  0.7969  0.0013
   70SLPC  H18R 6049  -0.074   3.458   8.593 -4.7427  1.5647 -0.8018
   70SLPC  H18S 6050  -0.171   3.331   8.664 -1.4430  2.6229 -0.8386
   70SLPC  H18T 6051  -0.126   3.321   8.491 -0.4845  1.7243 -0.1859
   70SLPC   C33 6052   1.056   3.208  10.146 -0.1768  0.4973 -0.6115
   70SLPC   H3X 6053   1.088   3.315  10.150  0.0170  0.4171  1.6651
   70SLPC   H3Y 6054   0.946   3.198  10.153 -0.0825 -0.2522 -0.1547
   70SLPC   C34 6055   1.098   3.134  10.017 -0.0003  0.7369  0.0061
   70SLPC   H4X 6056   1.086   3.024  10.029 -1.5780  1.0316  1.6322
   70SLPC   H4Y 6057   1.207   3.154  10.019 -0.3178  2.6089  0.4161
   70SLPC   C35 6058   1.038   3.179   9.885 -0.5509  0.2794  0.0109
   70SLPC   H5X 6059   1.044   3.289   9.874 -1.0902  0.3282  0.2051
   70SLPC   H5Y 6060   0.935   3.139   9.876  0.1250 -1.2929 -1.4650
   70SLPC   C36 6061   1.107   3.114   9.765 -0.0434 -0.0349  0.0728
   70SLPC   H6X 6062   1.095   3.004   9.758 -0.8982  0.1539 -3.6645
   70SLPC   H6Y 6063   1.217   3.132   9.763 -0.0611  0.1530  0.6292
   70SLPC   C37 6064   1.050   3.184   9.635 -0.3967  0.7530  0.5694
   70SLPC   H7X 6065   1.063   3.294   9.642  1.0220  0.9043 -2.8350
   70SLPC   H7Y 6066   0.941   3.164   9.626 -0.3016  0.3226  0.3886
   70SLPC   C38 6067   1.122   3.142   9.506  0.1640 -0.4400  0.6458
   70SLPC   H8X 6068   1.127   3.031   9.511  0.5343 -0.5368 -1.1993
   70SLPC   H8Y 6069   1.226   3.179   9.517  0.0046 -0.3367  1.9508
   70SLPC   C39 6070   1.055   3.191   9.380 -0.4832 -0.3095  0.1886
   70SLPC   H9X 6071   1.125   3.190   9.294 -2.1030  2.1513 -1.2754
   70SLPC   H9Y 6072   1.047   3.301   9.393  2.0630  0.2910 -2.4410
   70SLPC  C310 6073   0.928   3.115   9.331  0.4277 -0.2642  0.4786
   70SLPC  H10X 6074   0.850   3.125   9.409 -0.2250 -2.2826  0.1361
   70SLPC  H10Y 6075   0.957   3.009   9.319 -0.4426 -0.5003  0.4568
   70SLPC  C311 6076   0.869   3.173   9.200 -0.0266  0.3592  0.4532
   70SLPC  H11X 6077   0.948   3.193   9.125 -1.4293  0.8704 -0.9274
   70SLPC  H11Y 6078   0.822   3.269   9.230 -0.5802 -0.0742  1.0003
   70SLPC  C312 6079   0.762   3.081   9.136 -0.2863 -0.1857  0.2161
   70SLPC  H12X 6080   0.673   3.059   9.200 -1.8748  1.6742 -1.2249
   70SLPC  H12Y 6081   0.822   3.001   9.088 -0.2027  1.1593 -2.0705
   70SLPC  C313 6082   0.694   3.141   9.015  0.1199  0.5570 -0.4257
   70SLPC  H13X 6083   0.624   3.215   9.059 -0.3692 -0.7499  1.1127
   70SLPC  H13Y 6084   0.648   3.054   8.962  2.8098 -2.1243  1.3037
   70SLPC  C314 6085   0.788   3.205   8.905 -0.4865 -0.0549 -0.5107
   70SLPC  H14X 6086   0.862   3.128   8.876  2.3018  2.3766 -0.2757
   70SLPC  H14Y 6087   0.849   3.285   8.951 -0.5701  0.2383 -0.9026
   70SLPC  C315 6088   0.723   3.255   8.778  0.0563 -0.4566  0.2424
   70SLPC  H15X 6089   0.803   3.305   8.718  1.8172 -2.0014  1.2023
   70SLPC  H15Y 6090   0.645   3.330   8.804 -0.9261 -1.0915 -0.7779
   70SLPC  C316 6091   0.672   3.138   8.693 -0.5028  1.1858 -0.6208
   70SLPC  H16X 6092   0.595   3.081   8.749  0.3196 -0.6378 -1.2517
   70SLPC  H16Y 6093   0.752   3.070   8.657  0.0632  2.4249 -1.7656
   70SLPC  C317 6094   0.597   3.184   8.562  0.3645 -0.1989  0.1950
   70SLPC  H17X 6095   0.540   3.276   8.591 -3.8996 -2.6683  0.4804
   70SLPC  H17Y 6096   0.521   3.111   8.528 -1.7120  1.4904  0.9490
   70SLPC  C318 6097   0.684   3.226   8.445 -0.0767 -0.2541 -0.3621
   70SLPC  H18X 6098   0.740   3.138   8.405  1.2167 -0.1929  1.1773
   70SLPC  H18Y 6099   0.766   3.294   8.478 -0.8569  1.1162 -1.1758
   70SLPC  H18Z 6100   0.635   3.292   8.371  1.3229  0.0926 -1.0216
   71SLPC     N 6101   0.129   3.180  10.804 -0.5574  0.5181  0.4850
   71SLPC   C13 6102   0.069   3.257  10.915  0.4122 -0.4370  0.3085
   71SLPC  H13A 6103  -0.005   3.207  10.976 -0.9782  1.1739  0.0183
   71SLPC  H13B 6104   0.147   3.292  10.981 -0.3113 -2.0449  2.1214
   71SLPC  H13C 6105   0.015   3.336  10.866 -2.2624 -2.3712 -0.0984
   71SLPC   C14 6106   0.181   3.057  10.860  0.1339  0.4856 -0.7063
   71SLPC  H14A 6107   0.088   3.004  10.874 -0.0749  0.3082 -2.5655
   71SLPC  H14B 6108   0.234   3.001  10.784 -0.8276 -0.8563 -0.4339
   71SLPC  H14C 6109   0.237   3.060  10.953  0.8913 -0.3535 -1.1127
   71SLPC   C15 6110   0.238   3.247  10.723  0.0848  0.1613  0.0106
   71SLPC  H15A 6111   0.271   3.187  10.640 -0.5952  1.3843 -1.1951
   71SLPC  H15B 6112   0.208   3.346  10.690 -1.9384  0.6910  3.0180
   71SLPC  H15C 6113   0.315   3.266  10.796 -1.0615  2.4501  0.7533
   71SLPC   C12 6114   0.023   3.141  10.705 -0.4544  0.2728 -0.0341
   71SLPC  H12A 6115  -0.062   3.104  10.759  0.7082 -0.4020  1.4021
   71SLPC  H12B 6116   0.056   3.056  10.647 -1.6198 -0.9212  0.9911
   71SLPC   C11 6117  -0.016   3.241  10.596  0.1285  0.7182 -0.0476
   71SLPC  H11A 6118  -0.071   3.197  10.511  1.7438  1.6327 -1.6365
   71SLPC  H11B 6119   0.073   3.265  10.534  0.1773 -0.7729 -0.5808
   71SLPC     P 6120  -0.231   3.344  10.684 -0.4763 -0.0428 -0.0176
   71SLPC   O13 6121  -0.264   3.217  10.753 -0.4467  0.7106  0.2987
   71SLPC   O14 6122  -0.282   3.469  10.745  0.3280  0.3451 -0.9883
   71SLPC   O12 6123  -0.077   3.358  10.657  0.3336 -0.1148 -0.4992
   71SLPC   O11 6124  -0.293   3.342  10.533  0.5787 -0.3096  0.0394
   71SLPC    C1 6125  -0.267   3.435  10.434  0.0891 -0.0357 -0.3822
   71SLPC    HA 6126  -0.331   3.524  10.453  1.5386  0.8292  0.6807
   71SLPC    HB 6127  -0.168   3.482  10.452  0.3718  0.6987 -3.2735
   71SLPC    C2 6128  -0.282   3.380  10.285 -0.4491  0.7093 -0.1163
   71SLPC    HS 6129  -0.184   3.357  10.238  0.5881  0.2255  2.1314
   71SLPC   O21 6130  -0.344   3.481  10.205  0.1035  0.4404  0.2217
   71SLPC   C21 6131  -0.275   3.588  10.175  0.4178  0.5259  0.1392
   71SLPC   O22 6132  -0.163   3.606  10.210 -0.6292 -0.0997  0.2614
   71SLPC   C22 6133  -0.365   3.682  10.082 -0.1210  0.1837  0.0225
   71SLPC   H2R 6134  -0.349   3.626   9.987 -2.0505  1.9254 -1.4168
   71SLPC   H2S 6135  -0.466   3.666  10.125  0.0784  1.3803  0.9826
   71SLPC    C3 6136  -0.374   3.260  10.282  0.2659 -0.0173 -0.3248
   71SLPC    HX 6137  -0.472   3.290  10.324  1.2368  0.3707  1.7966
   71SLPC    HY 6138  -0.341   3.177  10.349 -1.1091 -1.0156 -0.8425
   71SLPC   O31 6139  -0.395   3.206  10.149 -0.5842  0.2780 -0.6120
   71SLPC   C31 6140  -0.313   3.107  10.110 -0.4285  0.7135 -0.2429
   71SLPC   O32 6141  -0.221   3.055  10.175  0.2564 -0.2912  0.5122
   71SLPC   C32 6142  -0.332   3.069   9.967  0.3867  0.3158 -0.5160
   71SLPC   H2X 6143  -0.439   3.064   9.938 -0.4076 -0.9926  2.2502
   71SLPC   H2Y 6144  -0.293   2.968   9.945 -4.1359 -1.8447  0.1066
   71SLPC   C23 6145  -0.315   3.828  10.079  0.8253 -0.6488  1.0808
   71SLPC   H3R 6146  -0.206   3.830  10.054  0.2975 -3.0149 -2.1904
   71SLPC   H3S 6147  -0.340   3.879  10.174  0.1650  0.3773  0.3759
   71SLPC   C24 6148  -0.385   3.918   9.974  0.2110  0.2751  0.0720
   71SLPC   H4R 6149  -0.375   4.025  10.003 -1.3402  0.8483 -1.3170
   71SLPC   H4S 6150  -0.494   3.897   9.977  0.1889  0.0918 -1.2518
   71SLPC   C25 6151  -0.317   3.907   9.828  0.7591 -0.3968 -0.7685
   71SLPC   H5R 6152  -0.348   3.807   9.791  0.6676 -0.7537  0.2242
   71SLPC   H5S 6153  -0.209   3.901   9.856  0.2691 -1.8804  1.0401
   71SLPC   C26 6154  -0.370   4.018   9.740 -0.4541 -0.4923 -0.9125
   71SLPC   H6R 6155  -0.347   4.119   9.782  0.3362 -0.3904 -1.5643
   71SLPC   H6S 6156  -0.480   4.004   9.754 -0.3022  0.2771  1.7234
   71SLPC   C27 6157  -0.322   3.997   9.602 -0.0419  0.7894  0.2805
   71SLPC   H7R 6158  -0.357   3.893   9.585  0.2295  0.6242  0.7174
   71SLPC   H7S 6159  -0.213   3.996   9.584 -0.1348 -2.7769 -0.8176
   71SLPC   C28 6160  -0.394   4.095   9.514 -0.3665  0.2028  0.3219
   71SLPC   H8R 6161  -0.356   4.197   9.538  1.5233 -0.0926 -1.1331
   71SLPC   H8S 6162  -0.504   4.101   9.524 -0.3794 -1.1005  1.2225
   71SLPC   C29 6163  -0.367   4.052   9.370 -0.6340  0.0235 -0.4823
   71SLPC   H9R 6164  -0.372   3.943   9.363 -1.7909  0.0504 -0.3170
   71SLPC  C210 6165  -0.351   4.129   9.261  0.6694  0.1486  0.6740
   71SLPC  H10R 6166  -0.339   4.074   9.167 -1.7988 -0.0807  0.4082
   71SLPC  C211 6167  -0.357   4.279   9.267 -0.3552  0.0388  0.1541
   71SLPC  H11R 6168  -0.255   4.316   9.291 -0.0818 -0.3994 -0.3026
   71SLPC  H11S 6169  -0.413   4.322   9.352  1.0623  2.5930 -0.1211
   71SLPC  C212 6170  -0.415   4.333   9.139  0.3360 -0.3209  0.1168
   71SLPC  H12R 6171  -0.525   4.322   9.140  0.4923 -2.4286 -0.7605
   71SLPC  C213 6172  -0.354   4.376   9.031 -0.6302  0.1196 -0.3973
   71SLPC  H13R 6173  -0.419   4.410   8.949  2.1251  0.7242 -2.4512
   71SLPC  C214 6174  -0.205   4.372   8.999  0.0377 -0.8123 -0.0916
   71SLPC  H14R 6175  -0.204   4.305   8.910 -0.0748  0.1975 -0.8784
   71SLPC  H14S 6176  -0.146   4.330   9.083 -0.4886 -1.1783  0.1021
   71SLPC  C215 6177  -0.141   4.508   8.947  1.0688  0.6455 -0.4554
   71SLPC  H15R 6178  -0.032   4.486   8.941  1.4971  2.2899  0.5975
   71SLPC  H15S 6179  -0.164   4.584   9.025  0.2094 -1.5288  1.5040
   71SLPC  C216 6180  -0.186   4.529   8.806 -0.5217  0.2301  0.2128
   71SLPC  H16R 6181  -0.291   4.562   8.792  0.4113  3.1652 -0.7537
   71SLPC  H16S 6182  -0.179   4.434   8.748 -0.8202  0.2025  0.2213
   71SLPC  C217 6183  -0.109   4.650   8.743 -0.2574  0.9698 -0.0465
   71SLPC  H17R 6184   0.001   4.652   8.754 -0.1120  1.0422 -1.3837
   71SLPC  H17S 6185  -0.137   4.741   8.801 -1.8603 -0.2848  1.2609
   71SLPC  C218 6186  -0.137   4.669   8.594  0.0327  1.1131 -0.1797
   71SLPC  H18R 6187  -0.242   4.693   8.568 -0.0710 -1.7851 -2.9592
   71SLPC  H18S 6188  -0.102   4.578   8.541 -0.2006  0.0182  1.4816
   71SLPC  H18T 6189  -0.065   4.746   8.557 -0.2003  1.6462  0.4520
   71SLPC   C33 6190  -0.254   3.166   9.869  0.6451  0.5067  0.4954
   71SLPC   H3X 6191  -0.260   3.137   9.762  1.1941 -1.1662  0.8948
   71SLPC   H3Y 6192  -0.145   3.166   9.892  0.5829  0.1210  0.7997
   71SLPC   C34 6193  -0.296   3.315   9.859  0.4792  0.4412 -0.3865
   71SLPC   H4X 6194  -0.219   3.360   9.792  1.0350 -0.6463 -0.5048
   71SLPC   H4Y 6195  -0.286   3.363   9.958 -0.1094  3.2540 -1.5837
   71SLPC   C35 6196  -0.438   3.338   9.798  0.3609 -0.0317 -0.2357
   71SLPC   H5X 6197  -0.470   3.445   9.794 -1.2911 -0.4960 -0.1383
   71SLPC   H5Y 6198  -0.507   3.280   9.864  1.3860 -0.6638  0.3047
   71SLPC   C36 6199  -0.462   3.295   9.651  0.2028 -0.0848 -0.1327
   71SLPC   H6X 6200  -0.436   3.190   9.630  0.6116 -0.1871  0.8513
   71SLPC   H6Y 6201  -0.396   3.364   9.595 -1.0631  0.0102 -1.5781
   71SLPC   C37 6202  -0.602   3.321   9.595 -0.5206 -1.3020  0.5402
   71SLPC   H7X 6203  -0.618   3.431   9.603 -2.6002 -1.4401 -1.0442
   71SLPC   H7Y 6204  -0.681   3.268   9.652 -1.7205 -0.9019 -0.6917
   71SLPC   C38 6205  -0.619   3.287   9.443  0.2956  0.3429 -1.3983
   71SLPC   H8X 6206  -0.598   3.178   9.440  1.5576  0.5265 -0.1476
   71SLPC   H8Y 6207  -0.537   3.336   9.388 -0.6937  2.5019 -1.0665
   71SLPC   C39 6208  -0.759   3.320   9.387 -0.3266  0.2136  0.4651
   71SLPC   H9X 6209  -0.783   3.429   9.388  2.0968  0.8367 -0.8438
   71SLPC   H9Y 6210  -0.813   3.262   9.465 -0.3966  0.0051  0.2594
   71SLPC  C310 6211  -0.776   3.256   9.252 -1.0995 -0.2336  0.0602
   71SLPC  H10X 6212  -0.727   3.157   9.251  0.7078  0.6234 -0.4703
   71SLPC  H10Y 6213  -0.713   3.313   9.181  0.5906  1.2159  2.5300
   71SLPC  C311 6214  -0.920   3.238   9.212 -0.1131 -0.4015 -0.2113
   71SLPC  H11X 6215  -0.978   3.332   9.227 -0.8723 -0.8263 -0.3902
   71SLPC  H11Y 6216  -0.976   3.176   9.285 -0.8603  1.6699  1.0750
   71SLPC  C312 6217  -0.926   3.196   9.068 -0.3312 -0.8412  0.6217
   71SLPC  H12X 6218  -0.863   3.274   9.019  1.4903 -1.0613  2.4511
   71SLPC  H12Y 6219  -1.022   3.206   9.013  1.9070  2.1059 -3.3968
   71SLPC  C313 6220  -0.875   3.052   9.050 -0.8812 -0.2870 -0.1031
   71SLPC  H13X 6221  -0.925   2.979   9.117  0.3296  0.8454  2.1556
   71SLPC  H13Y 6222  -0.768   3.046   9.079 -1.1035  0.6028  0.9600
   71SLPC  C314 6223  -0.876   3.019   8.901  0.0945  0.6672 -0.1491
   71SLPC  H14X 6224  -0.848   2.912   8.891  1.5086  1.0232 -0.2112
   71SLPC  H14Y 6225  -0.799   3.085   8.856  1.0055 -0.6727 -0.6097
   71SLPC  C315 6226  -1.011   3.026   8.847  0.1177  0.7429  0.8098
   71SLPC  H15X 6227  -1.021   3.123   8.793  0.0363 -0.1421 -0.8107
   71SLPC  H15Y 6228  -1.090   3.023   8.925  0.1457 -0.6107  0.8073
   71SLPC  C316 6229  -1.056   2.907   8.756  0.7063  0.4731  0.2630
   71SLPC  H16X 6230  -1.164   2.926   8.739  0.7881 -0.2354 -1.1732
   71SLPC  H16Y 6231  -1.049   2.811   8.812  0.7057  1.1841  1.5154
   71SLPC  C317 6232  -0.969   2.892   8.627  0.3781 -0.4867 -0.1428
   71SLPC  H17X 6233  -0.872   2.860   8.670  0.7773  0.8634 -0.0006
   71SLPC  H17Y 6234  -0.956   2.988   8.573  1.1849 -0.0465  0.8229
   71SLPC  C318 6235  -1.016   2.805   8.514 -0.0671  0.4768  0.5476
   71SLPC  H18X 6236  -1.013   2.696   8.539 -0.9800  0.7173  1.7991
   71SLPC  H18Y 6237  -0.953   2.816   8.423 -1.9425  0.4260 -0.8155
   71SLPC  H18Z 6238  -1.119   2.814   8.475  0.3377  2.4178 -0.1721
   72SLPC     N 6239   1.840   1.724  10.746 -0.2030 -0.2100 -0.4429
   72SLPC   C13 6240   1.786   1.790  10.870  0.4089  0.1526 -0.3830
   72SLPC  H13A 6241   1.850   1.784  10.957 -1.2219  0.4328  0.8767
   72SLPC  H13B 6242   1.767   1.893  10.841  0.9919  0.1641 -0.7419
   72SLPC  H13C 6243   1.688   1.762  10.906  0.9228  2.4558  3.3074
   72SLPC   C14 6244   1.761   1.772  10.630  0.0967  0.4042  0.3201
   72SLPC  H14A 6245   1.657   1.747  10.647 -0.3623  1.5399 -0.6591
   72SLPC  H14B 6246   1.767   1.880  10.627 -1.8468  0.5341 -0.8195
   72SLPC  H14C 6247   1.786   1.727  10.535 -0.3055 -0.4287  0.5992
   72SLPC   C15 6248   1.826   1.576  10.758  0.3193  0.4234 -0.0286
   72SLPC  H15A 6249   1.865   1.536  10.666  1.0660  0.9923  0.0301
   72SLPC  H15B 6250   1.892   1.529  10.829  0.6096  1.3450  0.3376
   72SLPC  H15C 6251   1.722   1.548  10.774  0.0502  0.9687 -0.7496
   72SLPC   C12 6252   1.984   1.762  10.728 -0.3066 -0.4102 -0.5869
   72SLPC  H12A 6253   1.974   1.868  10.742 -2.3351 -0.8509  2.1028
   72SLPC  H12B 6254   2.012   1.746  10.625  0.8558 -0.4088 -0.2856
   72SLPC   C11 6255   2.085   1.715  10.833 -0.5710 -0.2010  0.9930
   72SLPC  H11A 6256   2.046   1.723  10.937 -0.7413  1.1752  0.8414
   72SLPC  H11B 6257   2.180   1.773  10.829  0.9557 -2.5860 -2.3247
   72SLPC     P 6258   2.200   1.536  10.679 -0.2535  0.1636  0.2897
   72SLPC   O13 6259   2.333   1.477  10.716 -0.4987 -0.0539 -0.1071
   72SLPC   O14 6260   2.116   1.444  10.599  0.1053 -0.3669 -0.4526
   72SLPC   O12 6261   2.115   1.579  10.807  0.2524 -0.9029  0.1147
   72SLPC   O11 6262   2.228   1.669  10.598  0.4731  0.0094  0.1842
   72SLPC    C1 6263   2.177   1.684  10.469  0.5587 -0.0291 -0.9304
   72SLPC    HA 6264   2.078   1.635  10.455 -0.2048  0.7559  1.2985
   72SLPC    HB 6265   2.154   1.793  10.459  0.3987  0.2902  2.0636
   72SLPC    C2 6266   2.269   1.638  10.363  0.8054  0.3299  0.1817
   72SLPC    HS 6267   2.316   1.548  10.407  0.4153  0.5030  0.9739
   72SLPC   O21 6268   2.367   1.739  10.342 -0.4408 -0.2280  0.3604
   72SLPC   C21 6269   2.494   1.698  10.335 -0.4495 -0.5376 -0.3537
   72SLPC   O22 6270   2.532   1.583  10.348 -0.3758 -0.2014 -0.3170
   72SLPC   C22 6271   2.582   1.823  10.332 -0.2619 -0.0898  0.2384
   72SLPC   H2R 6272   2.553   1.880  10.423 -2.3270 -0.7696  0.0700
   72SLPC   H2S 6273   2.686   1.789  10.353  0.0383  0.6465 -0.0204
   72SLPC    C3 6274   2.190   1.609  10.236  0.0788  0.2872  0.1942
   72SLPC    HX 6275   2.153   1.708  10.201 -0.8966 -0.8142 -2.0284
   72SLPC    HY 6276   2.100   1.546  10.251  0.8313 -0.7214  0.5657
   72SLPC   O31 6277   2.276   1.561  10.133 -0.1355  0.3635 -0.1303
   72SLPC   C31 6278   2.310   1.435  10.152  0.0511 -0.3985 -0.5812
   72SLPC   O32 6279   2.267   1.372  10.248  0.3774 -0.1861  0.2242
   72SLPC   C32 6280   2.388   1.392  10.026  0.5462 -0.5858 -0.1538
   72SLPC   H2X 6281   2.359   1.290   9.993 -0.2590 -1.0348  1.8120
   72SLPC   H2Y 6282   2.494   1.398  10.060 -0.2758  0.2405  2.5481
   72SLPC   C23 6283   2.573   1.893  10.193 -0.1032  0.0717 -0.2770
   72SLPC   H3R 6284   2.594   2.000  10.210 -2.9430  0.4852  1.0996
   72SLPC   H3S 6285   2.471   1.879  10.151  1.5523 -2.2607 -4.0988
   72SLPC   C24 6286   2.695   1.839  10.114 -0.4447 -0.5767  0.2545
   72SLPC   H4R 6287   2.789   1.844  10.173 -0.7532 -2.4263  0.9776
   72SLPC   H4S 6288   2.711   1.901  10.023  0.2124 -1.4736 -0.2626
   72SLPC   C25 6289   2.686   1.691  10.071 -0.0673  0.2284 -0.7182
   72SLPC   H5R 6290   2.607   1.662   9.999 -1.7389  0.4718  0.9455
   72SLPC   H5S 6291   2.674   1.643  10.171 -1.5006 -1.1788 -1.5395
   72SLPC   C26 6292   2.817   1.631  10.009 -0.0743  0.1752 -0.2172
   72SLPC   H6R 6293   2.791   1.526   9.987  0.0660  0.1794 -0.3960
   72SLPC   H6S 6294   2.895   1.631  10.088  0.9308 -1.3942 -1.1685
   72SLPC   C27 6295   2.867   1.693   9.883  0.0046  0.7158 -0.6824
   72SLPC   H7R 6296   2.901   1.796   9.911  3.0750  0.0456 -1.5286
   72SLPC   H7S 6297   2.795   1.721   9.804  0.0503  2.1481 -0.2511
   72SLPC   C28 6298   2.988   1.613   9.827 -0.2674 -0.3667  0.1251
   72SLPC   H8R 6299   2.950   1.510   9.808  0.6179 -0.5026 -0.9968
   72SLPC   H8S 6300   3.069   1.592   9.900  1.4022  1.6732 -1.0269
   72SLPC   C29 6301   3.045   1.686   9.708 -0.6354  0.4903 -0.0822
   72SLPC   H9R 6302   3.106   1.775   9.730 -0.7754  0.2907  1.1993
   72SLPC  C210 6303   3.033   1.646   9.580 -0.2268 -0.5346  0.2793
   72SLPC  H10R 6304   3.075   1.715   9.505 -0.2764  2.4009  2.7541
   72SLPC  C211 6305   2.954   1.530   9.523 -0.2846 -0.2885  0.1540
   72SLPC  H11R 6306   2.883   1.578   9.453 -0.7445  0.2282  0.9531
   72SLPC  H11S 6307   2.899   1.471   9.600 -1.8425 -0.1917 -0.8687
   72SLPC  C212 6308   3.017   1.417   9.447 -0.2648 -0.2954 -0.5773
   72SLPC  H12R 6309   3.126   1.419   9.435 -0.2244 -0.3803 -0.2323
   72SLPC  C213 6310   2.943   1.314   9.393 -0.1722 -0.0940 -0.0724
   72SLPC  H13R 6311   2.995   1.251   9.319  0.6113  3.3695 -2.7656
   72SLPC  C214 6312   2.794   1.288   9.390 -0.3711 -0.4484 -0.7700
   72SLPC  H14R 6313   2.744   1.375   9.438 -0.2234 -0.3287 -0.8291
   72SLPC  H14S 6314   2.776   1.198   9.452  1.2764 -0.4292 -0.1985
   72SLPC  C215 6315   2.729   1.280   9.250  0.2926  0.3429 -0.5528
   72SLPC  H15R 6316   2.625   1.243   9.263  1.8998 -4.3722  0.9805
   72SLPC  H15S 6317   2.790   1.205   9.195  0.1914 -0.5510  0.5094
   72SLPC  C216 6318   2.717   1.411   9.177 -0.0429 -0.6394  0.4177
   72SLPC  H16R 6319   2.812   1.467   9.173 -1.0443  1.1247  0.4772
   72SLPC  H16S 6320   2.645   1.483   9.222  2.5371  1.7729  0.9814
   72SLPC  C217 6321   2.667   1.391   9.032  0.6027  0.5853 -0.2992
   72SLPC  H17R 6322   2.649   1.489   8.983  3.2044  0.7730 -1.0426
   72SLPC  H17S 6323   2.569   1.339   9.031  0.3045  1.1196 -1.9847
   72SLPC  C218 6324   2.769   1.298   8.952 -1.0350 -0.2598 -0.3726
   72SLPC  H18R 6325   2.768   1.196   8.995  0.2556  0.2757  0.9812
   72SLPC  H18S 6326   2.873   1.335   8.964  0.1587 -3.1042 -1.2360
   72SLPC  H18T 6327   2.743   1.293   8.844  0.7729 -0.7155 -0.8121
   72SLPC   C33 6328   2.373   1.477   9.900 -0.1048 -0.2825  0.8990
   72SLPC   H3X 6329   2.369   1.586   9.920  2.7178 -0.2459  1.6497
   72SLPC   H3Y 6330   2.288   1.437   9.840  3.4080 -0.2285 -4.8186
   72SLPC   C34 6331   2.491   1.447   9.802  0.6827 -0.7339 -0.2649
   72SLPC   H4X 6332   2.487   1.338   9.786  1.5721 -0.6294 -1.2951
   72SLPC   H4Y 6333   2.588   1.460   9.856 -0.7332  1.2980  2.0199
   72SLPC   C35 6334   2.485   1.514   9.663 -0.6909 -0.2076  0.4214
   72SLPC   H5X 6335   2.403   1.463   9.609 -1.2910 -1.0265  2.0398
   72SLPC   H5Y 6336   2.583   1.512   9.610 -0.0504  1.2591  1.4653
   72SLPC   C36 6337   2.457   1.667   9.660 -0.4888 -0.9821 -0.4368
   72SLPC   H6X 6338   2.500   1.735   9.737 -0.3240  0.1537 -1.4998
   72SLPC   H6Y 6339   2.347   1.681   9.668 -0.5732 -2.0621  0.7266
   72SLPC   C37 6340   2.492   1.734   9.525 -0.4381  0.2412 -0.3068
   72SLPC   H7X 6341   2.600   1.756   9.534 -0.7337  0.8888  2.2944
   72SLPC   H7Y 6342   2.448   1.835   9.514 -0.1232  0.2932 -1.1808
   72SLPC   C38 6343   2.464   1.654   9.395 -0.0268  0.5179  0.0162
   72SLPC   H8X 6344   2.519   1.557   9.398  1.1606  1.1937  1.6752
   72SLPC   H8Y 6345   2.499   1.712   9.307 -0.2643  2.7744  1.3146
   72SLPC   C39 6346   2.315   1.617   9.377 -0.7797 -1.1033  0.5466
   72SLPC   H9X 6347   2.247   1.703   9.397 -1.2109 -1.2622 -0.1569
   72SLPC   H9Y 6348   2.299   1.528   9.441 -1.7367 -0.3436  1.4066
   72SLPC  C310 6349   2.283   1.581   9.234 -0.3874 -0.3106 -0.2843
   72SLPC  H10X 6350   2.330   1.643   9.155 -1.7578 -2.7197 -3.1462
   72SLPC  H10Y 6351   2.175   1.594   9.213 -0.8646  0.5045  2.2683
   72SLPC  C311 6352   2.316   1.433   9.196  0.4919  0.5219 -0.3084
   72SLPC  H11X 6353   2.256   1.366   9.262 -0.3638 -0.5424 -2.0826
   72SLPC  H11Y 6354   2.426   1.417   9.198  0.4951  0.5878  1.0397
   72SLPC  C312 6355   2.275   1.393   9.054  0.1674 -0.3637  0.3908
   72SLPC  H12X 6356   2.324   1.295   9.038 -0.1098 -0.3321 -0.7903
   72SLPC  H12Y 6357   2.322   1.456   8.976  2.3017 -1.3650  0.8065
   72SLPC  C313 6358   2.123   1.376   9.022  0.8463  0.4271  0.4181
   72SLPC  H13X 6359   2.075   1.475   9.030 -3.5359 -1.6038  4.3719
   72SLPC  H13Y 6360   2.079   1.314   9.103 -0.4134  0.7940  0.0317
   72SLPC  C314 6361   2.088   1.317   8.882  0.2694  0.1007 -0.2375
   72SLPC  H14X 6362   1.980   1.322   8.854  0.2107 -1.2726 -0.3009
   72SLPC  H14Y 6363   2.128   1.214   8.874  0.5322  0.3694 -4.1957
   72SLPC  C315 6364   2.158   1.398   8.763  0.4614 -0.6488  0.7426
   72SLPC  H15X 6365   2.132   1.347   8.668 -3.1758  0.0359  1.2368
   72SLPC  H15Y 6366   2.266   1.377   8.779  0.2439 -1.3079  1.3648
   72SLPC  C316 6367   2.148   1.560   8.761 -0.9202  1.0648  0.2801
   72SLPC  H16X 6368   2.229   1.591   8.830  0.8467  0.4286 -1.4305
   72SLPC  H16Y 6369   2.047   1.589   8.797 -1.6030  2.0840 -2.2247
   72SLPC  C317 6370   2.170   1.607   8.622 -0.1715 -0.4771  0.3254
   72SLPC  H17X 6371   2.263   1.554   8.592 -1.4205 -2.1898 -0.6945
   72SLPC  H17Y 6372   2.183   1.717   8.625 -0.6162 -0.4285  0.4362
   72SLPC  C318 6373   2.051   1.581   8.527 -0.2823  0.1967 -0.1989
   72SLPC  H18X 6374   2.067   1.611   8.421  1.1823 -1.5090 -0.5099
   72SLPC  H18Y 6375   1.961   1.625   8.576 -0.1495 -0.0880  0.3081
   72SLPC  H18Z 6376   2.049   1.470   8.513  2.7566  0.2562 -1.9237
   73SLPC     N 6377   3.934   0.944  10.714  0.1319 -0.5210  0.1752
   73SLPC   C13 6378   3.927   0.881  10.852  0.5438 -0.2747  0.1967
   73SLPC  H13A 6379   3.912   0.958  10.926 -0.9899  0.6785 -1.0508
   73SLPC  H13B 6380   3.849   0.808  10.864  0.7764 -0.7366 -0.9135
   73SLPC  H13C 6381   4.024   0.836  10.873  1.3131  1.0901 -0.3301
   73SLPC   C14 6382   4.060   1.009  10.688 -0.3980  0.0435 -0.0965
   73SLPC  H14A 6383   4.074   1.087  10.761 -0.4871 -2.4142  2.7473
   73SLPC  H14B 6384   4.147   0.951  10.711  0.2228 -0.5230 -3.3161
   73SLPC  H14C 6385   4.065   1.061  10.593  0.7482 -0.3539 -0.2624
   73SLPC   C15 6386   3.825   1.045  10.702  0.5268  0.3682 -0.1374
   73SLPC  H15A 6387   3.825   1.088  10.603 -1.1017 -1.8526 -1.1862
   73SLPC  H15B 6388   3.734   0.987  10.709  0.2213  0.3821 -2.8612
   73SLPC  H15C 6389   3.841   1.130  10.767  0.8354  1.7537 -1.9190
   73SLPC   C12 6390   3.902   0.836  10.612  0.1398  0.8017  0.3580
   73SLPC  H12A 6391   3.881   0.878  10.515 -0.9051  0.1265  0.2802
   73SLPC  H12B 6392   3.808   0.788  10.635  1.3929 -2.1143 -0.1552
   73SLPC   C11 6393   4.015   0.730  10.599 -0.0648 -0.5004 -0.4602
   73SLPC  H11A 6394   4.116   0.775  10.597 -0.4690  0.6225  1.4535
   73SLPC  H11B 6395   4.001   0.672  10.506 -0.1129 -1.8526  0.3620
   73SLPC     P 6396   3.900   0.558  10.761  0.3396 -0.1925 -0.4251
   73SLPC   O13 6397   3.941   0.475  10.875  0.5129  0.2519 -0.8129
   73SLPC   O14 6398   3.776   0.635  10.777  0.0426 -0.1687  0.3252
   73SLPC   O12 6399   4.018   0.650  10.718  0.4474 -0.2176 -0.2692
   73SLPC   O11 6400   3.878   0.470  10.632  0.6127 -0.0428 -0.2196
   73SLPC    C1 6401   3.948   0.345  10.614 -0.1970 -0.5161 -0.3599
   73SLPC    HA 6402   4.051   0.354  10.654 -0.0075  1.9885 -1.2207
   73SLPC    HB 6403   3.893   0.257  10.654 -0.1197 -0.8725 -1.0242
   73SLPC    C2 6404   3.970   0.334  10.460 -0.3092  0.3480 -0.5983
   73SLPC    HS 6405   4.023   0.424  10.422  0.3801 -0.0653 -0.6331
   73SLPC   O21 6406   3.838   0.314  10.399 -0.9294 -0.3059  0.2986
   73SLPC   C21 6407   3.830   0.361  10.275  0.5928 -0.9055 -0.1288
   73SLPC   O22 6408   3.915   0.427  10.221  0.3533  0.1324  0.1743
   73SLPC   C22 6409   3.688   0.326  10.214  0.2924 -0.0584  0.4232
   73SLPC   H2R 6410   3.713   0.230  10.163 -0.1884  0.2553 -0.4181
   73SLPC   H2S 6411   3.617   0.321  10.300 -0.1615 -0.8491  0.0185
   73SLPC    C3 6412   4.054   0.216  10.431  0.4737  0.5522  0.0099
   73SLPC    HX 6413   3.996   0.125  10.456 -0.7100  1.9130  2.5886
   73SLPC    HY 6414   4.144   0.225  10.496  1.9955  0.8165 -2.0079
   73SLPC   O31 6415   4.096   0.210  10.296  0.1561 -0.5161 -0.0691
   73SLPC   C31 6416   4.210   0.134  10.271 -0.3666  0.5026 -1.1919
   73SLPC   O32 6417   4.280   0.088  10.360 -0.3027  0.0903 -0.4245
   73SLPC   C32 6418   4.239   0.113  10.131 -0.0622 -0.6394  0.0676
   73SLPC   H2X 6419   4.340   0.154  10.110 -0.8711  0.0860 -2.9067
   73SLPC   H2Y 6420   4.159   0.159  10.070  0.8003 -0.4881 -0.9784
   73SLPC   C23 6421   3.631   0.449  10.136 -0.1626 -0.0094  0.1914
   73SLPC   H3R 6422   3.710   0.475  10.063  0.1971 -1.0029  0.2163
   73SLPC   H3S 6423   3.600   0.526  10.210 -0.5778 -0.0526  0.0662
   73SLPC   C24 6424   3.495   0.411  10.068 -0.6390 -0.9386 -0.1189
   73SLPC   H4R 6425   3.436   0.504  10.052  1.3465  0.5866  1.0177
   73SLPC   H4S 6426   3.436   0.338  10.127  0.1622 -2.3459 -0.9994
   73SLPC   C25 6427   3.525   0.348   9.926  0.2340  1.2429 -0.4112
   73SLPC   H5R 6428   3.569   0.247   9.937 -1.8695  0.3750  0.4639
   73SLPC   H5S 6429   3.603   0.412   9.878  1.6642  0.2283  0.4904
   73SLPC   C26 6430   3.394   0.326   9.837  0.3905 -0.4438 -0.0087
   73SLPC   H6R 6431   3.352   0.427   9.819  0.9868  0.2113  2.0139
   73SLPC   H6S 6432   3.308   0.276   9.887 -0.2177  1.2030  0.6780
   73SLPC   C27 6433   3.428   0.259   9.705 -0.3492  0.1501  0.1724
   73SLPC   H7R 6434   3.474   0.158   9.713 -0.6827 -0.4114 -3.2230
   73SLPC   H7S 6435   3.484   0.331   9.642 -3.6863  2.2799 -0.6025
   73SLPC   C28 6436   3.305   0.214   9.623 -0.0302 -0.3552  0.2320
   73SLPC   H8R 6437   3.240   0.304   9.615  1.2818  0.5007 -1.5102
   73SLPC   H8S 6438   3.256   0.134   9.683  0.1212  1.0348  2.3478
   73SLPC   C29 6439   3.350   0.161   9.489 -0.3324 -0.2466  0.8045
   73SLPC   H9R 6440   3.421   0.077   9.483  1.6527  1.4530 -1.0614
   73SLPC  C210 6441   3.329   0.221   9.373 -0.8679 -0.0163  0.5439
   73SLPC  H10R 6442   3.366   0.180   9.278 -0.1088  0.6126  0.5534
   73SLPC  C211 6443   3.245   0.348   9.351 -0.0335  0.5579 -0.1287
   73SLPC  H11R 6444   3.185   0.377   9.440 -1.5912  1.0809 -1.3191
   73SLPC  H11S 6445   3.165   0.321   9.279 -0.5073 -1.3017  1.0214
   73SLPC  C212 6446   3.337   0.447   9.289 -0.0833 -0.4899 -0.5896
   73SLPC  H12R 6447   3.388   0.415   9.197 -0.3881 -1.4125 -0.4479
   73SLPC  C213 6448   3.375   0.570   9.341 -0.1021  0.0941  0.0524
   73SLPC  H13R 6449   3.446   0.630   9.281 -1.4883 -0.5884 -2.4221
   73SLPC  C214 6450   3.332   0.634   9.473 -0.9210 -0.1656  0.5195
   73SLPC  H14R 6451   3.260   0.574   9.533 -1.9777  2.2862  1.8617
   73SLPC  H14S 6452   3.276   0.729   9.459 -2.2478 -0.6914  1.9293
   73SLPC  C215 6453   3.441   0.682   9.566  0.1323 -0.2197 -0.5009
   73SLPC  H15R 6454   3.484   0.773   9.519  0.0093 -0.5870 -1.3312
   73SLPC  H15S 6455   3.518   0.602   9.577  0.0842 -0.1604  0.3414
   73SLPC  C216 6456   3.372   0.719   9.702 -0.0771 -0.4421  0.0144
   73SLPC  H16R 6457   3.297   0.640   9.723  1.2763 -1.6000  0.6952
   73SLPC  H16S 6458   3.306   0.805   9.682 -0.8289 -1.0432 -0.1392
   73SLPC  C217 6459   3.472   0.728   9.809 -0.9047 -0.9684 -0.0924
   73SLPC  H17R 6460   3.546   0.808   9.790  0.5117 -2.4809 -1.2223
   73SLPC  H17S 6461   3.528   0.632   9.821  2.4851  0.9377  0.7193
   73SLPC  C218 6462   3.408   0.740   9.943 -1.0368  0.0646 -0.5084
   73SLPC  H18R 6463   3.379   0.847   9.943  0.7538  0.5804 -0.2785
   73SLPC  H18S 6464   3.474   0.724  10.031  1.0784 -1.4250 -2.2591
   73SLPC  H18T 6465   3.310   0.688   9.952  0.0839 -1.8366  1.6628
   73SLPC   C33 6466   4.232  -0.035  10.083  0.1461 -0.1061  0.5270
   73SLPC   H3X 6467   4.127  -0.070  10.087  0.0959 -0.0523 -0.2911
   73SLPC   H3Y 6468   4.292  -0.103  10.148  0.4397  1.2560  1.7486
   73SLPC   C34 6469   4.281  -0.055   9.941 -0.3227 -0.4223 -0.1572
   73SLPC   H4X 6470   4.377  -0.003   9.920 -0.2867  0.2622  1.5557
   73SLPC   H4Y 6471   4.207  -0.005   9.875 -0.7487  0.9842  1.3230
   73SLPC   C35 6472   4.294  -0.209   9.913  0.3261 -0.2370  0.5299
   73SLPC   H5X 6473   4.343  -0.265   9.995  0.3271 -4.5498 -2.0887
   73SLPC   H5Y 6474   4.362  -0.217   9.826 -1.0792 -0.0690 -0.6274
   73SLPC   C36 6475   4.160  -0.267   9.855 -0.2989 -0.6479  0.3802
   73SLPC   H6X 6476   4.074  -0.211   9.898  0.7634  1.1378  0.2800
   73SLPC   H6Y 6477   4.147  -0.376   9.872 -3.7608 -0.5929 -0.9465
   73SLPC   C37 6478   4.135  -0.246   9.702 -0.3692 -0.1454  0.2629
   73SLPC   H7X 6479   4.152  -0.136   9.693 -0.5541 -0.1522 -0.2090
   73SLPC   H7Y 6480   4.027  -0.264   9.682 -1.1199  2.1007  1.8600
   73SLPC   C38 6481   4.221  -0.331   9.605  0.3225  0.9161  0.7550
   73SLPC   H8X 6482   4.206  -0.440   9.617 -2.8951  1.2084  0.4273
   73SLPC   H8Y 6483   4.327  -0.319   9.635  0.9556 -0.5002 -0.7740
   73SLPC   C39 6484   4.185  -0.306   9.461  0.0651 -0.7266 -0.2315
   73SLPC   H9X 6485   4.091  -0.353   9.426 -0.5199  0.4331 -0.2482
   73SLPC   H9Y 6486   4.271  -0.348   9.403 -0.5134 -2.4463  0.1086
   73SLPC  C310 6487   4.173  -0.156   9.419  0.3681 -0.0536 -0.4283
   73SLPC  H10X 6488   4.253  -0.096   9.468 -2.4619  3.0447  0.7933
   73SLPC  H10Y 6489   4.078  -0.126   9.467  0.0667 -1.7201  0.0760
   73SLPC  C311 6490   4.170  -0.135   9.266 -0.0320 -0.7377 -0.4800
   73SLPC  H11X 6491   4.260  -0.167   9.210  0.5223  0.6461 -0.4182
   73SLPC  H11Y 6492   4.170  -0.025   9.250 -0.6858 -0.8783 -1.5137
   73SLPC  C312 6493   4.043  -0.183   9.194  0.7819 -0.6990 -0.6909
   73SLPC  H12X 6494   3.958  -0.122   9.232 -0.1368 -1.8978 -0.7987
   73SLPC  H12Y 6495   4.023  -0.288   9.223 -2.5107 -0.1283 -0.5687
   73SLPC  C313 6496   4.053  -0.176   9.044 -0.2006 -0.0466  0.2782
   73SLPC  H13X 6497   3.962  -0.233   9.013 -0.9822 -0.3666  2.8960
   73SLPC  H13Y 6498   4.150  -0.210   9.003 -0.1828  1.0351 -0.6118
   73SLPC  C314 6499   4.030  -0.032   8.987  0.3751  0.3965 -0.2462
   73SLPC  H14X 6500   4.097   0.046   9.031 -2.1799  2.0180  1.0251
   73SLPC  H14Y 6501   3.931   0.006   9.020 -0.3805 -1.8067  0.1886
   73SLPC  C315 6502   4.037  -0.033   8.831  0.3674 -0.3611 -0.1863
   73SLPC  H15X 6503   3.928  -0.041   8.810 -0.1326  1.8409  1.1657
   73SLPC  H15Y 6504   4.081  -0.129   8.798 -0.3058 -0.2744 -1.3645
   73SLPC  C316 6505   4.098   0.088   8.767  0.1132 -0.4098  0.9372
   73SLPC  H16X 6506   4.206   0.090   8.795  0.3974 -2.7523  0.2470
   73SLPC  H16Y 6507   4.044   0.182   8.791 -3.3340 -2.0713  0.2935
   73SLPC  C317 6508   4.074   0.079   8.613 -0.0343 -0.1965 -0.0493
   73SLPC  H17X 6509   3.965   0.098   8.601 -0.4497 -1.8528  0.6923
   73SLPC  H17Y 6510   4.093  -0.026   8.583  0.4144 -0.1479  0.0589
   73SLPC  C318 6511   4.162   0.160   8.521  0.6511  0.0318  0.4056
   73SLPC  H18X 6512   4.166   0.263   8.562 -1.3590  0.3299 -0.0579
   73SLPC  H18Y 6513   4.118   0.169   8.420  2.4631 -1.1438 -0.5423
   73SLPC  H18Z 6514   4.263   0.115   8.520  0.8924  0.4937  1.6100
   74SLPC     N 6515   4.051   1.620  10.641  0.0095 -0.0219  0.9315
   74SLPC   C13 6516   4.097   1.477  10.645  0.4572 -0.5551  0.9902
   74SLPC  H13A 6517   4.009   1.416  10.657 -1.3166  0.8114 -3.3224
   74SLPC  H13B 6518   4.146   1.442  10.556  1.6802  0.3555  1.2881
   74SLPC  H13C 6519   4.169   1.469  10.725  0.1610 -4.9827  1.0815
   74SLPC   C14 6520   4.151   1.725  10.641 -0.2553  0.4659  0.0314
   74SLPC  H14A 6521   4.208   1.732  10.549 -0.0231  0.8237  0.1981
   74SLPC  H14B 6522   4.113   1.826  10.641  0.5659  0.7872  0.1165
   74SLPC  H14C 6523   4.216   1.711  10.726  1.4111 -0.0930 -1.2748
   74SLPC   C15 6524   3.983   1.648  10.776  0.1539  0.1013  0.0453
   74SLPC  H15A 6525   4.042   1.624  10.864 -1.1852  1.0215  1.2392
   74SLPC  H15B 6526   3.954   1.751  10.779 -0.0338  0.0676 -0.5675
   74SLPC  H15C 6527   3.895   1.585  10.781  0.8922 -0.9379  0.5348
   74SLPC   C12 6528   3.953   1.653  10.528 -0.5207  0.2253 -0.5428
   74SLPC  H12A 6529   3.878   1.575  10.530 -1.5791  1.2133 -0.7379
   74SLPC  H12B 6530   4.007   1.635  10.436  1.2889  1.6316  0.1779
   74SLPC   C11 6531   3.885   1.787  10.520 -0.4646  0.8601 -0.4041
   74SLPC  H11A 6532   3.830   1.801  10.425 -1.4132 -0.3104 -0.0450
   74SLPC  H11B 6533   3.958   1.872  10.517 -0.2433  0.6942  0.1645
   74SLPC     P 6534   3.634   1.742  10.595  0.1380 -0.4134  0.3094
   74SLPC   O13 6535   3.626   1.620  10.678 -0.4490  0.1195 -0.2918
   74SLPC   O14 6536   3.540   1.856  10.623  0.1181  0.0223  0.1929
   74SLPC   O12 6537   3.780   1.798  10.613  0.2541 -0.1276  0.1161
   74SLPC   O11 6538   3.634   1.699  10.442  0.6065 -0.0617  0.2271
   74SLPC    C1 6539   3.569   1.769  10.338 -0.0068 -0.5120  0.4816
   74SLPC    HA 6540   3.572   1.881  10.339  0.5700 -0.4912 -0.7500
   74SLPC    HB 6541   3.624   1.753  10.243 -1.0053  2.1287 -0.6594
   74SLPC    C2 6542   3.422   1.736  10.315 -0.2701 -0.3214  0.8453
   74SLPC    HS 6543   3.366   1.740  10.411  1.1879  2.2096  1.6862
   74SLPC   O21 6544   3.425   1.604  10.254 -0.0546 -0.2713 -0.2857
   74SLPC   C21 6545   3.318   1.528  10.272  0.6056  0.0851 -0.0581
   74SLPC   O22 6546   3.215   1.567  10.323 -0.0083  0.3837 -0.4869
   74SLPC   C22 6547   3.324   1.388  10.201 -0.2356  0.0611  0.4295
   74SLPC   H2R 6548   3.388   1.403  10.112 -0.5231  1.5839  0.4532
   74SLPC   H2S 6549   3.360   1.304  10.264 -2.7284 -0.6130  1.0620
   74SLPC    C3 6550   3.347   1.828  10.217 -0.0550 -0.3952 -0.6642
   74SLPC    HX 6551   3.340   1.925  10.271  0.6550 -0.2758 -0.7663
   74SLPC    HY 6552   3.242   1.796  10.204 -1.2229  1.9092  1.9340
   74SLPC   O31 6553   3.425   1.864  10.101 -0.2480 -0.2685  0.0242
   74SLPC   C31 6554   3.403   1.783   9.994 -0.4202  0.4635  0.3889
   74SLPC   O32 6555   3.319   1.694   9.990  0.2831  0.2752  0.2303
   74SLPC   C32 6556   3.489   1.819   9.878 -0.3897  0.5675  0.2018
   74SLPC   H2X 6557   3.598   1.816   9.901 -0.8358 -0.3279  2.4541
   74SLPC   H2Y 6558   3.455   1.923   9.856  0.1024  0.7441  0.2684
   74SLPC   C23 6559   3.179   1.354  10.146 -0.0528  0.1306 -0.5497
   74SLPC   H3R 6560   3.138   1.447  10.100  1.9888  1.0857 -0.5449
   74SLPC   H3S 6561   3.121   1.322  10.234  1.2970  1.5612  0.9292
   74SLPC   C24 6562   3.186   1.234  10.048 -0.1278 -0.0629 -0.2512
   74SLPC   H4R 6563   3.085   1.190  10.036 -0.2976  0.3514 -0.3779
   74SLPC   H4S 6564   3.257   1.157  10.084  0.9373  1.3476  0.7928
   74SLPC   C25 6565   3.226   1.276   9.910 -0.2409  0.0967  0.2324
   74SLPC   H5R 6566   3.331   1.309   9.926 -0.5803  0.9077  0.8213
   74SLPC   H5S 6567   3.167   1.364   9.875  0.8781  1.1260  0.8954
   74SLPC   C26 6568   3.207   1.178   9.791 -0.1674 -0.4382 -0.3074
   74SLPC   H6R 6569   3.099   1.181   9.765  0.2825  0.8961 -2.2937
   74SLPC   H6S 6570   3.235   1.072   9.810  0.6835  0.1787  2.1966
   74SLPC   C27 6571   3.282   1.231   9.668  0.1885 -1.1055  0.3969
   74SLPC   H7R 6572   3.392   1.233   9.683  0.6039  0.3932 -2.2565
   74SLPC   H7S 6573   3.248   1.336   9.662 -3.0997 -2.0987 -0.6486
   74SLPC   C28 6574   3.258   1.148   9.538 -0.1266  0.4033 -0.3320
   74SLPC   H8R 6575   3.151   1.159   9.512 -0.8375  0.2810  2.2529
   74SLPC   H8S 6576   3.287   1.044   9.563  1.9301  1.1836  0.7168
   74SLPC   C29 6577   3.350   1.201   9.427 -0.7467 -0.2150  0.0555
   74SLPC   H9R 6578   3.430   1.266   9.466  0.8491 -1.9444 -0.1675
   74SLPC  C210 6579   3.339   1.194   9.291  0.3058 -0.7427  0.0280
   74SLPC  H10R 6580   3.413   1.243   9.226  0.1463  0.3503  0.6504
   74SLPC  C211 6581   3.237   1.115   9.218  0.0638 -0.5445 -0.0323
   74SLPC  H11R 6582   3.143   1.123   9.277  1.2582 -1.2153  2.0528
   74SLPC  H11S 6583   3.266   1.008   9.229 -0.5593 -0.5749  1.5337
   74SLPC  C212 6584   3.203   1.160   9.078  0.0503  0.7211  0.0882
   74SLPC  H12R 6585   3.230   1.266   9.069 -1.3782  1.0372 -0.7754
   74SLPC  C213 6586   3.158   1.077   8.978 -0.6567 -0.3074  0.3551
   74SLPC  H13R 6587   3.118   1.109   8.880 -0.6500 -1.8980 -0.1966
   74SLPC  C214 6588   3.129   0.931   8.989  0.5555 -0.3482 -0.1986
   74SLPC  H14R 6589   3.043   0.912   8.922 -2.0753  3.3995  1.6875
   74SLPC  H14S 6590   3.090   0.899   9.089  0.4681 -1.3092 -0.5360
   74SLPC  C215 6591   3.228   0.818   8.950 -0.2265  0.2611 -0.2424
   74SLPC  H15R 6592   3.169   0.733   8.910 -1.1913 -0.2629  2.1290
   74SLPC  H15S 6593   3.267   0.770   9.042 -2.5221 -0.2645  0.5068
   74SLPC  C216 6594   3.327   0.862   8.840 -0.9024 -0.1838 -0.3298
   74SLPC  H16R 6595   3.402   0.938   8.870 -1.8513  0.5751  0.1699
   74SLPC  H16S 6596   3.270   0.907   8.756  0.4315 -0.3998 -1.3991
   74SLPC  C217 6597   3.401   0.740   8.777  0.9468 -0.3602  1.1354
   74SLPC  H17R 6598   3.457   0.771   8.686 -1.5160 -4.6621 -2.2541
   74SLPC  H17S 6599   3.328   0.664   8.740 -0.7504  1.0301  1.5280
   74SLPC  C218 6600   3.500   0.683   8.879  0.2187  0.3962  0.2903
   74SLPC  H18R 6601   3.560   0.600   8.836  0.8130  0.7982  0.3203
   74SLPC  H18S 6602   3.456   0.649   8.975  0.8543  1.3047  0.9231
   74SLPC  H18T 6603   3.578   0.758   8.905  1.1397 -0.2720 -0.4425
   74SLPC   C33 6604   3.463   1.715   9.764  0.2842  0.0813 -0.1254
   74SLPC   H3X 6605   3.360   1.673   9.765  0.4011 -0.2506  1.9151
   74SLPC   H3Y 6606   3.529   1.630   9.789 -1.1671 -0.8477  0.7416
   74SLPC   C34 6607   3.495   1.771   9.624 -0.1613 -0.3023  0.0646
   74SLPC   H4X 6608   3.600   1.807   9.634 -0.0899 -0.2390 -0.8093
   74SLPC   H4Y 6609   3.439   1.864   9.602  1.1806  0.5803  0.2315
   74SLPC   C35 6610   3.472   1.669   9.512  0.3590 -0.4750  0.5657
   74SLPC   H5X 6611   3.397   1.588   9.522 -0.5172 -0.1601 -2.3254
   74SLPC   H5Y 6612   3.571   1.620   9.501  1.1873  0.9957  1.0788
   74SLPC   C36 6613   3.437   1.726   9.371 -0.1038 -0.3919 -0.2347
   74SLPC   H6X 6614   3.518   1.794   9.337 -1.4091  1.2814 -0.1381
   74SLPC   H6Y 6615   3.352   1.797   9.374  1.4194  1.6836 -2.4877
   74SLPC   C37 6616   3.408   1.610   9.283 -0.3853 -0.3998 -0.1563
   74SLPC   H7X 6617   3.342   1.532   9.328 -0.9095 -0.4866 -1.0373
   74SLPC   H7Y 6618   3.503   1.553   9.271  0.8994  1.6746 -0.2716
   74SLPC   C38 6619   3.358   1.654   9.142 -0.0621 -0.6066 -0.3073
   74SLPC   H8X 6620   3.436   1.720   9.097 -0.4783 -1.3439 -2.2144
   74SLPC   H8Y 6621   3.263   1.708   9.161 -0.3842 -1.4277  0.5203
   74SLPC   C39 6622   3.328   1.527   9.068  0.4365  0.3798 -0.7002
   74SLPC   H9X 6623   3.273   1.454   9.131  1.9792 -0.8000 -0.6487
   74SLPC   H9Y 6624   3.419   1.475   9.031  1.8929  1.1343  1.6049
   74SLPC  C310 6625   3.226   1.561   8.961  0.3547  0.1996  0.1129
   74SLPC  H10X 6626   3.285   1.605   8.878 -2.5166  2.6710 -0.8233
   74SLPC  H10Y 6627   3.155   1.638   8.998 -1.1208 -0.3407 -1.4116
   74SLPC  C311 6628   3.143   1.446   8.908  0.1112  0.2872  0.2139
   74SLPC  H11X 6629   3.070   1.411   8.985 -1.7079  0.2430 -1.4542
   74SLPC  H11Y 6630   3.210   1.361   8.884 -1.4188 -0.9945  0.2787
   74SLPC  C312 6631   3.067   1.484   8.780 -0.1305 -0.0112 -0.3267
   74SLPC  H12X 6632   3.124   1.562   8.725  0.4162  0.2799  0.6186
   74SLPC  H12Y 6633   2.968   1.529   8.805 -0.6589 -1.4839  0.3553
   74SLPC  C313 6634   3.041   1.358   8.688 -0.0594 -0.4854  0.1039
   74SLPC  H13X 6635   2.997   1.279   8.752 -1.4326  0.9362  0.9829
   74SLPC  H13Y 6636   3.136   1.317   8.648  0.7470  0.5640  0.8999
   74SLPC  C314 6637   2.945   1.385   8.564 -0.1326 -0.7630 -0.1052
   74SLPC  H14X 6638   3.010   1.427   8.484  0.9260  0.4714  1.3367
   74SLPC  H14Y 6639   2.872   1.465   8.587  0.7980 -0.4583  2.1571
   74SLPC  C315 6640   2.891   1.255   8.508  0.1797  0.3314 -0.2491
   74SLPC  H15X 6641   2.821   1.203   8.578  1.3398  1.2184  1.6511
   74SLPC  H15Y 6642   2.976   1.187   8.484 -0.4432 -0.2049 -0.9991
   74SLPC  C316 6643   2.811   1.281   8.378 -0.0273 -0.2489 -0.0031
   74SLPC  H16X 6644   2.886   1.307   8.300 -0.4527 -0.1359 -0.3856
   74SLPC  H16Y 6645   2.749   1.372   8.395  1.6078  0.7716  0.6839
   74SLPC  C317 6646   2.734   1.156   8.336 -0.1210  0.3960  0.5229
   74SLPC  H17X 6647   2.648   1.150   8.406 -0.8557 -0.8669 -0.4448
   74SLPC  H17Y 6648   2.794   1.064   8.354 -0.8832  0.2500  2.6445
   74SLPC  C318 6649   2.691   1.156   8.189  0.8745 -0.0717 -0.7710
   74SLPC  H18X 6650   2.775   1.136   8.119  0.2674 -1.1615 -1.2195
   74SLPC  H18Y 6651   2.657   1.257   8.158 -0.9915 -1.5889 -4.1503
   74SLPC  H18Z 6652   2.605   1.088   8.169  0.5322 -0.7696  2.4351
   75SLPC     N 6653   4.856   5.427   6.818 -0.0684  0.2684  0.6729
   75SLPC   C13 6654   5.008   5.426   6.815  0.2561  0.9006 -0.1630
   75SLPC  H13A 6655   5.046   5.512   6.868 -0.2487  0.1732  1.4616
   75SLPC  H13B 6656   5.039   5.345   6.878 -0.6731  0.6240 -0.0444
   75SLPC  H13C 6657   5.044   5.409   6.714  1.3616  1.9988  0.0219
   75SLPC   C14 6658   4.808   5.548   6.749  0.2529 -0.1090  0.2795
   75SLPC  H14A 6659   4.857   5.630   6.799  1.2578 -0.2645 -0.4186
   75SLPC  H14B 6660   4.844   5.559   6.648 -0.9254 -2.3901 -0.4721
   75SLPC  H14C 6661   4.701   5.564   6.749  0.0697 -1.1879 -0.8183
   75SLPC   C15 6662   4.809   5.425   6.958  0.1006 -0.0278  0.3727
   75SLPC  H15A 6663   4.833   5.516   7.011 -0.5154 -0.4311  1.3845
   75SLPC  H15B 6664   4.701   5.419   6.954  0.1608 -1.2678 -3.1679
   75SLPC  H15C 6665   4.859   5.343   7.008  0.3799 -0.5227 -0.7055
   75SLPC   C12 6666   4.796   5.308   6.739 -0.3072 -0.3445 -0.1373
   75SLPC  H12A 6667   4.689   5.313   6.756 -0.2219 -1.5908  0.9349
   75SLPC  H12B 6668   4.837   5.216   6.779  1.1992  0.9747  1.5591
   75SLPC   C11 6669   4.805   5.298   6.585  0.0201  0.2698 -0.5679
   75SLPC  H11A 6670   4.763   5.387   6.534 -0.4557  1.1412  1.2747
   75SLPC  H11B 6671   4.740   5.217   6.545  2.5184 -1.5874 -1.1256
   75SLPC     P 6672   5.016   5.146   6.547 -0.2273  0.7901 -0.3998
   75SLPC   O13 6673   4.944   5.041   6.467  0.4551  0.0777 -0.1146
   75SLPC   O14 6674   5.157   5.175   6.524  0.2396  0.3636 -0.2282
   75SLPC   O12 6675   4.937   5.280   6.530 -0.1325  0.0661  0.1703
   75SLPC   O11 6676   4.993   5.097   6.697 -0.1160 -0.3058 -0.7268
   75SLPC    C1 6677   5.072   4.983   6.729  0.1222  0.4611  0.2717
   75SLPC    HA 6678   5.030   4.895   6.676  2.2421 -1.2436  1.2999
   75SLPC    HB 6679   5.177   4.985   6.692 -0.0324 -0.3267 -0.2422
   75SLPC    C2 6680   5.072   4.957   6.883 -0.3310 -0.7209  0.3008
   75SLPC    HS 6681   5.140   4.872   6.906 -0.2018 -0.7188 -0.0689
   75SLPC   O21 6682   4.939   4.935   6.933  0.0004 -0.0216 -0.5840
   75SLPC   C21 6683   4.879   4.826   6.910 -0.3802 -0.8293 -0.1443
   75SLPC   O22 6684   4.928   4.732   6.845 -0.2822 -0.6906 -0.1950
   75SLPC   C22 6685   4.752   4.813   6.995  0.7920 -0.5793  0.2827
   75SLPC   H2R 6686   4.693   4.905   6.974  1.5132 -0.3481 -0.7906
   75SLPC   H2S 6687   4.703   4.721   6.956  0.2836  0.7280 -2.4716
   75SLPC    C3 6688   5.141   5.069   6.961 -0.8758  0.2552  0.1160
   75SLPC    HX 6689   5.100   5.171   6.941 -1.3556 -0.3407 -2.3068
   75SLPC    HY 6690   5.243   5.064   6.918 -0.8864 -1.9560  0.2355
   75SLPC   O31 6691   5.140   5.030   7.097 -0.2987  0.1249 -0.9431
   75SLPC   C31 6692   5.065   5.098   7.187  0.2394  0.6208  0.3664
   75SLPC   O32 6693   4.991   5.191   7.155 -0.3255  0.6719  0.1230
   75SLPC   C32 6694   5.079   5.033   7.328 -0.3757  0.3327  0.1417
   75SLPC   H2X 6695   5.186   5.035   7.359 -0.7785 -0.6449  1.7161
   75SLPC   H2Y 6696   5.051   4.926   7.331 -1.3622  0.6067  2.2109
   75SLPC   C23 6697   4.776   4.794   7.147 -0.5539 -0.3083  0.1152
   75SLPC   H3R 6698   4.828   4.881   7.193 -1.3587 -0.2994  1.0460
   75SLPC   H3S 6699   4.840   4.704   7.158  1.2145  0.7235 -1.1046
   75SLPC   C24 6700   4.644   4.766   7.222  0.5531  0.0054  0.3555
   75SLPC   H4R 6701   4.579   4.706   7.154 -0.6183  1.2223  0.3581
   75SLPC   H4S 6702   4.600   4.868   7.231 -3.2851 -1.4399 -0.0647
   75SLPC   C25 6703   4.647   4.716   7.364 -0.1882 -0.2495 -0.0978
   75SLPC   H5R 6704   4.628   4.606   7.365  0.6303 -0.3979 -0.0987
   75SLPC   H5S 6705   4.559   4.748   7.425  0.0308 -1.8070  1.1326
   75SLPC   C26 6706   4.772   4.748   7.436 -0.4413  0.1208  0.0169
   75SLPC   H6R 6707   4.812   4.848   7.409 -1.1426 -0.1281 -2.1516
   75SLPC   H6S 6708   4.845   4.671   7.402 -1.9014 -1.1400 -0.3952
   75SLPC   C27 6709   4.763   4.715   7.589 -0.3391 -0.0349  0.1864
   75SLPC   H7R 6710   4.716   4.616   7.606 -0.0979 -0.4613 -1.5398
   75SLPC   H7S 6711   4.697   4.788   7.641 -1.1427 -1.4737  1.2710
   75SLPC   C28 6712   4.904   4.727   7.664  0.3479 -0.1422 -0.1653
   75SLPC   H8R 6713   4.959   4.808   7.613  1.3519 -1.4855 -1.2828
   75SLPC   H8S 6714   4.957   4.630   7.648  0.0879 -0.0736 -1.5892
   75SLPC   C29 6715   4.892   4.751   7.810 -0.0865 -0.6934  0.4055
   75SLPC   H9R 6716   4.791   4.779   7.843 -1.2003 -3.1681 -0.6729
   75SLPC  C210 6717   4.990   4.754   7.891  0.3151 -0.2769 -0.7222
   75SLPC  H10R 6718   4.974   4.805   7.987  1.1289 -1.8086  0.2723
   75SLPC  C211 6719   5.137   4.745   7.844  0.1977  0.4863  0.1167
   75SLPC  H11R 6720   5.184   4.845   7.834  0.0864  0.4192 -1.2818
   75SLPC  H11S 6721   5.142   4.709   7.739 -1.9346 -2.4443  0.8923
   75SLPC  C212 6722   5.215   4.649   7.930  0.3783  0.4800 -0.4086
   75SLPC  H12R 6723   5.230   4.545   7.897  0.5044 -0.5125  2.4824
   75SLPC  C213 6724   5.262   4.671   8.051 -0.6148 -0.7111 -0.6748
   75SLPC  H13R 6725   5.307   4.583   8.099  1.3181  1.2154  1.2339
   75SLPC  C214 6726   5.270   4.797   8.134  0.0921  0.1397  0.0230
   75SLPC  H14R 6727   5.213   4.878   8.085  4.2312  1.8343 -2.4657
   75SLPC  H14S 6728   5.375   4.832   8.131  0.2057 -0.2372 -0.4587
   75SLPC  C215 6729   5.220   4.776   8.285 -0.5498 -0.3406  0.0245
   75SLPC  H15R 6730   5.256   4.861   8.347 -0.5472 -1.3876  1.5093
   75SLPC  H15S 6731   5.260   4.681   8.328 -0.8184 -1.4097 -1.9824
   75SLPC  C216 6732   5.066   4.760   8.290 -0.2240  0.1387  0.2644
   75SLPC  H16R 6733   5.039   4.678   8.220 -0.4651 -1.3061  1.9642
   75SLPC  H16S 6734   5.015   4.851   8.253 -1.2782 -0.7270 -0.4770
   75SLPC  C217 6735   5.010   4.724   8.430  0.4652  0.4461  0.3668
   75SLPC  H17R 6736   5.051   4.791   8.509 -0.7500  0.9075  0.6366
   75SLPC  H17S 6737   5.052   4.624   8.453 -0.8236 -0.3972 -0.7794
   75SLPC  C218 6738   4.858   4.714   8.437  0.4164  0.3548 -0.8368
   75SLPC  H18R 6739   4.813   4.741   8.535 -1.5537 -3.9460 -0.3762
   75SLPC  H18S 6740   4.819   4.615   8.406 -0.0133  0.0485  0.5951
   75SLPC  H18T 6741   4.825   4.789   8.362 -2.7919 -1.1549 -1.0648
   75SLPC   C33 6742   4.995   5.104   7.433  0.5442 -0.6966 -0.5357
   75SLPC   H3X 6743   4.901   5.144   7.389  0.4264 -0.2190  0.1344
   75SLPC   H3Y 6744   4.964   5.017   7.496 -1.9186 -0.2845 -1.0462
   75SLPC   C34 6745   5.071   5.216   7.501  0.6250  0.4746 -0.0915
   75SLPC   H4X 6746   5.003   5.302   7.520 -0.2260  0.0522 -1.1504
   75SLPC   H4Y 6747   5.145   5.254   7.428  1.7707  0.0175  0.7914
   75SLPC   C35 6748   5.132   5.166   7.640 -0.4090 -0.5951  1.0664
   75SLPC   H5X 6749   5.195   5.251   7.671  0.3045  0.1127 -1.9815
   75SLPC   H5Y 6750   5.196   5.078   7.620 -0.4804 -0.5685  0.7169
   75SLPC   C36 6751   5.032   5.138   7.750  0.2282  0.3532  0.2280
   75SLPC   H6X 6752   5.005   5.031   7.759 -2.1626  0.7633 -1.2682
   75SLPC   H6Y 6753   4.941   5.197   7.726  0.9650  1.3898 -0.1205
   75SLPC   C37 6754   5.073   5.175   7.893 -0.6845  0.1650 -0.7701
   75SLPC   H7X 6755   5.099   5.282   7.908  0.8767 -0.3704  0.8102
   75SLPC   H7Y 6756   5.171   5.126   7.915 -0.4547  0.3248 -1.4042
   75SLPC   C38 6757   4.964   5.149   7.995 -0.1070 -0.5482  0.4626
   75SLPC   H8X 6758   4.947   5.041   8.011 -0.8291 -0.3482  1.0973
   75SLPC   H8Y 6759   4.871   5.195   7.954 -0.3638 -0.8049  0.7537
   75SLPC   C39 6760   5.006   5.201   8.133 -0.1830  0.5789 -0.2575
   75SLPC   H9X 6761   5.001   5.312   8.132  1.5202  0.7255  1.5667
   75SLPC   H9Y 6762   5.113   5.183   8.152  0.2433  1.3263 -1.7452
   75SLPC  C310 6763   4.915   5.143   8.240 -1.0349 -0.4479  0.2371
   75SLPC  H10X 6764   4.925   5.034   8.224 -0.7536 -0.1507 -1.8077
   75SLPC  H10Y 6765   4.810   5.172   8.219 -0.8629  0.0087  0.0003
   75SLPC  C311 6766   4.946   5.189   8.385  0.3796 -0.3737  0.2318
   75SLPC  H11X 6767   4.928   5.298   8.400 -2.1971 -0.6679 -0.3598
   75SLPC  H11Y 6768   5.051   5.161   8.408  1.2257  0.0698 -2.6893
   75SLPC  C312 6769   4.847   5.125   8.487 -0.1106  0.2091  0.2356
   75SLPC  H12X 6770   4.869   5.017   8.479 -1.7284 -0.0974 -0.3940
   75SLPC  H12Y 6771   4.744   5.118   8.447  0.7469 -2.6987 -1.7553
   75SLPC  C313 6772   4.848   5.190   8.624  0.2333  1.1774  0.4209
   75SLPC  H13X 6773   4.812   5.294   8.603 -0.2289  0.9329 -0.0263
   75SLPC  H13Y 6774   4.946   5.200   8.674 -0.0135  1.4920  0.8537
   75SLPC  C314 6775   4.747   5.120   8.722 -0.6017  0.0397  0.0699
   75SLPC  H14X 6776   4.790   5.018   8.734 -1.3909 -0.2106  0.8212
   75SLPC  H14Y 6777   4.647   5.121   8.674 -0.8163 -1.6707  0.4286
   75SLPC  C315 6778   4.724   5.187   8.855 -0.7135  0.2205  0.1646
   75SLPC  H15X 6779   4.669   5.278   8.823 -1.0873 -0.5989 -1.6341
   75SLPC  H15Y 6780   4.823   5.223   8.890  0.8146 -0.8082 -2.7840
   75SLPC  C316 6781   4.651   5.106   8.969  0.0328 -0.5057  0.0633
   75SLPC  H16X 6782   4.708   5.014   8.992  1.0650 -0.0866 -0.7404
   75SLPC  H16Y 6783   4.554   5.076   8.924 -0.0318 -0.2598  0.0350
   75SLPC  C317 6784   4.631   5.203   9.086 -0.0060 -0.9528 -0.2202
   75SLPC  H17X 6785   4.557   5.280   9.054 -0.8807 -0.8821  1.8059
   75SLPC  H17Y 6786   4.726   5.245   9.125  0.2685 -2.7994  1.2409
   75SLPC  C318 6787   4.561   5.145   9.216 -0.4383 -0.6437  0.5981
   75SLPC  H18X 6788   4.541   5.221   9.293 -0.9978  0.9043 -1.0060
   75SLPC  H18Y 6789   4.609   5.053   9.257 -2.7779 -2.4825 -0.5604
   75SLPC  H18Z 6790   4.456   5.122   9.188 -0.8061  0.7982  0.7143
   76SLPC     N 6791   1.834   4.945   6.365 -0.1219 -0.1461  0.0099
   76SLPC   C13 6792   1.797   5.052   6.270  0.6932  0.4179 -0.1968
   76SLPC  H13A 6793   1.784   5.014   6.170  1.7618  0.5830 -0.4081
   76SLPC  H13B 6794   1.703   5.092   6.305  1.0455 -0.3550  1.7790
   76SLPC  H13C 6795   1.876   5.125   6.264  0.2626  0.8935 -0.1295
   76SLPC   C14 6796   1.834   4.997   6.506 -0.0869  0.6681  0.0675
   76SLPC  H14A 6797   1.906   5.077   6.519 -1.4221  1.8342  0.5915
   76SLPC  H14B 6798   1.737   5.030   6.542 -0.2402 -0.3079  0.5834
   76SLPC  H14C 6799   1.874   4.922   6.572  1.5843  0.5084 -1.0656
   76SLPC   C15 6800   1.980   4.916   6.342  0.4137  1.1055 -0.2631
   76SLPC  H15A 6801   2.014   4.841   6.412  1.0197  1.5478 -0.0804
   76SLPC  H15B 6802   1.988   4.879   6.241 -0.8683  2.9950 -1.1129
   76SLPC  H15C 6803   2.048   4.998   6.356  1.2621  0.2141  1.0116
   76SLPC   C12 6804   1.743   4.822   6.344 -0.0755  0.2265 -0.6517
   76SLPC  H12A 6805   1.742   4.805   6.237 -2.1469  4.0805 -1.4193
   76SLPC  H12B 6806   1.639   4.844   6.361 -0.8506 -2.4950 -1.2627
   76SLPC   C11 6807   1.765   4.696   6.423 -0.1018  0.7187  0.0525
   76SLPC  H11A 6808   1.789   4.725   6.527  0.9092 -2.3399  0.7709
   76SLPC  H11B 6809   1.851   4.639   6.381 -0.1852 -1.2804  2.4036
   76SLPC     P 6810   1.620   4.483   6.421 -0.0254 -0.4027 -0.6026
   76SLPC   O13 6811   1.493   4.447   6.355  0.4269 -0.3602  1.0278
   76SLPC   O14 6812   1.745   4.419   6.376  0.2603  0.4180 -0.4810
   76SLPC   O12 6813   1.633   4.636   6.424 -0.0763 -0.1530 -0.0710
   76SLPC   O11 6814   1.599   4.462   6.576 -0.0651  0.0022 -0.3365
   76SLPC    C1 6815   1.526   4.559   6.655  0.8261  0.6196  0.0156
   76SLPC    HA 6816   1.596   4.636   6.693  0.9544  0.7856 -0.5433
   76SLPC    HB 6817   1.454   4.602   6.581  2.1467 -0.2424 -1.8457
   76SLPC    C2 6818   1.450   4.493   6.778 -0.2930  0.4108  0.4574
   76SLPC    HS 6819   1.403   4.578   6.832 -1.0660  2.0798 -2.5966
   76SLPC   O21 6820   1.534   4.411   6.859  0.0166 -0.1306 -0.3435
   76SLPC   C21 6821   1.625   4.481   6.922 -0.3994 -0.1818  0.2405
   76SLPC   O22 6822   1.631   4.605   6.928  0.5559  0.1953  0.5479
   76SLPC   C22 6823   1.728   4.388   6.993  0.4590  0.6043  0.8826
   76SLPC   H2R 6824   1.749   4.300   6.930  2.3911  1.1454  0.7005
   76SLPC   H2S 6825   1.830   4.432   6.997  2.4476 -3.6302  1.7967
   76SLPC    C3 6826   1.342   4.396   6.730  0.1675  0.2318 -0.5676
   76SLPC    HX 6827   1.389   4.302   6.694  0.2273 -0.6662  1.7072
   76SLPC    HY 6828   1.289   4.441   6.643  1.6887  3.1295 -0.1297
   76SLPC   O31 6829   1.242   4.373   6.839 -0.6312  0.0479  0.2291
   76SLPC   C31 6830   1.245   4.250   6.887  0.7216  0.1679 -0.6573
   76SLPC   O32 6831   1.318   4.159   6.863  0.2608  0.3090 -0.0138
   76SLPC   C32 6832   1.129   4.233   6.987  0.1713 -0.3982  0.0803
   76SLPC   H2X 6833   1.099   4.126   6.976 -1.8060  0.2024 -0.9336
   76SLPC   H2Y 6834   1.044   4.294   6.950 -0.2415  0.0476  1.6987
   76SLPC   C23 6835   1.674   4.340   7.124  0.1191 -0.1988 -0.1283
   76SLPC   H3R 6836   1.735   4.249   7.141  0.5047  0.2063  0.7124
   76SLPC   H3S 6837   1.568   4.311   7.110  0.3978 -0.4597 -1.9548
   76SLPC   C24 6838   1.698   4.434   7.242 -0.4585  0.0534  0.0936
   76SLPC   H4R 6839   1.645   4.531   7.238  0.5231  0.7492  2.3134
   76SLPC   H4S 6840   1.806   4.461   7.248 -0.7292  1.6832 -1.6097
   76SLPC   C25 6841   1.650   4.356   7.365 -0.3354  0.0477 -0.3210
   76SLPC   H5R 6842   1.700   4.257   7.358 -1.8929 -0.7835 -0.0732
   76SLPC   H5S 6843   1.541   4.336   7.364 -0.4613  0.6054  0.4660
   76SLPC   C26 6844   1.675   4.428   7.498  0.4327  0.3575 -0.0537
   76SLPC   H6R 6845   1.633   4.530   7.484  0.8811  0.5544 -0.0144
   76SLPC   H6S 6846   1.785   4.448   7.501  0.6671  0.9005 -4.5810
   76SLPC   C27 6847   1.623   4.347   7.616 -0.1262 -0.5539 -0.3558
   76SLPC   H7R 6848   1.675   4.248   7.620 -0.0496 -0.5583 -1.3145
   76SLPC   H7S 6849   1.514   4.339   7.597 -0.0555  0.4144 -1.2360
   76SLPC   C28 6850   1.660   4.416   7.757  0.5840  0.0361 -0.2990
   76SLPC   H8R 6851   1.652   4.525   7.740  0.2183 -0.2022 -1.7908
   76SLPC   H8S 6852   1.573   4.391   7.822 -0.1307  1.4951 -0.6625
   76SLPC   C29 6853   1.799   4.393   7.812 -0.6031 -0.4493  0.2774
   76SLPC   H9R 6854   1.875   4.339   7.755 -0.4319 -0.1490  0.2150
   76SLPC  C210 6855   1.844   4.435   7.934 -0.1953 -0.8508 -0.5406
   76SLPC  H10R 6856   1.952   4.448   7.952 -0.5781  4.0745 -0.5465
   76SLPC  C211 6857   1.767   4.499   8.041 -0.6123  0.0041  0.9352
   76SLPC  H11R 6858   1.773   4.432   8.129  1.2509 -1.8184 -0.4814
   76SLPC  H11S 6859   1.660   4.514   8.015 -0.7264 -0.5715  1.0528
   76SLPC  C212 6860   1.831   4.632   8.072  0.0248  0.1303 -0.0552
   76SLPC  H12R 6861   1.829   4.710   7.994 -1.8821 -0.6784 -0.8530
   76SLPC  C213 6862   1.888   4.670   8.187 -0.0312  0.3688 -0.3546
   76SLPC  H13R 6863   1.916   4.774   8.210 -2.1881  0.7920  0.5674
   76SLPC  C214 6864   1.900   4.593   8.311 -0.1228  0.1321 -0.4920
   76SLPC  H14R 6865   1.992   4.534   8.295 -0.5674 -0.6217 -0.3295
   76SLPC  H14S 6866   1.821   4.516   8.329 -0.4972  0.5405 -0.3519
   76SLPC  C215 6867   1.921   4.683   8.438 -0.1326  0.8334  0.9031
   76SLPC  H15R 6868   2.013   4.744   8.435 -0.0192  0.6873  1.3992
   76SLPC  H15S 6869   1.944   4.618   8.525  0.4155  2.6734  2.2108
   76SLPC  C216 6870   1.803   4.775   8.486 -0.0131  0.1232 -0.5005
   76SLPC  H16R 6871   1.711   4.716   8.505  0.3581 -0.0675  0.7989
   76SLPC  H16S 6872   1.799   4.849   8.403  1.1145  0.4429 -0.2925
   76SLPC  C217 6873   1.830   4.849   8.616 -0.2373 -0.1283  0.1701
   76SLPC  H17R 6874   1.934   4.886   8.617 -0.1224 -0.4195  1.6198
   76SLPC  H17S 6875   1.823   4.786   8.707  0.3665  0.9263  0.9592
   76SLPC  C218 6876   1.740   4.970   8.625  0.4455 -0.6213 -0.2835
   76SLPC  H18R 6877   1.752   5.038   8.538  0.1282 -0.5798 -0.2960
   76SLPC  H18S 6878   1.750   5.024   8.722 -0.1652 -0.6472 -0.1984
   76SLPC  H18T 6879   1.633   4.941   8.627  0.0191  0.7894 -1.3101
   76SLPC   C33 6880   1.171   4.277   7.126 -0.3830  0.2728  0.2432
   76SLPC   H3X 6881   1.084   4.305   7.189  0.8843  2.4246  1.1928
   76SLPC   H3Y 6882   1.234   4.369   7.120 -0.6114  0.3778 -0.5664
   76SLPC   C34 6883   1.249   4.177   7.206  0.7976  0.2197 -0.0134
   76SLPC   H4X 6884   1.347   4.137   7.171  0.1837 -0.7307 -0.6768
   76SLPC   H4Y 6885   1.194   4.082   7.191 -2.4241  1.7669  1.1661
   76SLPC   C35 6886   1.230   4.199   7.364  0.3905 -0.3109  0.8447
   76SLPC   H5X 6887   1.122   4.186   7.387  0.3121  0.7522  1.1457
   76SLPC   H5Y 6888   1.265   4.302   7.386 -1.0342  0.3662  0.1013
   76SLPC   C36 6889   1.296   4.087   7.448  0.1923  0.2742 -0.0475
   76SLPC   H6X 6890   1.406   4.081   7.435  0.3808 -0.6467  1.6318
   76SLPC   H6Y 6891   1.245   3.993   7.418 -0.9524 -0.0993  2.6921
   76SLPC   C37 6892   1.284   4.104   7.601  0.0828 -0.4227  0.2926
   76SLPC   H7X 6893   1.182   4.143   7.619 -0.4133 -1.8135  0.5850
   76SLPC   H7Y 6894   1.360   4.180   7.630 -0.7592 -0.1638  1.8900
   76SLPC   C38 6895   1.288   3.986   7.696 -0.0753  0.1911 -0.0252
   76SLPC   H8X 6896   1.363   3.920   7.648 -0.8138 -1.3636  0.8784
   76SLPC   H8Y 6897   1.195   3.925   7.692 -1.0420  1.6015  0.3419
   76SLPC   C39 6898   1.322   4.026   7.840  0.8120 -0.1377 -0.8123
   76SLPC   H9X 6899   1.408   4.095   7.848 -0.8030  1.7465  1.7426
   76SLPC   H9Y 6900   1.331   3.935   7.902  2.5557  0.6090  0.0882
   76SLPC  C310 6901   1.195   4.084   7.905  0.1573 -0.4003 -0.6044
   76SLPC  H10X 6902   1.107   4.017   7.890 -1.3510  1.4323 -0.3671
   76SLPC  H10Y 6903   1.164   4.181   7.861 -0.6575 -0.7016 -0.7125
   76SLPC  C311 6904   1.220   4.098   8.057 -0.2306  0.4735 -0.0644
   76SLPC  H11X 6905   1.245   4.002   8.106 -1.7722 -1.1708 -2.3106
   76SLPC  H11Y 6906   1.127   4.141   8.101  0.6896  2.2104  0.2843
   76SLPC  C312 6907   1.321   4.213   8.090  0.0273  0.6435 -0.5489
   76SLPC  H12X 6908   1.285   4.317   8.076 -0.5521  0.6326  0.7498
   76SLPC  H12Y 6909   1.406   4.195   8.020  2.2317 -1.4787  2.4309
   76SLPC  C313 6910   1.380   4.199   8.229  0.2083  1.1577  0.6846
   76SLPC  H13X 6911   1.452   4.114   8.226 -1.2434 -0.1302  1.0826
   76SLPC  H13Y 6912   1.298   4.166   8.297  0.7828 -1.3050  0.3000
   76SLPC  C314 6913   1.451   4.321   8.290  0.7571 -0.6285  1.2566
   76SLPC  H14X 6914   1.384   4.410   8.283 -0.4151 -1.5144  0.9162
   76SLPC  H14Y 6915   1.540   4.344   8.226 -1.0055 -1.5017 -1.7191
   76SLPC  C315 6916   1.496   4.307   8.435  0.1855 -0.2961  1.2091
   76SLPC  H15X 6917   1.539   4.204   8.436  0.4199 -0.7334 -5.3925
   76SLPC  H15Y 6918   1.408   4.303   8.503 -0.6281  0.3192  0.2186
   76SLPC  C316 6919   1.611   4.394   8.470 -0.9994 -0.5398 -0.2534
   76SLPC  H16X 6920   1.600   4.497   8.431 -2.6038 -0.6396 -0.1208
   76SLPC  H16Y 6921   1.699   4.352   8.417 -0.4077 -0.0746  0.3463
   76SLPC  C317 6922   1.656   4.383   8.618  0.2142  0.2652  0.2037
   76SLPC  H17X 6923   1.760   4.418   8.629  0.1222  0.9840 -1.0665
   76SLPC  H17Y 6924   1.656   4.276   8.649 -0.4801 -0.3204 -1.6802
   76SLPC  C318 6925   1.552   4.450   8.706  0.4362 -0.9960 -0.9939
   76SLPC  H18X 6926   1.574   4.428   8.813  2.1199 -0.3376 -1.1618
   76SLPC  H18Y 6927   1.450   4.420   8.675 -0.2283 -0.2534  0.3883
   76SLPC  H18Z 6928   1.567   4.560   8.698 -0.2207 -1.0209 -2.9720
   77SLPC     N 6929   0.605   3.399   5.832  0.2408  0.6361  0.2913
   77SLPC   C13 6930   0.672   3.262   5.796  0.4348  0.0906 -0.5110
   77SLPC  H13A 6931   0.611   3.183   5.837 -0.6065  0.5733 -1.1135
   77SLPC  H13B 6932   0.673   3.242   5.690 -0.7204 -3.9099  0.0565
   77SLPC  H13C 6933   0.772   3.265   5.839  0.7082 -0.8910 -1.0528
   77SLPC   C14 6934   0.474   3.403   5.750  0.0763 -0.1311 -0.0693
   77SLPC  H14A 6935   0.501   3.393   5.646 -1.1517  2.5964 -0.7144
   77SLPC  H14B 6936   0.405   3.323   5.775 -1.2897 -0.0784 -3.1886
   77SLPC  H14C 6937   0.425   3.499   5.753  0.8399  0.2838 -0.6049
   77SLPC   C15 6938   0.689   3.511   5.791  0.2222 -0.4901  0.3962
   77SLPC  H15A 6939   0.659   3.602   5.841  1.0207 -0.6680  1.2224
   77SLPC  H15B 6940   0.787   3.496   5.833 -0.2237 -3.5083  0.5749
   77SLPC  H15C 6941   0.708   3.522   5.685 -0.2807 -0.6346  0.2865
   77SLPC   C12 6942   0.572   3.410   5.981  0.2331  0.7031  0.3012
   77SLPC  H12A 6943   0.491   3.347   6.015  1.8740 -0.9745  1.3098
   77SLPC  H12B 6944   0.526   3.507   5.995  1.0300  1.2536 -0.7857
   77SLPC   C11 6945   0.690   3.377   6.084  0.0016 -0.5460 -0.4232
   77SLPC  H11A 6946   0.724   3.272   6.073 -0.3780 -0.5140 -2.2614
   77SLPC  H11B 6947   0.643   3.382   6.184  0.1161 -1.0220 -0.3432
   77SLPC     P 6948   0.836   3.587   6.157 -0.3556 -0.2634 -0.2381
   77SLPC   O13 6949   0.974   3.634   6.139 -0.8180  0.1005 -0.0566
   77SLPC   O14 6950   0.731   3.688   6.143 -0.3274 -0.8726 -0.3561
   77SLPC   O12 6951   0.798   3.473   6.060 -0.0912 -0.1472  0.1220
   77SLPC   O11 6952   0.823   3.521   6.298  0.2289  0.1708 -0.2022
   77SLPC    C1 6953   0.920   3.457   6.384 -0.0158  0.3639 -1.1280
   77SLPC    HA 6954   0.922   3.347   6.365  0.6768  0.1348  0.1487
   77SLPC    HB 6955   1.021   3.497   6.361  0.7700 -0.3993  0.7939
   77SLPC    C2 6956   0.896   3.494   6.534  0.0068 -0.0456 -0.3226
   77SLPC    HS 6957   0.806   3.442   6.574 -1.1741  1.9451 -0.2915
   77SLPC   O21 6958   0.881   3.641   6.541  0.1872  0.3981 -0.4143
   77SLPC   C21 6959   0.798   3.696   6.634  0.6709  0.6345  0.1219
   77SLPC   O22 6960   0.722   3.630   6.701 -0.8020 -0.3073 -0.8626
   77SLPC   C22 6961   0.829   3.849   6.643 -0.6873 -0.3174 -0.3587
   77SLPC   H2R 6962   0.917   3.866   6.578 -1.1724  2.2909 -0.4432
   77SLPC   H2S 6963   0.740   3.905   6.606 -1.0182 -0.2639  0.5029
   77SLPC    C3 6964   1.011   3.462   6.637 -0.2111 -0.4978  0.5283
   77SLPC    HX 6965   1.097   3.525   6.606 -0.7737  0.3914  0.7550
   77SLPC    HY 6966   1.036   3.354   6.623 -2.4285 -1.2825  2.1982
   77SLPC   O31 6967   0.984   3.495   6.774 -0.0402 -0.0012  0.2294
   77SLPC   C31 6968   0.925   3.404   6.842 -0.9014  0.7546  0.2454
   77SLPC   O32 6969   0.887   3.295   6.807  0.6224  0.3034  1.0087
   77SLPC   C32 6970   0.891   3.450   6.985 -0.9874 -0.8320 -0.0590
   77SLPC   H2X 6971   0.952   3.537   7.016 -5.7334  2.6898  0.5510
   77SLPC   H2Y 6972   0.914   3.364   7.051  0.5719 -1.0968 -0.8914
   77SLPC   C23 6973   0.865   3.879   6.789  0.2820  0.0700  0.0693
   77SLPC   H3R 6974   0.912   3.978   6.802 -0.8702  0.6852 -0.2794
   77SLPC   H3S 6975   0.937   3.806   6.833  0.5767  0.5385  0.3648
   77SLPC   C24 6976   0.751   3.892   6.888  0.0969  0.9598 -0.0644
   77SLPC   H4R 6977   0.714   3.792   6.919 -1.4932  1.9593  1.4532
   77SLPC   H4S 6978   0.655   3.922   6.841 -2.7180 -4.1315  1.6418
   77SLPC   C25 6979   0.776   3.969   7.014 -0.1011  0.0955  0.4200
   77SLPC   H5R 6980   0.776   4.075   6.981 -0.8422  0.0269  0.1773
   77SLPC   H5S 6981   0.878   3.961   7.057  0.8563 -1.0015 -1.8673
   77SLPC   C26 6982   0.666   3.947   7.119 -0.0387  0.5819 -0.3839
   77SLPC   H6R 6983   0.666   3.839   7.141 -0.2678  0.7116  0.2539
   77SLPC   H6S 6984   0.573   3.963   7.061  0.3581 -1.4394 -1.6678
   77SLPC   C27 6985   0.688   4.033   7.242  0.2287 -0.2883 -0.1078
   77SLPC   H7R 6986   0.608   3.998   7.310 -0.2788 -1.0077 -1.0595
   77SLPC   H7S 6987   0.688   4.144   7.231  0.9400 -0.1976  0.6942
   77SLPC   C28 6988   0.830   4.005   7.304  0.7896  0.2519 -0.0297
   77SLPC   H8R 6989   0.824   4.087   7.379 -0.1701 -1.0456  1.3917
   77SLPC   H8S 6990   0.910   4.047   7.240  1.0490  0.9065  0.7125
   77SLPC   C29 6991   0.848   3.865   7.356 -0.0281 -0.3581  0.5651
   77SLPC   H9R 6992   0.888   3.799   7.277  0.1403  1.7836 -1.2641
   77SLPC  C210 6993   0.834   3.817   7.481 -0.1792  0.6163 -0.1410
   77SLPC  H10R 6994   0.850   3.709   7.497  3.7061  1.2939  1.8333
   77SLPC  C211 6995   0.782   3.897   7.596  0.3528  0.2176 -0.0162
   77SLPC  H11R 6996   0.744   3.996   7.563  0.6606  0.9511  1.7269
   77SLPC  H11S 6997   0.864   3.920   7.667  0.6140  1.5522 -0.7292
   77SLPC  C212 6998   0.674   3.806   7.654  0.3201 -0.2438  1.0252
   77SLPC  H12R 6999   0.593   3.769   7.588  0.7108 -1.0708  0.9945
   77SLPC  C213 7000   0.669   3.776   7.785 -0.6298  0.5629  0.7257
   77SLPC  H13R 7001   0.603   3.697   7.824 -1.6542  0.9674 -0.1255
   77SLPC  C214 7002   0.766   3.820   7.891 -0.2493  0.8716 -0.0409
   77SLPC  H14R 7003   0.820   3.913   7.865  0.2316  0.7196  0.3973
   77SLPC  H14S 7004   0.837   3.736   7.905  1.3034  2.1915  0.2083
   77SLPC  C215 7005   0.698   3.840   8.020  0.3476 -0.4302  0.2649
   77SLPC  H15R 7006   0.629   3.756   8.042 -0.0116 -0.9422 -2.4915
   77SLPC  H15S 7007   0.635   3.931   8.012  1.9757  0.5842 -1.7434
   77SLPC  C216 7008   0.798   3.866   8.135 -0.1808  0.0668  0.7928
   77SLPC  H16R 7009   0.879   3.928   8.091 -1.1023 -0.0225 -1.1337
   77SLPC  H16S 7010   0.848   3.770   8.163  0.3605 -0.0205 -0.4225
   77SLPC  C217 7011   0.734   3.935   8.250  0.3974 -0.4147 -0.4159
   77SLPC  H17R 7012   0.661   3.870   8.302 -1.6610  2.6298  0.8286
   77SLPC  H17S 7013   0.681   4.029   8.224 -2.2182 -0.8147  2.7903
   77SLPC  C218 7014   0.840   3.978   8.355  0.1228 -0.5044  0.4465
   77SLPC  H18R 7015   0.878   3.882   8.397  0.6735 -1.1114 -1.3667
   77SLPC  H18S 7016   0.802   4.047   8.434  0.1069 -1.0937  0.9580
   77SLPC  H18T 7017   0.922   4.022   8.295  0.3364 -0.4147  0.8025
   77SLPC   C33 7018   0.743   3.491   7.003 -0.1714 -0.1090 -0.1108
   77SLPC   H3X 7019   0.663   3.426   6.962  0.2825  0.5529 -2.1456
   77SLPC   H3Y 7020   0.735   3.588   6.949 -1.2377 -0.4460 -0.5945
   77SLPC   C34 7021   0.707   3.526   7.150  0.0644 -0.3438 -0.0094
   77SLPC   H4X 7022   0.640   3.615   7.145 -1.2664 -1.1548  1.9634
   77SLPC   H4Y 7023   0.804   3.564   7.190 -0.2237  0.7303 -0.2884
   77SLPC   C35 7024   0.661   3.413   7.244  0.0032  0.3312  0.4786
   77SLPC   H5X 7025   0.728   3.324   7.245 -0.6411 -0.1904 -0.7545
   77SLPC   H5Y 7026   0.561   3.383   7.206  0.7896 -0.9586 -0.6909
   77SLPC   C36 7027   0.637   3.459   7.383 -0.8113  0.2217 -0.2305
   77SLPC   H6X 7028   0.549   3.527   7.384  0.7355  2.6771 -4.3052
   77SLPC   H6Y 7029   0.723   3.522   7.414 -0.2751 -1.0375  0.9500
   77SLPC   C37 7030   0.612   3.340   7.473 -0.2730  0.3455  0.3548
   77SLPC   H7X 7031   0.708   3.290   7.497 -0.0085  1.0772  0.8492
   77SLPC   H7Y 7032   0.545   3.262   7.430 -0.8021  0.2516  1.3146
   77SLPC   C38 7033   0.559   3.402   7.602  0.5301  0.0356 -0.0177
   77SLPC   H8X 7034   0.455   3.440   7.591 -0.0448 -1.0664  1.3283
   77SLPC   H8Y 7035   0.629   3.479   7.640 -0.5477 -0.1820  2.6128
   77SLPC   C39 7036   0.539   3.288   7.707 -0.3072  0.2678 -0.6524
   77SLPC   H9X 7037   0.637   3.248   7.741 -1.2667 -1.6460  0.0236
   77SLPC   H9Y 7038   0.480   3.206   7.661  0.2772 -0.2909 -0.4273
   77SLPC  C310 7039   0.467   3.321   7.840 -0.5421 -0.3645 -0.4177
   77SLPC  H10X 7040   0.438   3.226   7.891 -0.3047  0.2179  0.8630
   77SLPC  H10Y 7041   0.371   3.370   7.813  0.5374  1.3451 -1.2621
   77SLPC  C311 7042   0.556   3.411   7.937  0.6370 -0.4814  0.1833
   77SLPC  H11X 7043   0.588   3.514   7.912  1.8915 -0.6739  0.9476
   77SLPC  H11Y 7044   0.656   3.371   7.964  0.1700 -3.7934 -2.3233
   77SLPC  C312 7045   0.475   3.426   8.068 -0.3064 -0.0693  0.5767
   77SLPC  H12X 7046   0.428   3.328   8.092 -0.0293 -0.4603 -0.4338
   77SLPC  H12Y 7047   0.393   3.490   8.029  0.5525  0.7898  0.1301
   77SLPC  C313 7048   0.532   3.497   8.187  0.5654 -1.1957  0.6181
   77SLPC  H13X 7049   0.610   3.558   8.137 -0.4030 -0.6761 -0.2943
   77SLPC  H13Y 7050   0.589   3.422   8.246  1.2325  0.1983  1.8044
   77SLPC  C314 7051   0.443   3.589   8.275  0.4636  1.2648 -0.6158
   77SLPC  H14X 7052   0.387   3.673   8.228 -0.0334  1.0865 -0.3477
   77SLPC  H14Y 7053   0.517   3.630   8.346 -1.4939  0.9060  1.7699
   77SLPC  C315 7054   0.355   3.493   8.355 -0.1509  0.0748  0.1996
   77SLPC  H15X 7055   0.416   3.413   8.403 -1.0523  0.5307  2.2253
   77SLPC  H15Y 7056   0.290   3.441   8.281  0.5074 -0.9029  0.2761
   77SLPC  C316 7057   0.268   3.569   8.455  0.3290  0.8270  0.4402
   77SLPC  H16X 7058   0.229   3.499   8.532 -2.7187  2.2531  0.3574
   77SLPC  H16Y 7059   0.182   3.616   8.402 -0.5349 -1.4756 -0.3317
   77SLPC  C317 7060   0.335   3.682   8.535  0.0610  0.7471  0.0632
   77SLPC  H17X 7061   0.354   3.762   8.460  1.4296 -1.2309 -1.8431
   77SLPC  H17Y 7062   0.437   3.651   8.564  0.8752  2.2878 -1.0091
   77SLPC  C318 7063   0.258   3.719   8.659  0.0821 -0.1619 -0.3648
   77SLPC  H18X 7064   0.306   3.814   8.690  2.2839 -0.7189 -1.8163
   77SLPC  H18Y 7065   0.259   3.640   8.737  0.7410  0.7534  0.5818
   77SLPC  H18Z 7066   0.152   3.741   8.631 -0.1067 -0.5716  0.0107
   78SLPC     N 7067   5.381   5.084   6.005 -0.4092  0.7222  0.3269
   78SLPC   C13 7068   5.468   5.183   5.938  0.2625 -0.2475  0.0167
   78SLPC  H13A 7069   5.429   5.282   5.955 -0.0519 -0.3161 -0.2775
   78SLPC  H13B 7070   5.563   5.176   5.988 -0.0209 -2.0300  0.3894
   78SLPC  H13C 7071   5.479   5.169   5.831 -0.5407 -0.4016 -0.0548
   78SLPC   C14 7072   5.406   4.954   5.932  0.0657 -0.0905 -0.5167
   78SLPC  H14A 7073   5.513   4.942   5.926  0.2998  1.6519 -0.4161
   78SLPC  H14B 7074   5.362   4.873   5.988  0.6326 -0.9577 -1.2858
   78SLPC  H14C 7075   5.356   4.954   5.836  0.6108 -1.0923 -0.8239
   78SLPC   C15 7076   5.233   5.128   6.001  0.1717  0.0411  0.3195
   78SLPC  H15A 7077   5.187   5.071   6.080 -0.8399  0.8757  0.3538
   78SLPC  H15B 7078   5.214   5.232   6.021  1.0801 -0.3581  4.0467
   78SLPC  H15C 7079   5.188   5.096   5.908 -1.3705  0.4887  0.8954
   78SLPC   C12 7080   5.420   5.062   6.149  0.2095  0.1191 -0.2916
   78SLPC  H12A 7081   5.406   5.152   6.206  0.3084 -1.3053  2.1248
   78SLPC  H12B 7082   5.525   5.037   6.161 -0.5055 -2.1649  2.4087
   78SLPC   C11 7083   5.350   4.952   6.237  0.1234  0.0743  0.0075
   78SLPC  H11A 7084   5.241   4.964   6.224  0.3453  0.8976 -1.3781
   78SLPC  H11B 7085   5.370   4.984   6.342 -2.6923  1.3692  0.2281
   78SLPC     P 7086   5.518   4.754   6.224  0.1496 -0.4580 -0.1389
   78SLPC   O13 7087   5.522   4.618   6.158  0.1178 -0.0014 -0.2423
   78SLPC   O14 7088   5.629   4.852   6.192  0.2004  0.7102 -0.1447
   78SLPC   O12 7089   5.381   4.820   6.201 -0.4101  0.5078  0.6369
   78SLPC   O11 7090   5.521   4.724   6.374 -0.0315  0.1693  0.3591
   78SLPC    C1 7091   5.433   4.643   6.434 -0.1277 -0.1105 -0.2480
   78SLPC    HA 7092   5.339   4.695   6.463  1.8290  1.8794  3.1709
   78SLPC    HB 7093   5.400   4.556   6.372  0.2245  0.4226 -1.2052
   78SLPC    C2 7094   5.496   4.602   6.571 -0.5233 -0.4313  0.4155
   78SLPC    HS 7095   5.425   4.537   6.627 -0.1431 -0.8412  0.4290
   78SLPC   O21 7096   5.536   4.721   6.645 -0.4658  0.6793  0.2723
   78SLPC   C21 7097   5.431   4.768   6.701  0.7496 -0.0220 -0.4353
   78SLPC   O22 7098   5.319   4.722   6.690  0.2627 -0.1719  0.2455
   78SLPC   C22 7099   5.458   4.875   6.796 -0.2650 -0.4997 -0.3037
   78SLPC   H2R 7100   5.554   4.928   6.778  1.1584 -2.8506  0.0769
   78SLPC   H2S 7101   5.374   4.947   6.784  0.6444  0.2688 -2.6749
   78SLPC    C3 7102   5.629   4.516   6.541 -0.7030 -0.0869  0.1516
   78SLPC    HX 7103   5.691   4.569   6.465 -0.9361  0.3138  0.2389
   78SLPC    HY 7104   5.594   4.421   6.497 -2.7280 -0.6233  2.6867
   78SLPC   O31 7105   5.709   4.489   6.656 -0.0046  0.3633  0.0884
   78SLPC   C31 7106   5.673   4.382   6.736 -0.7533 -0.2989 -0.2880
   78SLPC   O32 7107   5.570   4.319   6.725 -0.0920 -0.7462  1.6487
   78SLPC   C32 7108   5.790   4.345   6.820  0.1266  0.0273 -0.7939
   78SLPC   H2X 7109   5.883   4.365   6.763  2.1875 -1.8846  1.6310
   78SLPC   H2Y 7110   5.778   4.236   6.841  0.1233  0.2642  0.5320
   78SLPC   C23 7111   5.455   4.824   6.942  0.4317 -0.3456  0.3694
   78SLPC   H3R 7112   5.360   4.770   6.958 -1.1045  2.1608  0.2553
   78SLPC   H3S 7113   5.450   4.914   7.007 -3.9054  0.8403 -1.2462
   78SLPC   C24 7114   5.586   4.749   6.987  0.9613  0.0788 -0.1237
   78SLPC   H4R 7115   5.603   4.664   6.917  0.1062 -0.2938  0.1062
   78SLPC   H4S 7116   5.576   4.708   7.090  2.0424 -3.7396 -1.3719
   78SLPC   C25 7117   5.714   4.839   7.002 -0.4991 -0.1226  0.5171
   78SLPC   H5R 7118   5.672   4.941   7.012  0.9601  0.6351 -0.7348
   78SLPC   H5S 7119   5.782   4.849   6.916  2.2878 -0.0811  2.5901
   78SLPC   C26 7120   5.815   4.806   7.118  0.9335 -0.0983  0.4267
   78SLPC   H6R 7121   5.916   4.849   7.100  0.3681  1.2093  0.3368
   78SLPC   H6S 7122   5.841   4.698   7.128  1.4777  0.1484  1.9195
   78SLPC   C27 7123   5.764   4.844   7.252 -0.4414 -0.1490  0.2932
   78SLPC   H7R 7124   5.678   4.775   7.266 -0.9174  0.2839 -0.4330
   78SLPC   H7S 7125   5.718   4.945   7.252 -1.0109 -0.3793 -1.4244
   78SLPC   C28 7126   5.868   4.823   7.368 -0.1881  0.1413 -0.0717
   78SLPC   H8R 7127   5.902   4.718   7.383 -0.3789  0.2007  0.8761
   78SLPC   H8S 7128   5.804   4.834   7.458 -1.0062 -2.2394 -0.2946
   78SLPC   C29 7129   5.972   4.929   7.371 -0.2698  0.3532  0.2561
   78SLPC   H9R 7130   6.029   4.926   7.277  1.4970 -0.4904  1.3097
   78SLPC  C210 7131   5.999   5.023   7.463  0.1721  0.2309  0.1942
   78SLPC  H10R 7132   6.085   5.088   7.444 -0.1349 -0.1452 -3.0309
   78SLPC  C211 7133   5.923   5.037   7.590  0.2540 -0.0206  0.0410
   78SLPC  H11R 7134   5.814   5.027   7.569  0.4648 -1.2571 -0.5334
   78SLPC  H11S 7135   5.942   5.141   7.623 -1.9355  0.3255  0.3977
   78SLPC  C212 7136   5.964   4.931   7.689  0.2881  0.1948  0.2764
   78SLPC  H12R 7137   5.936   4.828   7.661 -0.1769  0.7203 -1.3068
   78SLPC  C213 7138   6.029   4.953   7.812  0.0713  0.2640 -0.5302
   78SLPC  H13R 7139   6.030   4.868   7.882 -0.3689  1.0966  0.5067
   78SLPC  C214 7140   6.071   5.080   7.874 -0.0028  0.3503  0.4496
   78SLPC  H14R 7141   6.053   5.175   7.819  0.4060 -0.2512 -0.7729
   78SLPC  H14S 7142   6.182   5.075   7.869 -0.1045 -1.5263 -2.9951
   78SLPC  C215 7143   6.035   5.089   8.027 -0.3404  0.5491 -0.3346
   78SLPC  H15R 7144   5.926   5.100   8.042 -0.0727  1.9157  0.9496
   78SLPC  H15S 7145   6.085   5.184   8.058  0.7350 -0.6407  1.7655
   78SLPC  C216 7146   6.104   4.976   8.113  0.6682 -0.3991 -0.4037
   78SLPC  H16R 7147   6.214   4.970   8.100  0.2659 -2.0461 -4.3121
   78SLPC  H16S 7148   6.068   4.874   8.090  1.9313 -0.8937 -0.2943
   78SLPC  C217 7149   6.079   4.996   8.266  0.1528 -1.4216  0.3021
   78SLPC  H17R 7150   5.970   5.004   8.287  0.4010  1.3010  0.9055
   78SLPC  H17S 7151   6.118   5.095   8.296 -2.4366  0.3923 -1.8522
   78SLPC  C218 7152   6.128   4.889   8.360 -0.0334 -0.8704  0.5722
   78SLPC  H18R 7153   6.108   4.911   8.468  1.6966 -0.7082  0.8855
   78SLPC  H18S 7154   6.237   4.873   8.347 -0.1845 -2.4135  0.9676
   78SLPC  H18T 7155   6.083   4.789   8.340  0.8177 -1.3013  0.7476
   78SLPC   C33 7156   5.791   4.417   6.958  0.2442 -0.1422 -0.4907
   78SLPC   H3X 7157   5.782   4.525   6.930  2.3616 -0.4138 -2.5445
   78SLPC   H3Y 7158   5.892   4.407   7.004 -0.2068 -0.5354  0.4357
   78SLPC   C34 7159   5.683   4.360   7.046 -0.0468  0.6838 -0.0090
   78SLPC   H4X 7160   5.689   4.249   7.042 -3.2956  0.4330 -2.8273
   78SLPC   H4Y 7161   5.582   4.385   7.006  0.6703  0.1699 -2.3017
   78SLPC   C35 7162   5.701   4.410   7.183 -0.2066 -0.9243 -0.6979
   78SLPC   H5X 7163   5.667   4.515   7.196 -0.2212 -1.1063  0.9714
   78SLPC   H5Y 7164   5.807   4.404   7.216 -0.9345 -0.6232  1.8804
   78SLPC   C36 7165   5.633   4.321   7.293 -0.0915 -0.0881  0.5370
   78SLPC   H6X 7166   5.685   4.349   7.387 -1.9204  0.8989  1.3243
   78SLPC   H6Y 7167   5.660   4.220   7.257  0.3842  0.0662  0.4585
   78SLPC   C37 7168   5.479   4.328   7.309 -0.0659  0.2663  0.1349
   78SLPC   H7X 7169   5.434   4.304   7.211  0.8774  0.3273 -0.3164
   78SLPC   H7Y 7170   5.447   4.433   7.329 -0.1363  0.0444  1.3136
   78SLPC   C38 7171   5.404   4.244   7.416 -0.3872 -0.6533  0.4719
   78SLPC   H8X 7172   5.430   4.136   7.402 -1.0351 -0.8006  0.3625
   78SLPC   H8Y 7173   5.295   4.250   7.396 -0.1953 -1.2684 -0.8852
   78SLPC   C39 7174   5.429   4.289   7.561  0.1778 -0.0686 -0.6580
   78SLPC   H9X 7175   5.415   4.398   7.578  1.1252  0.4013 -2.5411
   78SLPC   H9Y 7176   5.536   4.266   7.581 -0.1145 -0.2957  0.6957
   78SLPC  C310 7177   5.349   4.199   7.660 -0.2003 -0.0370 -0.9604
   78SLPC  H10X 7178   5.369   4.089   7.665 -0.9315 -0.1239  1.0420
   78SLPC  H10Y 7179   5.245   4.192   7.623 -1.0216 -4.2045  1.4473
   78SLPC  C311 7180   5.351   4.259   7.805 -0.6244  0.0230  0.2629
   78SLPC  H11X 7181   5.263   4.218   7.858 -0.7807  0.7411  0.5760
   78SLPC  H11Y 7182   5.338   4.370   7.803 -1.4521 -0.0590  0.7017
   78SLPC  C312 7183   5.474   4.220   7.892  0.1320  0.5860 -0.7641
   78SLPC  H12X 7184   5.575   4.241   7.849  2.4777 -0.6597  3.5985
   78SLPC  H12Y 7185   5.453   4.112   7.902 -1.9398  0.6363 -3.3867
   78SLPC  C313 7186   5.462   4.287   8.031 -0.4309 -0.1007 -0.6063
   78SLPC  H13X 7187   5.359   4.276   8.071 -0.0891  1.5499  0.8539
   78SLPC  H13Y 7188   5.464   4.398   8.034  2.0551 -0.1224  0.8808
   78SLPC  C314 7189   5.566   4.241   8.128  0.3941  0.3140 -0.1378
   78SLPC  H14X 7190   5.550   4.132   8.144  1.1751  0.2738  0.4490
   78SLPC  H14Y 7191   5.546   4.293   8.224  1.4467  0.6317 -0.0777
   78SLPC  C315 7192   5.716   4.265   8.088 -0.1556 -0.1616 -0.6814
   78SLPC  H15X 7193   5.722   4.369   8.048  0.2793  0.5599  1.1769
   78SLPC  H15Y 7194   5.745   4.192   8.009  1.4372  0.1676 -0.4361
   78SLPC  C316 7195   5.811   4.261   8.204 -0.0102  0.2835  0.7231
   78SLPC  H16X 7196   5.911   4.243   8.159  0.4801 -1.2113  2.3276
   78SLPC  H16Y 7197   5.780   4.176   8.267  0.6141 -1.3989 -1.1377
   78SLPC  C317 7198   5.815   4.388   8.294  0.1242  0.8034  0.2354
   78SLPC  H17X 7199   5.712   4.395   8.334  0.4661 -3.4268  2.3494
   78SLPC  H17Y 7200   5.830   4.479   8.231  2.0306 -0.1895 -0.8291
   78SLPC  C318 7201   5.915   4.382   8.414 -0.0278 -0.1594 -0.3363
   78SLPC  H18X 7202   5.882   4.454   8.491  0.4349 -0.2587 -0.0406
   78SLPC  H18Y 7203   6.022   4.399   8.386 -0.3376 -0.4706 -1.8055
   78SLPC  H18Z 7204   5.914   4.283   8.465 -0.2786 -0.6502 -1.2722
   79SLPC     N 7205   3.416   1.796   6.023 -0.2931 -0.2225  0.4066
   79SLPC   C13 7206   3.456   1.919   5.942  0.3956  0.4574 -0.4527
   79SLPC  H13A 7207   3.425   1.899   5.841 -2.7853  0.1735  0.4690
   79SLPC  H13B 7208   3.398   2.004   5.975  0.3374 -0.2407  1.3918
   79SLPC  H13C 7209   3.562   1.937   5.944  0.2273  1.4961 -0.1992
   79SLPC   C14 7210   3.273   1.779   6.000  0.1733  0.2318  0.0104
   79SLPC  H14A 7211   3.234   1.699   6.061 -0.1528  0.1319 -0.3260
   79SLPC  H14B 7212   3.222   1.867   6.035  0.4254  0.4551 -0.1743
   79SLPC  H14C 7213   3.249   1.742   5.902 -1.4835 -1.4883  1.0159
   79SLPC   C15 7214   3.443   1.810   6.163 -0.4050 -0.2126  0.9160
   79SLPC  H15A 7215   3.387   1.889   6.210 -0.7381  0.8679 -1.1483
   79SLPC  H15B 7216   3.425   1.719   6.217  1.2561 -0.8562  0.4734
   79SLPC  H15C 7217   3.545   1.844   6.177 -1.1652  2.7953  0.0415
   79SLPC   C12 7218   3.489   1.671   5.959 -0.2798 -0.1974 -0.5169
   79SLPC  H12A 7219   3.596   1.686   5.960 -0.2451 -0.4665 -0.1421
   79SLPC  H12B 7220   3.460   1.659   5.856  0.1354  1.1012 -0.7983
   79SLPC   C11 7221   3.453   1.530   6.013 -0.8995  0.1442  0.5395
   79SLPC  H11A 7222   3.496   1.455   5.943 -3.8902  1.0103 -2.5386
   79SLPC  H11B 7223   3.342   1.530   6.013 -0.9494 -2.1646  1.7133
   79SLPC     P 7224   3.486   1.392   6.230 -0.3406  0.5900 -0.0205
   79SLPC   O13 7225   3.351   1.332   6.233 -0.0330 -0.1768  0.6225
   79SLPC   O14 7226   3.607   1.305   6.197  0.5935 -0.5219  0.0023
   79SLPC   O12 7227   3.491   1.521   6.144 -0.5583 -0.3660  0.1056
   79SLPC   O11 7228   3.522   1.456   6.372  0.3932  0.0314  0.3861
   79SLPC    C1 7229   3.433   1.550   6.439  0.3927  0.3250 -0.3806
   79SLPC    HA 7230   3.494   1.631   6.483  0.6360  0.1896 -0.4650
   79SLPC    HB 7231   3.368   1.600   6.365  0.7515  1.3299 -0.0266
   79SLPC    C2 7232   3.347   1.494   6.558 -0.2340 -0.4189  0.0122
   79SLPC    HS 7233   3.331   1.582   6.623 -0.1492  0.2709 -0.8817
   79SLPC   O21 7234   3.426   1.390   6.624  0.9265  0.6856  0.5493
   79SLPC   C21 7235   3.527   1.435   6.700  0.3776 -0.5110 -1.0491
   79SLPC   O22 7236   3.559   1.549   6.709 -0.0538 -0.5769 -0.4931
   79SLPC   C22 7237   3.589   1.323   6.775 -0.8259  0.1571 -0.2792
   79SLPC   H2R 7238   3.622   1.250   6.698 -0.7592  1.1461 -1.2073
   79SLPC   H2S 7239   3.672   1.365   6.836  0.1049  1.3615 -2.2856
   79SLPC    C3 7240   3.211   1.440   6.511 -0.6573  0.6219 -0.0239
   79SLPC    HX 7241   3.227   1.348   6.452  1.0240  1.0261 -0.2436
   79SLPC    HY 7242   3.162   1.504   6.434 -0.3258 -1.1090 -1.7363
   79SLPC   O31 7243   3.122   1.420   6.623 -0.1229 -0.2187  0.5779
   79SLPC   C31 7244   3.120   1.299   6.681  0.0470  0.3820 -0.4460
   79SLPC   O32 7245   3.196   1.205   6.656 -0.1373 -0.1534 -0.0949
   79SLPC   C32 7246   3.006   1.293   6.773 -0.1841 -0.0804  0.2858
   79SLPC   H2X 7247   2.914   1.250   6.728  0.3562  1.3064 -2.3703
   79SLPC   H2Y 7248   2.989   1.394   6.817  0.9978 -0.2383  1.1568
   79SLPC   C23 7249   3.495   1.250   6.878  0.1427 -0.4811 -0.1301
   79SLPC   H3R 7250   3.526   1.144   6.890  2.5123  0.2704  1.0249
   79SLPC   H3S 7251   3.396   1.244   6.827 -0.3983 -1.4832  1.0007
   79SLPC   C24 7252   3.492   1.331   7.015  0.6097 -0.4620 -0.0497
   79SLPC   H4R 7253   3.482   1.441   6.999  1.4475  0.1398  2.8510
   79SLPC   H4S 7254   3.588   1.310   7.067  0.8200  0.8060  0.1206
   79SLPC   C25 7255   3.378   1.288   7.102  0.1369  0.8104  0.0449
   79SLPC   H5R 7256   3.360   1.179   7.087 -1.1146  1.2961 -2.4032
   79SLPC   H5S 7257   3.283   1.332   7.066 -1.0042 -0.8406  0.8934
   79SLPC   C26 7258   3.399   1.330   7.244  0.6054  0.2370 -0.4143
   79SLPC   H6R 7259   3.361   1.431   7.269  1.9857  0.6951 -0.0289
   79SLPC   H6S 7260   3.508   1.331   7.269  0.1788 -0.3926  1.7002
   79SLPC   C27 7261   3.340   1.234   7.346  0.3571 -0.8145 -0.0049
   79SLPC   H7R 7262   3.357   1.126   7.328  0.5682 -0.8652  0.4886
   79SLPC   H7S 7263   3.229   1.242   7.341  0.1262 -2.4628  1.3885
   79SLPC   C28 7264   3.384   1.264   7.498 -0.1023  0.6867 -0.7609
   79SLPC   H8R 7265   3.357   1.371   7.513  0.7722  1.1895 -2.4240
   79SLPC   H8S 7266   3.493   1.253   7.517 -0.4369  0.8411  1.4902
   79SLPC   C29 7267   3.307   1.176   7.594 -0.6970  0.1924 -0.0286
   79SLPC   H9R 7268   3.320   1.071   7.565  0.8495  0.7448 -1.4443
   79SLPC  C210 7269   3.253   1.213   7.713 -0.4408 -0.1991  0.1211
   79SLPC  H10R 7270   3.192   1.138   7.766 -0.1087  0.8917  2.1666
   79SLPC  C211 7271   3.249   1.350   7.779 -0.1382  0.3104 -0.4995
   79SLPC  H11R 7272   3.142   1.377   7.789 -0.6936 -2.0690  0.5456
   79SLPC  H11S 7273   3.293   1.427   7.712  2.0438 -1.3199 -1.0436
   79SLPC  C212 7274   3.292   1.374   7.919 -0.1340 -0.7225  0.0343
   79SLPC  H12R 7275   3.355   1.464   7.929  0.5231 -1.1833  0.0633
   79SLPC  C213 7276   3.253   1.315   8.028 -0.4792  0.1720  0.3197
   79SLPC  H13R 7277   3.304   1.333   8.124  0.6823  2.7632 -0.6810
   79SLPC  C214 7278   3.160   1.197   8.029  0.5327 -0.7392  0.8716
   79SLPC  H14R 7279   3.095   1.184   7.939 -0.4793  0.1530  1.4589
   79SLPC  H14S 7280   3.085   1.217   8.109  1.2800  1.0415  1.1528
   79SLPC  C215 7281   3.240   1.070   8.046 -0.0133 -0.5809 -0.7602
   79SLPC  H15R 7282   3.317   1.067   7.966 -1.1838 -0.3233 -1.9155
   79SLPC  H15S 7283   3.180   0.976   8.043 -1.4805  0.2315  1.3056
   79SLPC  C216 7284   3.299   1.056   8.196  0.1900  0.1323  0.0726
   79SLPC  H16R 7285   3.389   1.121   8.198  0.6419 -0.4466 -0.7974
   79SLPC  H16S 7286   3.323   0.949   8.215  1.7519  0.3558 -0.4915
   79SLPC  C217 7287   3.212   1.112   8.309  0.8256  0.2470  0.4796
   79SLPC  H17R 7288   3.109   1.072   8.296  0.5426  1.1132 -0.0596
   79SLPC  H17S 7289   3.194   1.222   8.305 -1.7396 -0.0977  0.8620
   79SLPC  C218 7290   3.270   1.068   8.444 -0.0810  0.3074 -0.4988
   79SLPC  H18R 7291   3.375   1.102   8.452  0.5096 -1.6140  0.6682
   79SLPC  H18S 7292   3.276   0.959   8.465  1.0086  0.7378  1.7068
   79SLPC  H18T 7293   3.216   1.119   8.527  0.3680 -0.4128  0.2526
   79SLPC   C33 7294   3.044   1.210   6.896  0.1977  0.1023  0.0419
   79SLPC   H3X 7295   3.149   1.232   6.925 -0.0971  3.0275 -0.8459
   79SLPC   H3Y 7296   3.032   1.100   6.880  1.3028  0.3149 -3.2089
   79SLPC   C34 7297   2.958   1.249   7.019 -0.0918  0.3429  0.7173
   79SLPC   H4X 7298   2.851   1.228   7.003 -0.3494  1.3293  1.0921
   79SLPC   H4Y 7299   2.958   1.357   7.046 -0.8846  0.7969 -0.9621
   79SLPC   C35 7300   3.015   1.168   7.136 -0.5003 -0.5313  0.0979
   79SLPC   H5X 7301   3.121   1.187   7.162 -0.3272  0.0945 -0.9831
   79SLPC   H5Y 7302   3.015   1.061   7.107 -2.4766 -0.5530  0.0477
   79SLPC   C36 7303   2.932   1.189   7.266  0.6675 -1.2550  0.4124
   79SLPC   H6X 7304   2.822   1.184   7.253  0.7416  0.5869 -1.5087
   79SLPC   H6Y 7305   2.959   1.292   7.299  0.3460 -1.2010  0.5102
   79SLPC   C37 7306   2.973   1.085   7.371 -0.1180 -0.5270 -0.3332
   79SLPC   H7X 7307   3.084   1.084   7.376 -0.0525  2.4925  1.6714
   79SLPC   H7Y 7308   2.941   0.983   7.342 -0.0001 -1.1255  1.5144
   79SLPC   C38 7309   2.938   1.116   7.521 -0.0744 -0.2543 -0.2753
   79SLPC   H8X 7310   2.829   1.134   7.523  0.1858  1.5332  0.0858
   79SLPC   H8Y 7311   2.996   1.206   7.552  1.0417 -0.7202 -0.9152
   79SLPC   C39 7312   2.970   0.994   7.610 -0.0981 -0.1229 -1.0213
   79SLPC   H9X 7313   3.081   0.993   7.618 -0.1546 -0.4869 -0.1956
   79SLPC   H9Y 7314   2.926   0.901   7.568  1.2746 -1.2367 -0.0486
   79SLPC  C310 7315   2.916   1.016   7.749  0.5353 -0.2429  0.3073
   79SLPC  H10X 7316   2.806   1.027   7.739  0.6779  0.6051 -0.4424
   79SLPC  H10Y 7317   2.948   1.112   7.795 -1.7177  1.3497 -1.2752
   79SLPC  C311 7318   2.949   0.896   7.834  0.0158 -0.1748 -0.3305
   79SLPC  H11X 7319   3.054   0.864   7.820  0.1534 -0.2547  0.7996
   79SLPC  H11Y 7320   2.889   0.813   7.792  0.8482 -0.3911 -1.1182
   79SLPC  C312 7321   2.912   0.921   7.980 -0.0016 -0.2490 -0.4609
   79SLPC  H12X 7322   2.803   0.943   7.992  0.4070  1.7071 -0.0628
   79SLPC  H12Y 7323   2.945   1.016   8.028 -1.6420  0.6207 -0.9615
   79SLPC  C313 7324   2.972   0.812   8.074  0.5544 -0.6758 -0.0801
   79SLPC  H13X 7325   3.082   0.805   8.066  0.7865  1.0052  1.1170
   79SLPC  H13Y 7326   2.931   0.714   8.040  0.1842 -1.7213  3.0443
   79SLPC  C314 7327   2.936   0.835   8.225 -0.7314  0.6340  0.0960
   79SLPC  H14X 7328   2.832   0.798   8.238 -0.6159  0.3258  0.1620
   79SLPC  H14Y 7329   2.946   0.942   8.251 -0.2898  0.6653 -0.2040
   79SLPC  C315 7330   3.035   0.755   8.314  0.5662 -0.1440  0.3650
   79SLPC  H15X 7331   3.139   0.776   8.280 -0.4906 -0.3816 -3.4872
   79SLPC  H15Y 7332   3.011   0.650   8.286  2.7766 -0.4766 -0.5018
   79SLPC  C316 7333   3.011   0.779   8.465 -0.2619  0.3938 -0.2892
   79SLPC  H16X 7334   3.006   0.890   8.478  1.3568  0.3479  1.0225
   79SLPC  H16Y 7335   3.093   0.725   8.517  0.2192  1.6096  0.2624
   79SLPC  C317 7336   2.875   0.740   8.529  0.0373 -0.1825  0.3830
   79SLPC  H17X 7337   2.848   0.638   8.495 -2.3067  0.9898 -1.5320
   79SLPC  H17Y 7338   2.800   0.816   8.499  0.2654  0.2807  0.9528
   79SLPC  C318 7339   2.888   0.756   8.679  0.1485  0.1226 -0.0903
   79SLPC  H18X 7340   2.799   0.717   8.732 -0.2718  0.7165 -0.3418
   79SLPC  H18Y 7341   2.905   0.859   8.717  0.1589 -0.7165  2.3717
   79SLPC  H18Z 7342   2.978   0.701   8.714  1.0774  1.1709 -0.7675
   80SLPC     N 7343   2.363   2.904   5.985 -0.9760 -0.0697  0.1095
   80SLPC   C13 7344   2.509   2.927   5.951  0.7185  0.0228  0.0510
   80SLPC  H13A 7345   2.571   2.855   6.002 -0.4801  0.4502  2.2633
   80SLPC  H13B 7346   2.530   2.916   5.846 -0.6498 -0.8541 -0.1608
   80SLPC  H13C 7347   2.533   3.030   5.974 -0.1753 -0.2332  2.4987
   80SLPC   C14 7348   2.329   2.759   5.963  0.3373  0.4443  0.0998
   80SLPC  H14A 7349   2.407   2.689   5.988 -1.0316 -1.8471 -1.5940
   80SLPC  H14B 7350   2.240   2.722   6.012  0.7408 -2.7090 -1.2852
   80SLPC  H14C 7351   2.298   2.747   5.860  1.6635 -2.0546 -0.0699
   80SLPC   C15 7352   2.273   2.985   5.895 -0.1589  0.3015  0.5182
   80SLPC  H15A 7353   2.300   3.089   5.910 -1.2374  0.5599  0.7814
   80SLPC  H15B 7354   2.296   2.969   5.790 -0.5431  2.3466  0.0722
   80SLPC  H15C 7355   2.169   2.967   5.917  0.5925 -2.4921  2.2354
   80SLPC   C12 7356   2.342   2.941   6.130 -0.5485 -0.0396 -0.8805
   80SLPC  H12A 7357   2.238   2.936   6.159  0.0121 -0.5024  1.3041
   80SLPC  H12B 7358   2.353   3.048   6.133  1.2130 -0.1853 -1.0874
   80SLPC   C11 7359   2.432   2.877   6.234 -0.7154  0.3011  0.2332
   80SLPC  H11A 7360   2.430   2.936   6.328 -0.2542  0.2116  0.3030
   80SLPC  H11B 7361   2.539   2.886   6.206  0.0654 -2.3466  1.9371
   80SLPC     P 7362   2.512   2.636   6.296  0.1949  0.2611 -0.3452
   80SLPC   O13 7363   2.470   2.500   6.249  0.1064  0.2060  0.2351
   80SLPC   O14 7364   2.636   2.690   6.240  0.2407  0.5395 -0.2226
   80SLPC   O12 7365   2.399   2.737   6.265 -0.3858  0.2579 -0.1124
   80SLPC   O11 7366   2.529   2.628   6.445 -0.3159  0.0099 -0.0170
   80SLPC    C1 7367   2.428   2.676   6.531 -0.3795  0.3561 -0.5624
   80SLPC    HA 7368   2.470   2.757   6.595  2.1515 -0.6341 -0.8758
   80SLPC    HB 7369   2.340   2.718   6.477 -0.7102 -0.5374 -0.7327
   80SLPC    C2 7370   2.386   2.567   6.626  0.1855 -0.1641  0.1984
   80SLPC    HS 7371   2.319   2.506   6.561  1.0015 -0.1894 -0.6279
   80SLPC   O21 7372   2.323   2.637   6.730 -0.0875  0.3225 -0.5796
   80SLPC   C21 7373   2.231   2.559   6.794 -0.1845 -0.3263 -0.2309
   80SLPC   O22 7374   2.197   2.450   6.761 -0.2876  0.7814  0.0605
   80SLPC   C22 7375   2.174   2.636   6.907  0.7809 -0.2094 -0.5587
   80SLPC   H2R 7376   2.257   2.703   6.937  1.1771 -0.0259 -2.0234
   80SLPC   H2S 7377   2.091   2.702   6.871  1.6613  0.9812 -0.4664
   80SLPC    C3 7378   2.511   2.488   6.671 -0.9578 -0.9151  0.1789
   80SLPC    HX 7379   2.580   2.569   6.703 -0.0942 -2.1961  1.7180
   80SLPC    HY 7380   2.560   2.430   6.591 -2.1963 -2.1119  0.2506
   80SLPC   O31 7381   2.492   2.401   6.781 -0.2823 -0.1557  0.3161
   80SLPC   C31 7382   2.466   2.271   6.751 -0.1186  1.1872  0.5619
   80SLPC   O32 7383   2.439   2.229   6.639  0.3376  0.4851 -0.2126
   80SLPC   C32 7384   2.489   2.192   6.883  0.5922 -0.8986 -0.5883
   80SLPC   H2X 7385   2.450   2.252   6.967  2.0214  1.6838 -1.6393
   80SLPC   H2Y 7386   2.598   2.198   6.902  0.3358  0.8171  0.5173
   80SLPC   C23 7387   2.125   2.542   7.024  0.3629  0.2253 -0.0167
   80SLPC   H3R 7388   2.194   2.457   7.046  3.1283  2.3434  0.0162
   80SLPC   H3S 7389   2.028   2.489   7.013  0.4504 -1.1395  4.1522
   80SLPC   C24 7390   2.092   2.623   7.156  0.4120 -0.0851 -0.2831
   80SLPC   H4R 7391   2.017   2.699   7.127 -0.3388  0.7649  3.3350
   80SLPC   H4S 7392   2.184   2.678   7.187  0.2019  0.3624 -0.4359
   80SLPC   C25 7393   2.045   2.545   7.280 -0.1865 -0.6998  0.3842
   80SLPC   H5R 7394   2.112   2.459   7.298  1.7300  0.6928  0.2623
   80SLPC   H5S 7395   1.949   2.504   7.242 -0.6054 -0.2360  0.9275
   80SLPC   C26 7396   2.021   2.628   7.402 -0.4566  0.3343 -0.3131
   80SLPC   H6R 7397   1.959   2.717   7.382  1.0883  1.2419 -1.2924
   80SLPC   H6S 7398   2.118   2.651   7.451 -1.5843 -2.0091  3.4880
   80SLPC   C27 7399   1.954   2.540   7.513  0.4864 -0.0921 -0.9111
   80SLPC   H7R 7400   2.015   2.448   7.526  1.7863  0.7712 -0.6908
   80SLPC   H7S 7401   1.862   2.515   7.456  1.5766  0.5606 -3.0789
   80SLPC   C28 7402   1.919   2.619   7.643  0.6526  0.2520 -0.4474
   80SLPC   H8R 7403   1.872   2.548   7.714  1.1976 -0.4960 -0.8209
   80SLPC   H8S 7404   1.855   2.706   7.619 -0.0903 -0.6929 -1.9872
   80SLPC   C29 7405   2.043   2.673   7.719  0.4357 -0.1858 -0.3698
   80SLPC   H9R 7406   2.117   2.727   7.658 -0.3283  2.0085  0.5318
   80SLPC  C210 7407   2.073   2.671   7.850  0.6485 -0.5100  0.4169
   80SLPC  H10R 7408   2.172   2.711   7.879  0.5563  0.1129 -0.1098
   80SLPC  C211 7409   1.985   2.621   7.965 -0.1508  0.0195  0.6501
   80SLPC  H11R 7410   1.883   2.597   7.929  0.6184  0.1855 -1.8949
   80SLPC  H11S 7411   1.970   2.693   8.048 -0.5683 -0.6670  1.1802
   80SLPC  C212 7412   2.046   2.499   8.032 -0.1613 -0.6103 -0.3469
   80SLPC  H12R 7413   2.153   2.509   8.056  0.2258 -1.0431 -1.7902
   80SLPC  C213 7414   1.974   2.403   8.085 -0.1340 -0.1898 -0.2930
   80SLPC  H13R 7415   2.017   2.322   8.146  0.0170 -0.3324 -0.5839
   80SLPC  C214 7416   1.823   2.400   8.084  0.2543  0.2834 -0.4252
   80SLPC  H14R 7417   1.786   2.296   8.097  3.9877 -1.1039  0.3917
   80SLPC  H14S 7418   1.782   2.439   7.989 -0.9031 -0.9886 -0.4839
   80SLPC  C215 7419   1.743   2.484   8.190 -0.3347 -0.0671  0.0259
   80SLPC  H15R 7420   1.634   2.493   8.171 -0.9152 -0.7243  2.6672
   80SLPC  H15S 7421   1.776   2.588   8.168 -0.9625 -0.3630 -2.6421
   80SLPC  C216 7422   1.772   2.431   8.333  0.4520  0.0640 -0.2090
   80SLPC  H16R 7423   1.883   2.424   8.338  0.3704 -1.0266  0.4042
   80SLPC  H16S 7424   1.738   2.325   8.330  0.5936 -0.0519  1.2779
   80SLPC  C217 7425   1.698   2.512   8.442  0.3266  0.2816 -0.2567
   80SLPC  H17R 7426   1.591   2.511   8.415 -0.0085  1.9365  0.8568
   80SLPC  H17S 7427   1.753   2.608   8.434 -2.3720  1.7860 -2.4721
   80SLPC  C218 7428   1.714   2.437   8.575 -0.5314  0.2563 -0.3755
   80SLPC  H18R 7429   1.818   2.433   8.616 -0.6599 -3.3518 -0.0633
   80SLPC  H18S 7430   1.685   2.330   8.572  0.4759 -0.0129 -1.3034
   80SLPC  H18T 7431   1.661   2.497   8.652 -0.1686  0.8883 -0.6167
   80SLPC   C33 7432   2.450   2.048   6.877  0.2377  0.3867 -0.7190
   80SLPC   H3X 7433   2.458   1.997   6.778  1.2376  0.2917 -0.5947
   80SLPC   H3Y 7434   2.341   2.040   6.895  0.1590 -1.9474 -1.8451
   80SLPC   C34 7435   2.525   1.958   6.977 -0.7043  0.4186  0.4893
   80SLPC   H4X 7436   2.633   1.964   6.952 -0.5204 -0.6616  0.9775
   80SLPC   H4Y 7437   2.485   1.855   6.981  0.0923  0.0800 -0.0413
   80SLPC   C35 7438   2.498   2.013   7.122  0.8099 -0.1114  0.2087
   80SLPC   H5X 7439   2.387   2.022   7.133  0.8977  0.0419  1.0244
   80SLPC   H5Y 7440   2.540   2.115   7.132  0.0086  0.3563 -0.9711
   80SLPC   C36 7441   2.544   1.920   7.233 -0.1561  0.0236 -0.5607
   80SLPC   H6X 7442   2.654   1.907   7.230 -0.2356 -1.6106  1.1538
   80SLPC   H6Y 7443   2.498   1.819   7.224  1.0767 -0.6630  0.5594
   80SLPC   C37 7444   2.508   1.986   7.372 -0.4012  0.5371  0.3571
   80SLPC   H7X 7445   2.397   1.999   7.376 -0.4239  0.2614  0.6011
   80SLPC   H7Y 7446   2.567   2.080   7.372  0.9032 -0.2359 -1.2775
   80SLPC   C38 7447   2.535   1.887   7.487 -0.3419 -0.3820 -0.3912
   80SLPC   H8X 7448   2.642   1.857   7.484 -0.5718 -1.7752  2.2337
   80SLPC   H8Y 7449   2.473   1.797   7.467  0.1299 -0.7933 -0.0350
   80SLPC   C39 7450   2.491   1.927   7.628 -0.1294  0.0370 -0.3301
   80SLPC   H9X 7451   2.387   1.959   7.648  0.8253  2.5137  1.0125
   80SLPC   H9Y 7452   2.544   2.021   7.654  1.0704 -1.0951  1.5323
   80SLPC  C310 7453   2.526   1.826   7.738  0.1523 -1.2371 -0.4211
   80SLPC  H10X 7454   2.636   1.832   7.750  0.3382 -0.4322 -2.0995
   80SLPC  H10Y 7455   2.497   1.719   7.737 -0.4732 -1.1933  2.9076
   80SLPC  C311 7456   2.467   1.854   7.875  0.7942  0.0670 -0.2810
   80SLPC  H11X 7457   2.357   1.841   7.887  0.8836 -0.0665  0.4041
   80SLPC  H11Y 7458   2.486   1.963   7.885 -1.0820  0.5889 -1.7785
   80SLPC  C312 7459   2.526   1.765   7.990  0.1603 -0.5581 -0.7486
   80SLPC  H12X 7460   2.635   1.776   8.003  0.2607 -1.2460 -0.9638
   80SLPC  H12Y 7461   2.512   1.655   7.978 -1.5421 -0.3310 -1.1823
   80SLPC  C313 7462   2.468   1.807   8.122  0.7307  0.1543 -0.2173
   80SLPC  H13X 7463   2.359   1.790   8.122  0.7937 -0.9125  3.2142
   80SLPC  H13Y 7464   2.479   1.916   8.143 -0.9925  0.6611 -1.6693
   80SLPC  C314 7465   2.525   1.731   8.246 -0.2635  0.5428  0.2115
   80SLPC  H14X 7466   2.636   1.735   8.256 -0.1256  1.4280 -1.2815
   80SLPC  H14Y 7467   2.491   1.627   8.234  0.0544 -0.1553  4.0689
   80SLPC  C315 7468   2.472   1.774   8.387 -0.6415  0.3919  0.1022
   80SLPC  H15X 7469   2.526   1.719   8.467 -0.8067  0.4722  0.2696
   80SLPC  H15Y 7470   2.366   1.743   8.396 -0.4331 -0.1802  0.6670
   80SLPC  C316 7471   2.488   1.926   8.412 -0.2243 -0.0856  0.2503
   80SLPC  H16X 7472   2.401   1.982   8.374  0.2693  1.2455  1.0030
   80SLPC  H16Y 7473   2.582   1.964   8.368  0.2976 -2.8074 -1.1942
   80SLPC  C317 7474   2.484   1.966   8.554  0.9351 -0.6578  0.5100
   80SLPC  H17X 7475   2.576   1.928   8.603  1.2542  1.2027  1.4006
   80SLPC  H17Y 7476   2.399   1.919   8.609 -0.2040  0.0820 -0.5606
   80SLPC  C318 7477   2.483   2.116   8.564  0.0035 -0.6003 -0.8783
   80SLPC  H18X 7478   2.489   2.145   8.671  1.1364 -1.9272 -0.5524
   80SLPC  H18Y 7479   2.400   2.158   8.504  0.0024  0.2041 -0.3327
   80SLPC  H18Z 7480   2.573   2.161   8.517  1.5807 -0.9503  1.5722
   81SAPS     N 7481   6.001   4.320  11.044  0.4300  0.3682  0.0156
   81SAPS   HN1 7482   5.926   4.310  10.973  0.9729  0.1151 -0.5318
   81SAPS   HN2 7483   6.037   4.224  11.060 -1.1299  0.0036  1.6653
   81SAPS   HN3 7484   5.949   4.350  11.129  1.7356  1.3940  0.4836
   81SAPS   C12 7485   6.102   4.420  11.007  0.1752 -0.3662  0.1637
   81SAPS  H12A 7486   6.146   4.455  11.099  0.4794 -0.1803 -0.0504
   81SAPS   C13 7487   6.214   4.353  10.923 -0.3884  0.9134  0.0440
   81SAPS  O13A 7488   6.231   4.227  10.930 -0.0303 -0.3321  0.3954
   81SAPS  O13B 7489   6.305   4.425  10.888 -0.3661 -0.3889 -0.3689
   81SAPS   C11 7490   6.041   4.541  10.921  0.1752  1.0446  0.6571
   81SAPS  H11A 7491   5.972   4.493  10.849  0.6880 -0.9105  1.3818
   81SAPS  H11B 7492   6.125   4.599  10.877  1.1568 -1.2890 -0.7735
   81SAPS     P 7493   5.817   4.652  11.005  0.2740 -0.6018  0.4275
   81SAPS   O13 7494   5.750   4.532  10.982  0.2162 -0.5548  0.3145
   81SAPS   O14 7495   5.777   4.726  11.127 -0.4103  0.5135 -0.3014
   81SAPS   O12 7496   5.974   4.625  11.017 -0.3932 -0.1891 -0.4901
   81SAPS   O11 7497   5.805   4.747  10.879 -0.2043  0.6548  0.4348
   81SAPS    C1 7498   5.857   4.879  10.870  0.3055  0.0165 -0.8463
   81SAPS    HA 7499   5.770   4.948  10.869 -0.9959 -1.3511  2.7521
   81SAPS    HB 7500   5.926   4.911  10.951 -0.8384 -1.8087  0.9246
   81SAPS    C2 7501   5.921   4.906  10.726 -0.0221 -0.0134 -0.0998
   81SAPS    HS 7502   5.955   5.012  10.725 -0.4211  0.1230 -1.5068
   81SAPS   O21 7503   5.821   4.875  10.632  0.1148  0.6021 -0.0678
   81SAPS   C21 7504   5.758   4.980  10.577  0.4300 -0.6684 -0.0575
   81SAPS   O22 7505   5.786   5.094  10.603 -0.1079 -0.0433 -0.2010
   81SAPS   C22 7506   5.647   4.936  10.482  0.4078  0.0118 -0.8711
   81SAPS   H2R 7507   5.607   4.836  10.509  1.8101 -0.0353  1.2666
   81SAPS   H2S 7508   5.569   5.014  10.498  0.4715  0.2123 -1.4837
   81SAPS    C3 7509   6.037   4.815  10.708  0.3612  0.7359  0.2646
   81SAPS    HX 7510   6.001   4.710  10.716 -1.1535  1.1959 -0.1890
   81SAPS    HY 7511   6.112   4.840  10.786 -0.0829  2.2975  0.2127
   81SAPS   O31 7512   6.095   4.822  10.569 -0.2341 -0.2031 -0.0487
   81SAPS   C31 7513   6.181   4.920  10.560 -0.4003  0.3761  0.3380
   81SAPS   O32 7514   6.215   4.993  10.651  0.0362 -0.3300  0.2712
   81SAPS   C32 7515   6.200   4.943  10.410 -0.9472 -0.6758  0.6407
   81SAPS   H2X 7516   6.204   5.052  10.388 -1.2688 -1.2357 -2.6266
   81SAPS   H2Y 7517   6.109   4.906  10.358 -0.5914 -0.3916 -0.1969
   81SAPS   C23 7518   5.687   4.931  10.336 -1.4061  0.0651 -0.5092
   81SAPS   H3R 7519   5.614   4.869  10.280 -0.0314  0.4602 -2.9200
   81SAPS   H3S 7520   5.788   4.885  10.334 -0.4241  2.0306  0.8543
   81SAPS   C24 7521   5.683   5.071  10.264 -0.4724  0.4942  0.1517
   81SAPS   H4R 7522   5.763   5.133  10.309  0.2301  0.8420 -1.5071
   81SAPS   H4S 7523   5.587   5.122  10.286  0.2555  1.7429  0.5528
   81SAPS   C25 7524   5.715   5.078  10.114  0.1270  0.3822 -0.4327
   81SAPS   H5R 7525   5.627   5.083  10.047 -1.2139 -0.2412  1.2038
   81SAPS   C26 7526   5.838   5.075  10.060 -0.4458 -0.0643 -0.0502
   81SAPS   H6R 7527   5.845   5.085   9.951 -0.3471  0.1585 -0.0247
   81SAPS   C27 7528   5.974   5.080  10.138  0.6270  0.0356  0.0220
   81SAPS   H7R 7529   6.025   4.984  10.114  1.6061  0.7117 -0.6678
   81SAPS   H7S 7530   5.947   5.073  10.245  0.7649 -0.0773  0.0488
   81SAPS   C28 7531   6.067   5.190  10.108  0.9763 -0.7491  0.2147
   81SAPS   H8R 7532   6.072   5.276  10.177  0.4909  0.2706 -0.9922
   81SAPS   C29 7533   6.154   5.206  10.004 -0.1896  0.6644  0.0741
   81SAPS   H9R 7534   6.219   5.295   9.998  0.9601 -0.2119 -0.8998
   81SAPS  C210 7535   6.181   5.110   9.892  0.4528 -0.2815  0.6527
   81SAPS  H10R 7536   6.128   5.014   9.907  1.7443 -0.8911  1.4721
   81SAPS  H10S 7537   6.289   5.084   9.894  0.4019 -0.4708  0.8391
   81SAPS  C211 7538   6.141   5.192   9.770  0.0765 -0.1232  0.2898
   81SAPS  H11R 7539   6.031   5.191   9.764  0.0727  1.2740 -0.2888
   81SAPS  C212 7540   6.212   5.259   9.679  0.5528 -0.5948 -1.3585
   81SAPS  H12R 7541   6.149   5.313   9.607 -1.3514  1.1052  1.3715
   81SAPS  C213 7542   6.366   5.277   9.674 -0.0734 -0.0704  0.9625
   81SAPS  H13R 7543   6.405   5.251   9.573 -1.6265 -1.3331  0.6506
   81SAPS  H13S 7544   6.414   5.201   9.738  0.7065 -1.7731 -1.5004
   81SAPS  C214 7545   6.397   5.424   9.711 -0.8927  0.1755 -0.6760
   81SAPS  H14R 7546   6.384   5.426   9.820 -2.9099  1.1978 -0.9001
   81SAPS  C215 7547   6.415   5.530   9.638 -0.0271 -0.0107  0.5333
   81SAPS  H15R 7548   6.449   5.624   9.685  1.4936  0.3014 -1.0645
   81SAPS  C216 7549   6.439   5.529   9.486 -0.5554 -0.4512 -0.5642
   81SAPS  H16R 7550   6.376   5.614   9.453  0.0685  0.3571  0.2743
   81SAPS  H16S 7551   6.402   5.430   9.451 -2.0676 -1.0258  2.3069
   81SAPS  C217 7552   6.588   5.553   9.446  0.6492  0.4522 -0.0243
   81SAPS  H17R 7553   6.603   5.468   9.376  0.5678 -0.6762  1.2821
   81SAPS  H17S 7554   6.655   5.525   9.531  0.1099  0.6427  0.4691
   81SAPS  C218 7555   6.610   5.687   9.373 -0.1407 -0.1724 -0.0635
   81SAPS  H18R 7556   6.626   5.769   9.446 -1.5901  1.7166 -1.7454
   81SAPS  H18S 7557   6.518   5.714   9.317  0.7377  2.3028 -0.4367
   81SAPS  C219 7558   6.733   5.675   9.281 -0.7194  0.3549 -0.1006
   81SAPS  H19R 7559   6.709   5.613   9.192 -0.0605 -1.5565  1.0005
   81SAPS  H19S 7560   6.817   5.620   9.327 -0.9432 -0.2091 -0.3612
   81SAPS  C220 7561   6.795   5.812   9.237  0.3794 -0.7824  0.2871
   81SAPS  H20R 7562   6.860   5.852   9.317  0.6466  0.9387 -0.7392
   81SAPS  H20S 7563   6.708   5.878   9.216  0.7917 -0.7595 -1.4955
   81SAPS  H20T 7564   6.852   5.801   9.142 -1.9257  2.4450 -1.7180
   81SAPS   C33 7565   6.331   4.880  10.367 -0.4872  0.9112  0.2267
   81SAPS   H3X 7566   6.337   4.770  10.369 -4.4703  0.3057 -4.0186
   81SAPS   H3Y 7567   6.420   4.927  10.414  1.5699 -1.3569 -1.2190
   81SAPS   C34 7568   6.358   4.902  10.214 -0.0338 -0.0437 -0.0789
   81SAPS   H4X 7569   6.342   5.007  10.183 -0.7661  0.1191  0.8140
   81SAPS   H4Y 7570   6.273   4.857  10.157  0.8613 -1.1483 -0.5926
   81SAPS   C35 7571   6.495   4.856  10.175 -0.4554  0.6676  0.5314
   81SAPS   H5X 7572   6.502   4.748  10.199 -2.8246  0.0560 -1.1673
   81SAPS   H5Y 7573   6.566   4.905  10.245 -1.3623 -1.1669  2.8744
   81SAPS   C36 7574   6.563   4.880  10.032  1.1895 -0.3332 -0.6164
   81SAPS   H6X 7575   6.500   4.835   9.952  0.9187  0.4185 -0.8397
   81SAPS   H6Y 7576   6.661   4.829  10.033  1.4228  0.1112 -0.2356
   81SAPS   C37 7577   6.593   5.035  10.005  0.2138 -0.1168 -0.6117
   81SAPS   H7X 7578   6.660   5.067  10.088  0.3179 -0.6577 -0.4834
   81SAPS   H7Y 7579   6.510   5.107   9.995  0.2615 -0.3291 -3.6504
   81SAPS   C38 7580   6.676   5.056   9.879  0.3857  0.2138  0.1421
   81SAPS   H8X 7581   6.611   5.045   9.789 -1.1315 -2.7667  1.4704
   81SAPS   H8Y 7582   6.748   4.973   9.887 -1.4587 -1.6818 -1.5781
   81SAPS   C39 7583   6.755   5.191   9.881  0.9949  0.7757 -0.6572
   81SAPS   H9X 7584   6.799   5.214   9.981 -1.4439  2.3301  0.1403
   81SAPS   H9Y 7585   6.678   5.269   9.866 -0.0863 -0.1876 -0.2341
   81SAPS  C310 7586   6.865   5.183   9.773 -0.3028  0.2024 -0.9731
   81SAPS  H10X 7587   6.817   5.179   9.673 -0.1346 -0.3135 -1.0362
   81SAPS  H10Y 7588   6.912   5.082   9.767 -0.9908 -0.0667 -5.0567
   81SAPS  C311 7589   6.966   5.301   9.770 -0.2494  0.1895 -0.0351
   81SAPS  H11X 7590   7.012   5.309   9.871 -2.9237 -0.7367  1.3470
   81SAPS  H11Y 7591   6.914   5.399   9.760 -1.5142 -0.6064 -1.5992
   81SAPS  C312 7592   7.071   5.289   9.656  0.8331  0.5291 -0.8167
   81SAPS  H12X 7593   7.112   5.186   9.652  2.0665  0.9809 -0.5037
   81SAPS  H12Y 7594   7.162   5.343   9.690  3.5197 -4.2983  0.5376
   81SAPS  C313 7595   7.004   5.333   9.523  0.4549  0.6466  0.2639
   81SAPS  H13X 7596   6.990   5.443   9.530  2.0051  0.8494  0.4972
   81SAPS  H13Y 7597   6.906   5.282   9.513  1.9209 -2.3047 -0.0332
   81SAPS  C314 7598   7.088   5.316   9.393  0.5963  0.1401  0.3341
   81SAPS  H14X 7599   7.094   5.209   9.362 -1.5169 -0.6758  2.4257
   81SAPS  H14Y 7600   7.194   5.349   9.398  1.1741 -0.8563 -2.9160
   81SAPS  C315 7601   7.035   5.380   9.262  0.1274 -0.0683 -0.6855
   81SAPS  H15X 7602   6.990   5.480   9.276  1.8307  0.9151 -1.8361
   81SAPS  H15Y 7603   6.957   5.309   9.225 -1.5516  0.1205  2.2273
   81SAPS  C316 7604   7.151   5.387   9.156  0.0069  0.1474  0.0828
   81SAPS  H16X 7605   7.209   5.292   9.163  1.9298  1.1716 -0.9203
   81SAPS  H16Y 7606   7.220   5.468   9.188 -1.2790  0.9945  0.8027
   81SAPS  C317 7607   7.106   5.396   9.009 -0.3576 -0.8401 -0.2888
   81SAPS  H17X 7608   7.040   5.309   8.988 -1.7478  0.3822 -1.1388
   81SAPS  H17Y 7609   7.191   5.407   8.939  0.4310  3.8938  1.0446
   81SAPS  C318 7610   7.027   5.528   8.982 -1.4492 -0.2243  0.3594
   81SAPS  H18X 7611   6.933   5.520   9.040 -1.4987  1.0977  0.4890
   81SAPS  H18Y 7612   7.000   5.536   8.875  1.0067  1.3227 -0.2426
   81SAPS  H18Z 7613   7.088   5.612   9.022  1.3143 -1.5842 -0.7506
   82SAPS     N 7614   6.582   5.835  10.950 -0.1894  0.0936 -0.3136
   82SAPS   HN1 7615   6.593   5.798  11.046 -0.5002  1.8450  0.4360
   82SAPS   HN2 7616   6.492   5.795  10.917 -0.6693 -0.3178  1.4112
   82SAPS   HN3 7617   6.661   5.804  10.890  2.0509  0.3622  2.3264
   82SAPS   C12 7618   6.590   5.982  10.949  0.0070  0.4165 -0.0476
   82SAPS  H12A 7619   6.492   6.014  10.983  0.0768 -0.3049  0.8897
   82SAPS   C13 7620   6.697   6.044  11.044 -0.9848  0.0512  0.0032
   82SAPS  O13A 7621   6.757   5.977  11.137  0.4540 -0.0585  0.0978
   82SAPS  O13B 7622   6.703   6.166  11.053  0.0297 -0.1130  0.1466
   82SAPS   C11 7623   6.614   6.032  10.805  0.9484 -0.0524 -0.0211
   82SAPS  H11A 7624   6.709   5.985  10.773 -0.2520 -1.1060 -2.2891
   82SAPS  H11B 7625   6.630   6.142  10.805 -0.1858  0.2420 -3.8999
   82SAPS     P 7626   6.390   6.091  10.679 -0.0853  0.1313  0.0832
   82SAPS   O13 7627   6.352   6.051  10.540 -0.0036 -0.0912 -0.6459
   82SAPS   O14 7628   6.293   6.084  10.786  0.3603 -0.2176  0.5202
   82SAPS   O12 7629   6.514   6.001  10.714 -0.0953 -0.5271  0.6239
   82SAPS   O11 7630   6.453   6.239  10.685  0.5707  0.3065 -0.2082
   82SAPS    C1 7631   6.561   6.282  10.602  0.0731  0.4380  0.1311
   82SAPS    HA 7632   6.644   6.330  10.659  1.7039 -1.8146 -0.2386
   82SAPS    HB 7633   6.609   6.192  10.559 -2.7356 -1.2511  0.2952
   82SAPS    C2 7634   6.511   6.372  10.487  0.4573  0.2370  0.2439
   82SAPS    HS 7635   6.507   6.476  10.526  0.0255  0.2260  0.2234
   82SAPS   O21 7636   6.386   6.339  10.429 -0.0050 -0.3394  0.1695
   82SAPS   C21 7637   6.272   6.392  10.492 -0.3188  0.6334 -0.1556
   82SAPS   O22 7638   6.279   6.491  10.562  0.3172 -0.4751  0.1448
   82SAPS   C22 7639   6.153   6.317  10.444 -0.4606  0.2004  0.2426
   82SAPS   H2R 7640   6.181   6.275  10.345  1.0496 -0.2297  0.8238
   82SAPS   H2S 7641   6.142   6.228  10.510  0.5641  2.8214  4.2922
   82SAPS    C3 7642   6.620   6.387  10.379  0.8768 -0.5888 -0.6714
   82SAPS    HX 7643   6.667   6.287  10.362 -1.7279 -2.4568  2.1018
   82SAPS    HY 7644   6.701   6.448  10.423  0.2898 -0.3070  0.0371
   82SAPS   O31 7645   6.574   6.446  10.255  0.3691 -0.1723  0.4118
   82SAPS   C31 7646   6.563   6.587  10.261 -0.3448 -0.1307  0.5350
   82SAPS   O32 7647   6.593   6.651  10.356  0.0089  0.4432 -0.0220
   82SAPS   C32 7648   6.500   6.643  10.135 -0.2834 -0.3817  0.2365
   82SAPS   H2X 7649   6.553   6.615  10.041 -1.3257  3.7178 -1.8028
   82SAPS   H2Y 7650   6.505   6.754  10.131  0.3361 -0.4172 -0.2597
   82SAPS   C23 7651   6.031   6.410  10.446  0.3192  0.7029 -0.0634
   82SAPS   H3R 7652   6.044   6.495  10.375  2.9060  0.3156 -0.1767
   82SAPS   H3S 7653   6.020   6.445  10.551 -0.1905 -0.2328  0.2049
   82SAPS   C24 7654   5.904   6.329  10.394 -0.3107  0.1973  0.1314
   82SAPS   H4R 7655   5.911   6.292  10.289 -0.8248  0.3193  0.0533
   82SAPS   H4S 7656   5.833   6.413  10.379 -2.1296 -1.3612 -0.3888
   82SAPS   C25 7657   5.844   6.225  10.481  0.3796  0.1137 -0.6139
   82SAPS   H5R 7658   5.825   6.255  10.585  0.1414 -1.0774 -0.2917
   82SAPS   C26 7659   5.808   6.096  10.454 -0.0754  0.1749  0.1132
   82SAPS   H6R 7660   5.791   6.025  10.536  0.5604  0.0203  0.1177
   82SAPS   C27 7661   5.821   6.042  10.308  0.4831  0.1872 -0.5396
   82SAPS   H7R 7662   5.765   6.107  10.238 -1.2527  1.1469  1.6227
   82SAPS   H7S 7663   5.781   5.938  10.305 -1.7476  1.0188 -1.7394
   82SAPS   C28 7664   5.955   6.027  10.253 -0.5163  0.0901 -0.1705
   82SAPS   H8R 7665   6.039   6.010  10.324 -1.2653 -2.7683  0.1811
   82SAPS   C29 7666   5.985   6.000  10.127 -0.4257 -0.1549 -0.4031
   82SAPS   H9R 7667   6.090   5.988  10.100 -0.0196  1.6936  0.2035
   82SAPS  C210 7668   5.892   5.988  10.008  0.3975  0.4246 -0.8110
   82SAPS  H10R 7669   5.803   5.931  10.040  2.4314 -2.6911 -0.3188
   82SAPS  H10S 7670   5.943   5.935   9.925  1.4937  0.9500 -0.4987
   82SAPS  C211 7671   5.855   6.128   9.958 -0.4618 -0.4865 -0.1405
   82SAPS  H11R 7672   5.848   6.201  10.040  3.5413 -0.0377  0.0087
   82SAPS  C212 7673   5.839   6.178   9.834  0.2963 -0.4930  0.0457
   82SAPS  H12R 7674   5.812   6.283   9.817  1.2191 -0.2860 -0.2104
   82SAPS  C213 7675   5.846   6.094   9.712 -0.0428  0.0871 -0.7312
   82SAPS  H13R 7676   5.849   5.984   9.731 -0.8979 -0.0957 -1.5956
   82SAPS  H13S 7677   5.951   6.110   9.677 -0.3869  1.8461 -1.0262
   82SAPS  C214 7678   5.742   6.121   9.612  0.2722 -0.6837  0.9817
   82SAPS  H14R 7679   5.651   6.171   9.647 -1.1403 -1.2453 -1.6646
   82SAPS  C215 7680   5.754   6.093   9.485 -0.2332 -0.4159  0.2392
   82SAPS  H15R 7681   5.674   6.127   9.417  0.2845  2.2048  0.8532
   82SAPS  C216 7682   5.874   6.024   9.428  0.3694 -0.0880  0.1780
   82SAPS  H16R 7683   5.914   5.946   9.496  1.1324 -0.2534 -0.4343
   82SAPS  H16S 7684   5.963   6.090   9.419  1.4087 -1.3013  1.1484
   82SAPS  C217 7685   5.831   5.961   9.297  0.2735  0.7854  0.9372
   82SAPS  H17R 7686   5.738   5.903   9.310  1.0750 -0.5381  0.9259
   82SAPS  H17S 7687   5.908   5.882   9.284  1.8692  2.6552 -2.2157
   82SAPS  C218 7688   5.824   6.060   9.177 -0.7658  0.5415 -0.3945
   82SAPS  H18R 7689   5.916   6.122   9.179  0.0306 -0.5524  2.4032
   82SAPS  H18S 7690   5.736   6.127   9.183 -0.8863  0.7106 -2.9504
   82SAPS  C219 7691   5.797   6.003   9.039 -0.1860 -0.3809 -0.1244
   82SAPS  H19R 7692   5.688   5.981   9.032 -0.2154  0.2001 -2.2872
   82SAPS  H19S 7693   5.860   5.912   9.033 -2.4425 -2.2467  2.1206
   82SAPS  C220 7694   5.837   6.101   8.932 -0.4023  0.4466 -0.0875
   82SAPS  H20R 7695   5.938   6.134   8.962 -0.6628 -0.2278  1.7068
   82SAPS  H20S 7696   5.781   6.196   8.949  1.8241  1.3740  2.9240
   82SAPS  H20T 7697   5.839   6.060   8.829  1.5380  0.1213  0.0507
   82SAPS   C33 7698   6.352   6.616  10.112  0.1530 -0.4497 -0.2188
   82SAPS   H3X 7699   6.324   6.696  10.042  2.8568  1.8060  1.0502
   82SAPS   H3Y 7700   6.289   6.646  10.198 -0.8310  0.5033 -1.2503
   82SAPS   C34 7701   6.314   6.483  10.064 -0.3763 -0.6014 -0.4164
   82SAPS   H4X 7702   6.337   6.406  10.140  0.2557  1.5036  1.6206
   82SAPS   H4Y 7703   6.367   6.456   9.969 -0.4377  0.6233 -0.8213
   82SAPS   C35 7704   6.165   6.459  10.051  0.9552 -0.6202  0.6050
   82SAPS   H5X 7705   6.118   6.461  10.152  0.0680 -0.6677  0.1981
   82SAPS   H5Y 7706   6.158   6.355  10.012 -0.1023  0.2973 -1.8358
   82SAPS   C36 7707   6.094   6.563   9.955 -0.0573 -0.6912  0.2581
   82SAPS   H6X 7708   6.171   6.609   9.890 -2.2551 -0.2687 -2.2589
   82SAPS   H6Y 7709   6.053   6.651  10.009 -1.0922  1.0066 -2.9776
   82SAPS   C37 7710   5.981   6.500   9.873 -0.4357  0.7923 -0.7699
   82SAPS   H7X 7711   5.901   6.481   9.948  1.4531 -1.9125  0.7223
   82SAPS   H7Y 7712   6.017   6.405   9.829 -0.1508  0.2281  0.6365
   82SAPS   C38 7713   5.936   6.585   9.752 -0.1468  0.6151  0.0457
   82SAPS   H8X 7714   6.025   6.632   9.705  0.8199 -1.6490 -0.5034
   82SAPS   H8Y 7715   5.870   6.666   9.789  1.3426  0.9809  2.0571
   82SAPS   C39 7716   5.864   6.492   9.641  0.8394  0.6476  0.1992
   82SAPS   H9X 7717   5.767   6.471   9.690  0.6459 -0.3414 -0.5730
   82SAPS   H9Y 7718   5.909   6.391   9.633 -0.6868 -0.2154  1.7339
   82SAPS  C310 7719   5.865   6.547   9.495  0.5150 -1.2732 -0.1638
   82SAPS  H10X 7720   5.974   6.554   9.478  0.2359  0.8229 -1.4266
   82SAPS  H10Y 7721   5.820   6.649   9.492  0.8131 -1.1528 -0.6460
   82SAPS  C311 7722   5.804   6.450   9.394 -0.1139  0.1739  0.5305
   82SAPS  H11X 7723   5.706   6.406   9.419 -0.8833  0.6205 -1.5346
   82SAPS  H11Y 7724   5.881   6.371   9.386  0.5473  0.8417  0.1365
   82SAPS  C312 7725   5.795   6.510   9.248  0.5699  1.3661  0.6243
   82SAPS  H12X 7726   5.814   6.420   9.185 -2.2116  0.0930  1.4523
   82SAPS  H12Y 7727   5.865   6.596   9.242  0.0079  2.0864  3.0353
   82SAPS  C313 7728   5.651   6.562   9.220 -0.1090  0.2820  0.1200
   82SAPS  H13X 7729   5.643   6.643   9.144  1.7196 -1.0176 -1.5375
   82SAPS  H13Y 7730   5.615   6.608   9.315  2.0952  1.4098  0.4671
   82SAPS  C314 7731   5.558   6.444   9.179 -0.0754  0.8105  0.6964
   82SAPS  H14X 7732   5.455   6.462   9.217 -1.1017  0.1293 -1.5680
   82SAPS  H14Y 7733   5.595   6.350   9.223  1.8026  1.1931  0.0442
   82SAPS  C315 7734   5.544   6.424   9.027 -0.2239  0.0418 -0.5656
   82SAPS  H15X 7735   5.643   6.402   8.984 -0.7341 -2.0676 -0.8007
   82SAPS  H15Y 7736   5.497   6.516   8.986 -1.2784 -0.8170 -1.3804
   82SAPS  C316 7737   5.448   6.308   8.994  0.2214 -0.6009 -0.6011
   82SAPS  H16X 7738   5.358   6.331   9.055  0.9425 -2.0230  1.0601
   82SAPS  H16Y 7739   5.494   6.213   9.026  0.4523 -1.5817 -3.5053
   82SAPS  C317 7740   5.429   6.299   8.841 -0.1968 -0.4210 -0.7214
   82SAPS  H17X 7741   5.369   6.207   8.824 -1.1205  0.4959 -2.7421
   82SAPS  H17Y 7742   5.529   6.285   8.796  0.0208 -0.7161 -0.1601
   82SAPS  C318 7743   5.350   6.412   8.775  0.5277  0.3230 -0.2459
   82SAPS  H18X 7744   5.383   6.438   8.672 -1.3796  1.3710 -0.6385
   82SAPS  H18Y 7745   5.362   6.509   8.826  0.6741 -0.0598  0.4539
   82SAPS  H18Z 7746   5.242   6.392   8.759  0.4800  0.6741 -0.3788
   83SAPS     N 7747   0.259   6.409  11.221 -0.2061  0.2643 -0.8530
   83SAPS   HN1 7748   0.237   6.459  11.309 -0.2200  2.2874 -1.9421
   83SAPS   HN2 7749   0.209   6.318  11.231 -0.4917  0.5270  0.1996
   83SAPS   HN3 7750   0.360   6.386  11.229 -0.3844 -0.1701  0.3464
   83SAPS   C12 7751   0.195   6.501  11.123  0.0655 -1.0099 -1.0400
   83SAPS  H12A 7752   0.213   6.464  11.023 -2.4622  0.0467 -1.9671
   83SAPS   C13 7753   0.042   6.516  11.127 -0.6005 -0.5365 -0.0561
   83SAPS  O13A 7754  -0.019   6.460  11.222  0.3863  0.5035 -0.1572
   83SAPS  O13B 7755  -0.020   6.596  11.052 -0.3496  1.1867 -0.0625
   83SAPS   C11 7756   0.263   6.634  11.135  0.4283 -0.6445  0.0279
   83SAPS  H11A 7757   0.252   6.688  11.232  3.5096  1.6203 -0.7095
   83SAPS  H11B 7758   0.211   6.693  11.057  0.0414 -0.6292  0.2976
   83SAPS     P 7759   0.493   6.742  11.065  0.3410 -0.1023 -0.0591
   83SAPS   O13 7760   0.461   6.860  11.155 -0.2205  0.5826  0.4271
   83SAPS   O14 7761   0.628   6.677  11.067  0.1509  0.2462  0.0585
   83SAPS   O12 7762   0.398   6.624  11.096  0.0388  0.1208  0.0319
   83SAPS   O11 7763   0.455   6.779  10.916  0.4628  0.1294 -0.0668
   83SAPS    C1 7764   0.446   6.677  10.810 -0.9760  1.1635  0.3609
   83SAPS    HA 7765   0.407   6.579  10.846  0.8139  0.3764  0.3030
   83SAPS    HB 7766   0.384   6.712  10.725  2.1022  0.8804 -2.2079
   83SAPS    C2 7767   0.581   6.638  10.742 -0.0551  0.6096  0.0301
   83SAPS    HS 7768   0.647   6.613  10.828  0.1033 -2.5214 -0.8743
   83SAPS   O21 7769   0.628   6.753  10.673  0.2122  0.0489 -0.0526
   83SAPS   C21 7770   0.762   6.748  10.650  0.3071  0.4619 -0.0632
   83SAPS   O22 7771   0.840   6.661  10.689  0.5224  0.0947 -0.3597
   83SAPS   C22 7772   0.799   6.871  10.555  0.0500  1.2132  0.4720
   83SAPS   H2R 7773   0.730   6.865  10.468 -1.9317 -1.5292  2.0546
   83SAPS   H2S 7774   0.788   6.964  10.615  0.5023  2.9185 -1.9346
   83SAPS    C3 7775   0.567   6.511  10.654 -0.7173 -0.1222  0.1249
   83SAPS    HX 7776   0.516   6.435  10.717 -0.7114 -0.8962 -0.7862
   83SAPS    HY 7777   0.669   6.478  10.627 -0.0223  1.6752  0.3790
   83SAPS   O31 7778   0.482   6.543  10.538  0.2063  0.3276 -0.0296
   83SAPS   C31 7779   0.533   6.557  10.417 -0.2281  0.2540 -0.3331
   83SAPS   O32 7780   0.651   6.546  10.385 -0.1244 -0.3649  0.2408
   83SAPS   C32 7781   0.420   6.606  10.326  0.1252  0.2117  0.3191
   83SAPS   H2X 7782   0.457   6.605  10.221  0.2603 -2.6073  0.3203
   83SAPS   H2Y 7783   0.410   6.714  10.347  0.5352 -0.0410  1.9026
   83SAPS   C23 7784   0.942   6.871  10.504 -0.0215 -0.4614  0.0029
   83SAPS   H3R 7785   1.024   6.838  10.571  1.9380  1.0912 -1.4877
   83SAPS   H3S 7786   0.969   6.973  10.468  0.4284 -0.2385  0.9422
   83SAPS   C24 7787   0.954   6.788  10.374 -0.4085  0.0197  0.0340
   83SAPS   H4R 7788   0.938   6.679  10.388  5.6296 -1.0801  1.4010
   83SAPS   H4S 7789   1.064   6.795  10.359 -0.6356  0.7232 -1.4256
   83SAPS   C25 7790   0.888   6.842  10.251  0.5223  0.0596  0.3339
   83SAPS   H5R 7791   0.782   6.864  10.268  0.5407  0.9755 -0.6164
   83SAPS   C26 7792   0.936   6.853  10.128 -0.2723  0.1183 -0.0896
   83SAPS   H6R 7793   0.868   6.887  10.049 -2.0351  0.1356  1.3639
   83SAPS   C27 7794   1.066   6.816  10.072 -0.4943 -0.5679 -0.3044
   83SAPS   H7R 7795   1.045   6.755   9.981  0.3584 -0.8183 -0.3420
   83SAPS   H7S 7796   1.124   6.745  10.135 -0.2398  1.3099  1.6758
   83SAPS   C28 7797   1.160   6.934  10.039 -0.0792 -0.3598  0.3343
   83SAPS   H8R 7798   1.208   6.980  10.126  0.0998  2.1989 -1.0402
   83SAPS   C29 7799   1.199   6.987   9.918 -0.1568 -0.3213 -0.0535
   83SAPS   H9R 7800   1.269   7.072   9.920 -0.1834 -0.1944 -2.1024
   83SAPS  C210 7801   1.164   6.946   9.778 -0.1787  0.0140 -0.0003
   83SAPS  H10R 7802   1.110   7.027   9.725 -0.0827  0.8767  1.1706
   83SAPS  H10S 7803   1.099   6.856   9.778 -0.5844  0.2946 -1.4918
   83SAPS  C211 7804   1.286   6.916   9.693  0.3535 -0.1869 -0.3050
   83SAPS  H11R 7805   1.343   6.826   9.718  2.1149  1.0081  0.1986
   83SAPS  C212 7806   1.322   6.983   9.582 -0.6233  0.9603  0.3854
   83SAPS  H12R 7807   1.420   6.958   9.538  0.0045  2.5450  0.8207
   83SAPS  C213 7808   1.252   7.094   9.514  0.4593  0.3732 -0.3094
   83SAPS  H13R 7809   1.213   7.160   9.594  0.7227 -0.3749  0.4437
   83SAPS  H13S 7810   1.160   7.049   9.471  1.4798 -0.9323 -1.2226
   83SAPS  C214 7811   1.339   7.163   9.415  1.2516  0.1622 -0.6614
   83SAPS  H14R 7812   1.426   7.211   9.461  2.5063 -1.5691 -1.1092
   83SAPS  C215 7813   1.331   7.163   9.281  0.8146  0.0402 -0.2131
   83SAPS  H15R 7814   1.410   7.210   9.221  0.3510  2.0782  0.6938
   83SAPS  C216 7815   1.232   7.088   9.194  0.4944 -0.2857  0.5765
   83SAPS  H16R 7816   1.182   7.006   9.249  0.5776 -0.0140  1.0704
   83SAPS  H16S 7817   1.285   7.022   9.122  2.6568  0.5438  1.3321
   83SAPS  C217 7818   1.144   7.179   9.110  0.1775  0.3619 -0.4187
   83SAPS  H17R 7819   1.068   7.215   9.183  0.5474 -2.1864  1.3592
   83SAPS  H17S 7820   1.082   7.114   9.044 -1.0266  0.4674  0.5741
   83SAPS  C218 7821   1.227   7.277   9.031  0.7426 -0.7738  1.3156
   83SAPS  H18R 7822   1.326   7.232   9.007 -0.4854 -1.7846 -2.5142
   83SAPS  H18S 7823   1.255   7.366   9.093  1.1669 -0.6656  0.9673
   83SAPS  C219 7824   1.173   7.330   8.897 -0.3013  0.7269 -0.0163
   83SAPS  H19R 7825   1.248   7.406   8.866  2.6108 -2.2625 -0.8539
   83SAPS  H19S 7826   1.075   7.375   8.924  0.0076  0.3262  1.8667
   83SAPS  C220 7827   1.166   7.224   8.793  0.3079  0.3537  0.3968
   83SAPS  H20R 7828   1.263   7.180   8.762  0.1435  0.8007 -0.7898
   83SAPS  H20S 7829   1.117   7.260   8.700 -3.0837  0.0651  1.9256
   83SAPS  H20T 7830   1.094   7.149   8.831  0.2177 -0.0342 -0.5099
   83SAPS   C33 7831   0.293   6.523  10.332  0.6799  0.3739  0.1934
   83SAPS   H3X 7832   0.240   6.536  10.429  0.8572  1.2393  0.1785
   83SAPS   H3Y 7833   0.329   6.418  10.332  1.2613  0.5624 -0.7166
   83SAPS   C34 7834   0.185   6.541  10.222  0.3160  0.0092  0.4287
   83SAPS   H4X 7835   0.161   6.648  10.237  2.9544  0.8643 -0.7367
   83SAPS   H4Y 7836   0.099   6.475  10.244 -1.5580  1.4884 -1.9858
   83SAPS   C35 7837   0.230   6.516  10.083 -0.2364 -0.2886  0.0985
   83SAPS   H5X 7838   0.275   6.415  10.085  2.0208  0.6294 -0.4085
   83SAPS   H5Y 7839   0.309   6.590  10.056  0.4076 -1.2669 -0.8031
   83SAPS   C36 7840   0.127   6.545   9.977 -0.3556  0.8985 -0.2762
   83SAPS   H6X 7841   0.075   6.642   9.988  1.8082  2.2598 -1.2593
   83SAPS   H6Y 7842   0.050   6.465   9.977 -1.2276  1.7169  0.0880
   83SAPS   C37 7843   0.189   6.559   9.836  0.5554 -0.2044 -1.2980
   83SAPS   H7X 7844   0.191   6.457   9.793  2.8185 -1.0302  0.5365
   83SAPS   H7Y 7845   0.297   6.584   9.847  1.4502 -3.4784 -1.5089
   83SAPS   C38 7846   0.118   6.656   9.754 -0.4366  0.5739  0.5949
   83SAPS   H8X 7847   0.141   6.756   9.797 -0.1739  0.2786  1.1537
   83SAPS   H8Y 7848   0.011   6.632   9.765 -0.2464 -2.2057 -2.4087
   83SAPS   C39 7849   0.158   6.643   9.606 -0.2882  0.2823 -0.2689
   83SAPS   H9X 7850   0.146   6.538   9.571 -1.4405  0.3427 -0.0862
   83SAPS   H9Y 7851   0.267   6.663   9.598  0.2137 -2.0348  0.0663
   83SAPS  C310 7852   0.061   6.732   9.526 -0.6538  0.1129  0.2253
   83SAPS  H10X 7853   0.064   6.836   9.564 -3.0545  0.1556  0.4325
   83SAPS  H10Y 7854  -0.043   6.694   9.534  0.7401 -3.9216  1.2928
   83SAPS  C311 7855   0.099   6.754   9.383  0.2554 -0.1536 -0.0521
   83SAPS  H11X 7856   0.207   6.780   9.374  0.1696  0.0975 -0.3855
   83SAPS  H11Y 7857   0.041   6.840   9.344  2.1081  0.3313 -1.9764
   83SAPS  C312 7858   0.065   6.643   9.288 -0.3875  0.2073 -0.2373
   83SAPS  H12X 7859  -0.044   6.619   9.297 -0.9090  0.8983 -3.3826
   83SAPS  H12Y 7860   0.121   6.551   9.315  2.7773  2.4011  1.2718
   83SAPS  C313 7861   0.088   6.680   9.138 -0.4641 -0.5781 -0.6220
   83SAPS  H13X 7862   0.187   6.729   9.131 -0.5315 -0.4310 -0.5668
   83SAPS  H13Y 7863   0.018   6.766   9.126  1.7521  1.3721 -0.2169
   83SAPS  C314 7864   0.073   6.564   9.036 -0.4727  0.3049 -0.2795
   83SAPS  H14X 7865  -0.021   6.510   9.061  1.1342 -1.1895  3.0629
   83SAPS  H14Y 7866   0.161   6.500   9.053  0.4297  0.9520 -2.1792
   83SAPS  C315 7867   0.076   6.627   8.900  0.4282 -0.4162  0.7034
   83SAPS  H15X 7868   0.169   6.677   8.866 -0.9962  0.1214 -2.8981
   83SAPS  H15Y 7869  -0.008   6.699   8.893  1.9181  1.4830  1.3911
   83SAPS  C316 7870   0.041   6.519   8.790 -0.2372 -0.1925  0.4495
   83SAPS  H16X 7871  -0.047   6.456   8.813 -1.8483  1.3493 -1.1428
   83SAPS  H16Y 7872   0.125   6.448   8.804 -0.2210  0.0056  1.4349
   83SAPS  C317 7873   0.053   6.568   8.650  0.3833 -0.3072 -0.7805
   83SAPS  H17X 7874   0.160   6.600   8.643  0.8790 -1.9211 -0.9730
   83SAPS  H17Y 7875   0.001   6.661   8.618  2.6944  0.3532 -2.9339
   83SAPS  C318 7876   0.011   6.455   8.547  0.4400 -0.1007 -0.4880
   83SAPS  H18X 7877  -0.013   6.499   8.448 -1.8938  2.9258  1.2222
   83SAPS  H18Y 7878  -0.086   6.408   8.572  0.6215 -0.8436 -1.1626
   83SAPS  H18Z 7879   0.075   6.365   8.550  1.6535  0.7429 -0.0357
   84SAPS     N 7880   6.551   5.335  10.898 -0.2852 -0.2928 -0.0970
   84SAPS   HN1 7881   6.641   5.344  10.845 -0.5911 -0.1088 -0.5970
   84SAPS   HN2 7882   6.509   5.241  10.894 -0.3807 -0.2453 -0.2074
   84SAPS   HN3 7883   6.482   5.400  10.855  2.0128  1.2440 -1.7698
   84SAPS   C12 7884   6.584   5.362  11.044  0.6231 -0.0930  0.3911
   84SAPS  H12A 7885   6.648   5.449  11.051 -0.6501  0.8083  1.1696
   84SAPS   C13 7886   6.457   5.385  11.128  0.5210  0.3237  0.6621
   84SAPS  O13A 7887   6.341   5.358  11.085  0.0784  0.1328 -0.5160
   84SAPS  O13B 7888   6.476   5.423  11.247  0.5593  0.1899 -0.2668
   84SAPS   C11 7889   6.668   5.240  11.102  0.4431 -0.1205 -0.4506
   84SAPS  H11A 7890   6.629   5.137  11.091  2.0872 -1.0689  1.7874
   84SAPS  H11B 7891   6.676   5.258  11.212  1.2891 -1.1076 -0.3288
   84SAPS     P 7892   6.921   5.154  11.084 -0.6037 -0.4426 -0.2383
   84SAPS   O13 7893   7.044   5.230  11.059 -0.4164  0.1104  0.3890
   84SAPS   O14 7894   6.892   5.111  11.223  0.2780 -0.6035 -0.0674
   84SAPS   O12 7895   6.795   5.238  11.039  0.5580 -0.3524  0.1371
   84SAPS   O11 7896   6.932   5.023  10.994 -1.3309 -0.0644  0.2922
   84SAPS    C1 7897   6.821   4.971  10.907 -0.5757 -0.1493 -0.4227
   84SAPS    HA 7898   6.780   4.883  10.963  0.4288  1.1585  2.5975
   84SAPS    HB 7899   6.735   5.041  10.898  0.7542  1.3751 -1.8414
   84SAPS    C2 7900   6.872   4.936  10.764 -0.0377 -0.6271 -0.4801
   84SAPS    HS 7901   6.938   4.849  10.782  0.5430  0.1973  1.5793
   84SAPS   O21 7902   6.950   5.047  10.713 -0.5538 -0.0407  0.3692
   84SAPS   C21 7903   7.085   5.028  10.673  0.1428  0.5091 -0.5091
   84SAPS   O22 7904   7.150   4.932  10.710 -0.0085  0.1660 -0.1653
   84SAPS   C22 7905   7.145   5.135  10.581  0.1544  0.2470 -0.9698
   84SAPS   H2R 7906   7.131   5.224  10.645 -1.3486 -0.7735  0.2089
   84SAPS   H2S 7907   7.252   5.108  10.571  0.1368 -0.4022  0.2738
   84SAPS    C3 7908   6.767   4.892  10.666  0.2023  0.2157  0.5797
   84SAPS    HX 7909   6.706   4.982  10.647 -1.9100 -1.5232 -1.4590
   84SAPS    HY 7910   6.706   4.810  10.710  1.6143 -2.6283 -2.2779
   84SAPS   O31 7911   6.828   4.858  10.545  0.4153 -0.1795 -0.4708
   84SAPS   C31 7912   6.758   4.775  10.468  0.3141 -0.1111 -0.6177
   84SAPS   O32 7913   6.635   4.756  10.476  0.1632 -0.9459 -0.0043
   84SAPS   C32 7914   6.855   4.693  10.388  0.4720  0.4438  0.1335
   84SAPS   H2X 7915   6.846   4.586  10.419 -0.9219  0.6070  0.3672
   84SAPS   H2Y 7916   6.959   4.729  10.406  0.6645 -0.2263  0.4280
   84SAPS   C23 7917   7.076   5.145  10.449 -0.4885  0.1195  0.6823
   84SAPS   H3R 7918   7.102   5.239  10.396  1.0377 -0.2191  0.7886
   84SAPS   H3S 7919   6.967   5.155  10.472 -0.9742 -0.4789 -1.1302
   84SAPS   C24 7920   7.097   5.024  10.359 -0.4783  0.8604 -0.3748
   84SAPS   H4R 7921   7.076   4.933  10.420  1.4851  0.7069  0.1459
   84SAPS   H4S 7922   7.204   5.019  10.330 -0.7435 -1.6108 -1.2492
   84SAPS   C25 7923   7.012   5.037  10.233  0.2486  0.0876 -0.3121
   84SAPS   H5R 7924   6.904   5.022  10.245  0.2979  0.0723  0.1074
   84SAPS   C26 7925   7.052   5.066  10.114 -0.7608  0.4514  0.5410
   84SAPS   H6R 7926   6.982   5.068  10.029 -0.0033 -1.6396 -0.2152
   84SAPS   C27 7927   7.192   5.104  10.077 -1.0099  0.4537  0.0749
   84SAPS   H7R 7928   7.237   5.157  10.163 -0.9098 -0.4054  0.5590
   84SAPS   H7S 7929   7.186   5.173   9.990  1.0352 -0.8840 -1.2217
   84SAPS   C28 7930   7.292   4.991  10.066  0.9438  0.1134 -0.0048
   84SAPS   H8R 7931   7.333   4.940  10.154 -0.1846  0.5631  0.8000
   84SAPS   C29 7932   7.339   4.948   9.948  0.2807 -0.2855 -0.2545
   84SAPS   H9R 7933   7.406   4.861   9.954  0.4377 -0.1127  0.6258
   84SAPS  C210 7934   7.308   4.998   9.810  0.4639  0.3064  0.1767
   84SAPS  H10R 7935   7.395   5.017   9.744 -1.0893  4.1065 -1.0636
   84SAPS  H10S 7936   7.266   5.100   9.818 -4.3895 -1.3721 -0.4363
   84SAPS  C211 7937   7.192   4.911   9.746  0.4472  0.0493 -0.2994
   84SAPS  H11R 7938   7.129   4.855   9.817  1.9533  0.3692  1.3627
   84SAPS  C212 7939   7.161   4.907   9.615 -0.1814 -0.4381 -0.0136
   84SAPS  H12R 7940   7.073   4.847   9.586 -0.1470 -0.6603  0.3437
   84SAPS  C213 7941   7.234   4.983   9.501  0.1277  0.4806  0.0119
   84SAPS  H13R 7942   7.279   5.076   9.542  2.4427 -1.1595  1.4771
   84SAPS  H13S 7943   7.158   5.014   9.426 -0.2941 -0.4186  0.0537
   84SAPS  C214 7944   7.342   4.894   9.443 -0.0963 -0.3464  0.5974
   84SAPS  H14R 7945   7.369   4.810   9.508  1.0773 -0.3977  0.0724
   84SAPS  C215 7946   7.405   4.905   9.325 -0.0383 -0.4072  0.4618
   84SAPS  H15R 7947   7.482   4.832   9.298  0.5641  1.1811 -2.5270
   84SAPS  C216 7948   7.390   5.016   9.223  0.3758 -0.2556 -0.2877
   84SAPS  H16R 7949   7.485   5.074   9.220  1.0762 -1.3833 -0.7049
   84SAPS  H16S 7950   7.309   5.090   9.238 -0.1601 -0.9097  0.1015
   84SAPS  C217 7951   7.378   4.942   9.088  0.0207 -0.4060  0.4148
   84SAPS  H17R 7952   7.293   4.873   9.071  1.0477 -1.7440  0.5544
   84SAPS  H17S 7953   7.475   4.892   9.069  1.0646  1.6288  0.1047
   84SAPS  C218 7954   7.354   5.057   8.988 -0.3846  0.7327 -0.0406
   84SAPS  H18R 7955   7.422   5.144   8.999 -1.3222  1.6388 -1.1140
   84SAPS  H18S 7956   7.246   5.086   8.988 -0.2742  1.4946 -2.8330
   84SAPS  C219 7957   7.383   5.000   8.844 -0.0727 -0.0152  0.0541
   84SAPS  H19R 7958   7.324   4.911   8.815  1.7142 -0.6029 -2.0566
   84SAPS  H19S 7959   7.486   4.958   8.848 -0.1820 -0.2144  1.5681
   84SAPS  C220 7960   7.369   5.107   8.737 -0.8405  0.0637  0.3950
   84SAPS  H20R 7961   7.397   5.064   8.638  0.4281  1.1804  0.2435
   84SAPS  H20S 7962   7.437   5.190   8.766  0.5191 -1.2232  1.0281
   84SAPS  H20T 7963   7.264   5.139   8.726 -0.8681  0.6441  2.2038
   84SAPS   C33 7964   6.829   4.700  10.232  0.1135 -0.2870  0.1073
   84SAPS   H3X 7965   6.825   4.804  10.195 -0.4999 -1.2551 -2.8610
   84SAPS   H3Y 7966   6.736   4.651  10.193  1.0397 -1.4771 -0.6961
   84SAPS   C34 7967   6.936   4.640  10.140 -0.2213 -0.3312  0.2691
   84SAPS   H4X 7968   6.932   4.530  10.150  0.8636 -0.6830 -2.4407
   84SAPS   H4Y 7969   7.035   4.678  10.175 -1.0580 -0.7159  3.4294
   84SAPS   C35 7970   6.922   4.673   9.989  0.7078  0.6311 -0.3634
   84SAPS   H5X 7971   7.022   4.664   9.942  1.1314  1.5717  0.3301
   84SAPS   H5Y 7972   6.883   4.777   9.991  1.0261  0.8902 -3.0932
   84SAPS   C36 7973   6.817   4.585   9.918 -0.3310 -0.6998  0.4181
   84SAPS   H6X 7974   6.714   4.611   9.951 -0.3817  0.8248 -0.8057
   84SAPS   H6Y 7975   6.833   4.476   9.926 -0.4622 -1.0071 -2.3366
   84SAPS   C37 7976   6.824   4.603   9.764 -0.1497  0.6778  0.5479
   84SAPS   H7X 7977   6.756   4.529   9.715  1.9565 -0.9944  0.0192
   84SAPS   H7Y 7978   6.929   4.589   9.731 -0.3631 -1.0452  0.5139
   84SAPS   C38 7979   6.781   4.739   9.716  0.2997 -1.2842 -0.6868
   84SAPS   H8X 7980   6.850   4.817   9.754  1.1669 -2.2883 -0.1602
   84SAPS   H8Y 7981   6.677   4.759   9.751  0.7196 -2.1175  1.1792
   84SAPS   C39 7982   6.777   4.753   9.564 -0.3812  0.3075 -0.6773
   84SAPS   H9X 7983   6.688   4.701   9.523  0.3589 -1.9824  0.4453
   84SAPS   H9Y 7984   6.869   4.708   9.522  0.2775  0.0851  0.9334
   84SAPS  C310 7985   6.775   4.903   9.519 -0.5930 -0.3263  0.1460
   84SAPS  H10X 7986   6.867   4.955   9.552 -1.3564  0.0146  1.8168
   84SAPS  H10Y 7987   6.691   4.957   9.568  0.3111 -0.5962  2.0795
   84SAPS  C311 7988   6.775   4.916   9.365 -0.3241 -0.4595 -0.0925
   84SAPS  H11X 7989   6.681   4.872   9.325 -0.0167 -3.8078  2.4180
   84SAPS  H11Y 7990   6.857   4.854   9.323  0.2176  0.9576 -1.1599
   84SAPS  C312 7991   6.780   5.064   9.313  0.3300  0.1232  0.4967
   84SAPS  H12X 7992   6.873   5.112   9.349 -0.3726  1.8649  0.1449
   84SAPS  H12Y 7993   6.690   5.108   9.362 -0.4968 -0.2694 -0.6155
   84SAPS  C313 7994   6.766   5.079   9.161 -0.4864  0.6575  0.0629
   84SAPS  H13X 7995   6.763   5.189   9.145 -2.0113  0.6037 -0.1885
   84SAPS  H13Y 7996   6.662   5.048   9.140 -0.4492 -0.5454  1.5037
   84SAPS  C314 7997   6.866   5.008   9.073  0.7437 -0.4532 -0.3491
   84SAPS  H14X 7998   6.839   4.900   9.078  0.3632 -0.3302  0.2813
   84SAPS  H14Y 7999   6.971   5.007   9.111  0.4365 -1.4636  0.5232
   84SAPS  C315 8000   6.860   5.054   8.928 -0.6884  0.5276  0.6202
   84SAPS  H15X 8001   6.915   5.148   8.903  2.2587 -1.2836 -0.1177
   84SAPS  H15Y 8002   6.760   5.074   8.883  0.4315  1.0530 -1.8410
   84SAPS  C316 8003   6.927   4.949   8.840  0.5225  0.2563  0.6385
   84SAPS  H16X 8004   6.876   4.856   8.875 -0.9456  1.4641  1.8294
   84SAPS  H16Y 8005   7.034   4.951   8.869  0.4203  2.6976  1.0224
   84SAPS  C317 8006   6.899   4.979   8.690 -0.1204  0.6638  0.8177
   84SAPS  H17X 8007   6.913   5.089   8.682  0.2826  0.6257  0.9701
   84SAPS  H17Y 8008   6.800   4.950   8.648  0.8021 -1.1483 -0.2480
   84SAPS  C318 8009   6.996   4.899   8.595  0.3960 -1.1332 -0.6963
   84SAPS  H18X 8010   6.960   4.796   8.571  1.1501 -1.7948  0.8307
   84SAPS  H18Y 8011   7.097   4.887   8.639 -0.9493 -0.0526  3.1342
   84SAPS  H18Z 8012   7.011   4.964   8.507  2.0031 -0.2637  0.1829
   85SAPS     N 8013   6.272   0.691  11.209  0.5827  0.4735  0.3001
   85SAPS   HN1 8014   6.360   0.744  11.228  0.4892  1.4476 -1.7226
   85SAPS   HN2 8015   6.308   0.594  11.221  0.6798  0.3089 -1.1269
   85SAPS   HN3 8016   6.254   0.710  11.108  1.6247  3.9050  0.6093
   85SAPS   C12 8017   6.157   0.743  11.284  0.0246 -0.3289  0.9799
   85SAPS  H12A 8018   6.107   0.658  11.327 -1.4012  0.4592  0.9688
   85SAPS   C13 8019   6.205   0.836  11.396 -0.2698 -0.1998  0.1372
   85SAPS  O13A 8020   6.327   0.861  11.406  0.5190  0.3005 -0.1945
   85SAPS  O13B 8021   6.116   0.900  11.455 -0.6837 -0.3151 -0.5592
   85SAPS   C11 8022   6.050   0.815  11.187 -0.4786  0.9063  1.0490
   85SAPS  H11A 8023   6.096   0.907  11.146 -0.3559 -1.1390 -4.1969
   85SAPS  H11B 8024   5.961   0.828  11.251 -0.4493  2.9874  0.7229
   85SAPS     P 8025   5.888   0.717  10.998 -0.0435 -0.1500  0.1989
   85SAPS   O13 8026   5.890   0.586  10.938  0.2812  0.0754  0.1463
   85SAPS   O14 8027   5.776   0.745  11.093  0.0104  0.4307 -0.8761
   85SAPS   O12 8028   6.027   0.726  11.071  0.0299  0.0695 -0.0144
   85SAPS   O11 8029   5.903   0.825  10.882 -0.0871  0.3067  0.0100
   85SAPS    C1 8030   6.041   0.867  10.833  0.5668 -0.2113 -0.6106
   85SAPS    HA 8031   6.105   0.894  10.920  0.0540 -2.1729  0.4476
   85SAPS    HB 8032   6.089   0.787  10.773  0.0847 -0.4832 -0.6413
   85SAPS    C2 8033   6.036   1.000  10.736 -0.1640  1.3365 -0.6319
   85SAPS    HS 8034   6.011   1.085  10.803  1.9331  1.8508 -0.4412
   85SAPS   O21 8035   5.938   0.979  10.635  0.6626 -0.6473 -0.8476
   85SAPS   C21 8036   5.876   1.097  10.595 -0.4827 -0.3753  0.2746
   85SAPS   O22 8037   5.892   1.207  10.646  0.0964  0.4047 -0.8895
   85SAPS   C22 8038   5.769   1.066  10.490 -0.0253 -0.8226  0.4137
   85SAPS   H2R 8039   5.700   0.987  10.527  0.5314  0.0815  3.7391
   85SAPS   H2S 8040   5.704   1.151  10.459  0.7360 -0.3513  0.0825
   85SAPS    C3 8041   6.176   1.025  10.681 -0.3168  0.0244 -0.6841
   85SAPS    HX 8042   6.213   0.930  10.636  1.2220  0.0458  0.4455
   85SAPS    HY 8043   6.241   1.034  10.771 -0.7526 -0.9817 -0.2429
   85SAPS   O31 8044   6.192   1.130  10.589 -0.5526 -0.8312  0.0027
   85SAPS   C31 8045   6.180   1.257  10.637 -0.0306  0.3559 -0.3886
   85SAPS   O32 8046   6.168   1.287  10.757  0.6161  0.1974  0.4595
   85SAPS   C32 8047   6.218   1.364  10.538  0.3728 -0.4177  0.5355
   85SAPS   H2X 8048   6.326   1.387  10.554  0.3528  0.6107 -0.6398
   85SAPS   H2Y 8049   6.158   1.455  10.561  1.3879  0.2346  0.6912
   85SAPS   C23 8050   5.847   1.005  10.362 -0.1412 -0.5313 -0.3484
   85SAPS   H3R 8051   5.886   0.904  10.390 -0.6121 -0.7564 -0.4956
   85SAPS   H3S 8052   5.933   1.075  10.353  0.5758 -0.6930  3.3246
   85SAPS   C24 8053   5.762   0.986  10.230 -0.6547  0.0395 -0.0366
   85SAPS   H4R 8054   5.670   0.930  10.256 -1.3419  1.4006  0.5206
   85SAPS   H4S 8055   5.824   0.922  10.163  0.2373 -0.4303  1.1830
   85SAPS   C25 8056   5.731   1.116  10.164 -0.1579 -0.2774 -0.3222
   85SAPS   H5R 8057   5.639   1.166  10.199  0.9947  0.9273  1.1416
   85SAPS   C26 8058   5.804   1.182  10.070 -1.1137 -0.0271 -0.7426
   85SAPS   H6R 8059   5.769   1.281  10.038 -0.9376  0.9265  1.7831
   85SAPS   C27 8060   5.927   1.138  10.001 -0.7473 -0.4483  0.2620
   85SAPS   H7R 8061   6.003   1.100  10.072 -1.7990 -1.5240  0.8502
   85SAPS   H7S 8062   5.968   1.219   9.936 -1.0013  0.6640  1.4454
   85SAPS   C28 8063   5.896   1.021   9.904 -0.4271  0.2047 -1.5144
   85SAPS   H8R 8064   5.872   0.926   9.954 -2.7394  2.4421  2.1956
   85SAPS   C29 8065   5.884   1.030   9.771 -0.0925  0.4712 -0.0870
   85SAPS   H9R 8066   5.852   0.936   9.724  1.1685 -1.0138  1.8683
   85SAPS  C210 8067   5.904   1.146   9.685 -0.4074 -0.5771  0.1994
   85SAPS  H10R 8068   5.895   1.242   9.741 -0.1301  1.2955 -2.7570
   85SAPS  H10S 8069   5.801   1.143   9.643  0.5297 -2.6970 -2.2072
   85SAPS  C211 8070   6.013   1.144   9.580  0.6301  0.4939  0.4700
   85SAPS  H11R 8071   6.116   1.133   9.616  0.0411 -3.5420  1.3593
   85SAPS  C212 8072   5.991   1.144   9.446 -0.2181  0.0707  0.8160
   85SAPS  H12R 8073   6.083   1.130   9.387 -0.2363  0.4958  0.6826
   85SAPS  C213 8074   5.869   1.161   9.361 -0.0144  0.3779 -0.4855
   85SAPS  H13R 8075   5.870   1.261   9.313 -1.3811  1.6053  1.8440
   85SAPS  H13S 8076   5.774   1.174   9.418 -0.3229  1.3415 -1.1930
   85SAPS  C214 8077   5.867   1.050   9.254  0.3352  0.4787 -0.0326
   85SAPS  H14R 8078   5.923   0.957   9.272 -1.0077 -0.0719  1.6046
   85SAPS  C215 8079   5.807   1.061   9.131 -0.2422  0.0906  0.1480
   85SAPS  H15R 8080   5.820   0.982   9.055  0.9971 -1.6219  2.0273
   85SAPS  C216 8081   5.732   1.183   9.083 -0.2777  0.6613 -0.2907
   85SAPS  H16R 8082   5.711   1.264   9.156 -0.7528 -1.3535  1.9395
   85SAPS  H16S 8083   5.629   1.157   9.047 -0.1744  1.3175 -1.0857
   85SAPS  C217 8084   5.811   1.261   8.979  0.0358 -0.6056 -0.1811
   85SAPS  H17R 8085   5.852   1.184   8.910 -0.1092  0.3510 -1.3841
   85SAPS  H17S 8086   5.894   1.302   9.041  0.0382 -0.0208 -0.5621
   85SAPS  C218 8087   5.746   1.377   8.903  0.0871 -0.1699 -0.1474
   85SAPS  H18R 8088   5.818   1.441   8.848  1.5976  0.3395  2.2550
   85SAPS  H18S 8089   5.706   1.443   8.984  2.5543 -0.6179  1.5590
   85SAPS  C219 8090   5.631   1.328   8.813  0.0547 -0.1474  0.4834
   85SAPS  H19R 8091   5.572   1.251   8.868 -0.5974 -0.1688 -0.2256
   85SAPS  H19S 8092   5.681   1.270   8.732 -0.1986  0.5291 -0.1638
   85SAPS  C220 8093   5.534   1.428   8.755 -0.0132  0.4399 -0.4520
   85SAPS  H20R 8094   5.457   1.381   8.690 -1.1305 -0.7562  1.6201
   85SAPS  H20S 8095   5.594   1.487   8.682 -0.3107 -0.9233 -1.8667
   85SAPS  H20T 8096   5.489   1.481   8.842  0.6454  1.7285 -0.8735
   85SAPS   C33 8097   6.194   1.318  10.391 -0.4253  0.0824  0.4830
   85SAPS   H3X 8098   6.084   1.304  10.383 -0.5373  1.1101  0.1962
   85SAPS   H3Y 8099   6.248   1.223  10.368  0.3847  1.2445 -3.0211
   85SAPS   C34 8100   6.242   1.414  10.285  0.2034 -0.2225  0.4454
   85SAPS   H4X 8101   6.352   1.428  10.282 -0.1419  3.1616 -0.5774
   85SAPS   H4Y 8102   6.189   1.510  10.300  0.9580  0.4668 -1.0839
   85SAPS   C35 8103   6.218   1.352  10.146 -0.1825  0.0216  0.1977
   85SAPS   H5X 8104   6.110   1.329  10.131  0.4333 -2.3535 -1.2449
   85SAPS   H5Y 8105   6.254   1.247  10.138 -2.9703 -1.1563  1.6495
   85SAPS   C36 8106   6.265   1.429  10.024 -0.0299 -0.4326  0.2764
   85SAPS   H6X 8107   6.375   1.445  10.026 -0.2681  1.8422 -1.1102
   85SAPS   H6Y 8108   6.220   1.530  10.027 -0.3153 -0.5444 -0.2254
   85SAPS   C37 8109   6.212   1.367   9.895  0.6902 -0.2363 -0.2410
   85SAPS   H7X 8110   6.101   1.372   9.888  0.6604  1.4992  0.8568
   85SAPS   H7Y 8111   6.249   1.264   9.880  1.2514  0.2955 -3.4407
   85SAPS   C38 8112   6.255   1.459   9.787 -0.3035 -0.0206 -0.6954
   85SAPS   H8X 8113   6.365   1.458   9.797 -0.2019  0.9714 -1.6263
   85SAPS   H8Y 8114   6.219   1.564   9.786  0.5618  0.2808 -1.1536
   85SAPS   C39 8115   6.217   1.404   9.646  0.3153 -0.3869 -0.6360
   85SAPS   H9X 8116   6.110   1.398   9.617  0.8489 -0.7418 -2.7271
   85SAPS   H9Y 8117   6.246   1.296   9.647  0.8369 -0.2435  0.3036
   85SAPS  C310 8118   6.293   1.474   9.533 -0.2618  0.2350 -0.3314
   85SAPS  H10X 8119   6.400   1.454   9.557  0.0834  0.0235 -1.9250
   85SAPS  H10Y 8120   6.285   1.584   9.539 -1.7890  0.0526  1.6152
   85SAPS  C311 8121   6.260   1.405   9.393  0.1184 -0.8927  0.0342
   85SAPS  H11X 8122   6.150   1.388   9.393 -0.0533  0.0997  0.5172
   85SAPS  H11Y 8123   6.306   1.304   9.397  0.2440 -0.8104  0.9656
   85SAPS  C312 8124   6.301   1.483   9.265  0.2922 -0.5179  0.1895
   85SAPS  H12X 8125   6.412   1.477   9.265  0.4600  1.8837  0.1973
   85SAPS  H12Y 8126   6.273   1.590   9.270  1.5361 -0.1131 -1.0535
   85SAPS  C313 8127   6.243   1.429   9.136  0.2832  0.2270  0.6879
   85SAPS  H13X 8128   6.134   1.422   9.151  0.3514 -1.5911  0.5257
   85SAPS  H13Y 8129   6.279   1.324   9.128 -0.6901 -0.0772  0.2688
   85SAPS  C314 8130   6.281   1.507   9.008  0.2860  0.4920  0.4962
   85SAPS  H14X 8131   6.384   1.547   9.019  0.2413  0.8400 -0.2860
   85SAPS  H14Y 8132   6.213   1.595   8.999 -0.4817 -0.2304 -1.1684
   85SAPS  C315 8133   6.287   1.422   8.881 -1.2770  0.0456 -0.3377
   85SAPS  H15X 8134   6.333   1.324   8.903  1.2485  1.3872  0.7607
   85SAPS  H15Y 8135   6.357   1.469   8.808  1.4308 -2.1823  0.6623
   85SAPS  C316 8136   6.150   1.398   8.822  0.3916 -0.0117  0.4014
   85SAPS  H16X 8137   6.110   1.493   8.781  0.5204  0.6252  1.6988
   85SAPS  H16Y 8138   6.086   1.377   8.911 -0.3057 -3.2260 -0.7336
   85SAPS  C317 8139   6.144   1.294   8.708 -0.1678  0.0952 -0.2973
   85SAPS  H17X 8140   6.222   1.217   8.727  0.0243 -0.3061 -2.4587
   85SAPS  H17Y 8141   6.177   1.355   8.621  0.4240  2.5305  1.5285
   85SAPS  C318 8142   6.009   1.235   8.670  0.3812 -0.4913  0.5954
   85SAPS  H18X 8143   6.010   1.191   8.568 -0.8005 -2.3927  1.3289
   85SAPS  H18Y 8144   5.926   1.306   8.688 -0.0427 -0.1218 -2.3104
   85SAPS  H18Z 8145   5.981   1.147   8.731 -2.8203 -0.7555 -1.0156
   86SAPS     N 8146   1.671   6.007  11.145  0.3176 -0.5602 -0.8234
   86SAPS   HN1 8147   1.733   6.072  11.093 -1.3501 -0.1580 -2.4031
   86SAPS   HN2 8148   1.721   5.958  11.222 -0.1435  0.3147  0.0588
   86SAPS   HN3 8149   1.629   5.936  11.082 -0.3258 -2.7666  1.8823
   86SAPS   C12 8150   1.578   6.097  11.215 -0.0359  0.2219  0.9535
   86SAPS  H12A 8151   1.504   6.030  11.257  0.4784  0.2830  1.9709
   86SAPS   C13 8152   1.640   6.171  11.340 -0.6713  0.1870 -0.5810
   86SAPS  O13A 8153   1.757   6.141  11.383 -0.0413  1.0687 -0.1571
   86SAPS  O13B 8154   1.559   6.231  11.413  0.9830  0.3398 -0.7290
   86SAPS   C11 8155   1.526   6.195  11.109 -0.1763 -0.6844  0.0281
   86SAPS  H11A 8156   1.450   6.266  11.149  0.0745 -1.6230  2.2820
   86SAPS  H11B 8157   1.465   6.137  11.036  1.3748 -3.9318  1.1081
   86SAPS     P 8158   1.609   6.342  10.911  0.2572 -0.1291  0.4570
   86SAPS   O13 8159   1.543   6.469  10.940 -0.2577 -0.2556 -0.2620
   86SAPS   O14 8160   1.735   6.347  10.839  0.2139 -0.0632 -0.2722
   86SAPS   O12 8161   1.629   6.261  11.039 -0.7626 -0.2484 -0.0579
   86SAPS   O11 8162   1.507   6.260  10.829  0.0688 -0.8196  0.2938
   86SAPS    C1 8163   1.529   6.122  10.782 -0.2146  0.3332  0.1473
   86SAPS    HA 8164   1.609   6.069  10.839 -0.2810 -0.6196 -0.6107
   86SAPS    HB 8165   1.439   6.059  10.802  0.0966  0.3145  1.6035
   86SAPS    C2 8166   1.553   6.122  10.633 -0.4405  0.1494 -0.5645
   86SAPS    HS 8167   1.641   6.187  10.613 -1.3237  1.5565  0.0191
   86SAPS   O21 8168   1.434   6.184  10.572  0.2214  0.4573 -0.0681
   86SAPS   C21 8169   1.462   6.271  10.480  0.2061 -0.0961 -0.4036
   86SAPS   O22 8170   1.574   6.310  10.445 -1.0983 -0.1549 -0.0167
   86SAPS   C22 8171   1.327   6.319  10.426  0.3939  0.0873  0.0649
   86SAPS   H2R 8172   1.240   6.258  10.458  0.5431 -1.7944 -2.7713
   86SAPS   H2S 8173   1.310   6.426  10.450 -0.8067 -0.5011  2.1235
   86SAPS    C3 8174   1.588   5.985  10.570  0.4544 -0.1304  0.0792
   86SAPS    HX 8175   1.507   5.914  10.597 -0.6352  0.6940 -0.9757
   86SAPS    HY 8176   1.683   5.950  10.617  0.9795 -1.1155 -1.6051
   86SAPS   O31 8177   1.616   5.985  10.428  0.1556  0.1975  0.0628
   86SAPS   C31 8178   1.510   5.956  10.345  0.5650 -0.5938  0.3999
   86SAPS   O32 8179   1.404   5.912  10.379  0.6488  0.2306 -0.0577
   86SAPS   C32 8180   1.552   5.985  10.193  0.6685 -0.4318  0.6257
   86SAPS   H2X 8181   1.663   5.984  10.189  0.6600 -1.6352  0.2703
   86SAPS   H2Y 8182   1.520   6.084  10.154 -0.5710 -0.8294  0.5875
   86SAPS   C23 8183   1.335   6.303  10.274  0.8260  0.0879  0.5596
   86SAPS   H3R 8184   1.370   6.199  10.254 -0.5181 -0.0661 -1.1530
   86SAPS   H3S 8185   1.399   6.380  10.226  0.9962 -0.6141 -0.3460
   86SAPS   C24 8186   1.188   6.314  10.214  0.0733 -0.2723  0.0933
   86SAPS   H4R 8187   1.143   6.415  10.218 -3.6127 -1.7434 -0.6845
   86SAPS   H4S 8188   1.123   6.251  10.278 -0.3042 -0.5602 -0.5641
   86SAPS   C25 8189   1.169   6.254  10.083  1.0090  0.4102  1.2078
   86SAPS   H5R 8190   1.181   6.145  10.072 -2.2791  0.1619 -2.6190
   86SAPS   C26 8191   1.119   6.318   9.978 -0.6974  0.6008  0.0473
   86SAPS   H6R 8192   1.102   6.255   9.889 -2.7665 -0.5967  1.2129
   86SAPS   C27 8193   1.082   6.461   9.954 -0.1381  0.0441  0.4588
   86SAPS   H7R 8194   1.059   6.522  10.044  0.5124  0.0852  0.6013
   86SAPS   H7S 8195   0.989   6.470   9.895  0.0162 -0.3352  0.1468
   86SAPS   C28 8196   1.194   6.532   9.879  0.0529 -0.4282  0.7488
   86SAPS   H8R 8197   1.273   6.563   9.949  0.5424 -2.0444  0.9589
   86SAPS   C29 8198   1.207   6.557   9.746  0.7708  0.9995 -0.0654
   86SAPS   H9R 8199   1.311   6.580   9.716  2.1476 -2.7576  1.2596
   86SAPS  C210 8200   1.119   6.524   9.632  0.1939 -0.2817 -1.2142
   86SAPS  H10R 8201   1.056   6.437   9.660 -2.5330  2.2042  1.0000
   86SAPS  H10S 8202   1.189   6.483   9.556  1.1963  1.1596 -1.1150
   86SAPS  C211 8203   1.030   6.635   9.581 -0.2852  0.0345  0.0424
   86SAPS  H11R 8204   0.992   6.711   9.650 -0.7997  0.0154 -0.2141
   86SAPS  C212 8205   0.997   6.667   9.453 -0.4346  0.1255  1.0186
   86SAPS  H12R 8206   0.948   6.765   9.449  0.1218  0.3988 -3.0487
   86SAPS  C213 8207   1.038   6.590   9.325  0.2673 -0.3309 -0.7031
   86SAPS  H13R 8208   0.941   6.553   9.285 -0.1856 -1.6792  1.5087
   86SAPS  H13S 8209   1.101   6.500   9.339 -3.3122 -2.9447  0.1619
   86SAPS  C214 8210   1.105   6.674   9.225  0.1008 -0.6517  0.2697
   86SAPS  H14R 8211   1.186   6.729   9.276 -1.5468  0.5080  1.7556
   86SAPS  C215 8212   1.085   6.690   9.094 -0.0149 -0.1121  0.0228
   86SAPS  H15R 8213   1.140   6.768   9.039 -0.8335 -0.2014 -0.9441
   86SAPS  C216 8214   0.977   6.623   9.014 -0.1242  0.1149 -0.3389
   86SAPS  H16R 8215   0.883   6.682   9.018 -0.6506 -0.7140  2.6818
   86SAPS  H16S 8216   0.958   6.519   9.048 -0.4894  0.5294  0.7882
   86SAPS  C217 8217   1.016   6.621   8.861  0.5530 -0.2666  0.1013
   86SAPS  H17R 8218   1.115   6.572   8.851  0.9890  0.2439  1.5730
   86SAPS  H17S 8219   1.024   6.726   8.825 -0.1576 -0.2973 -0.1624
   86SAPS  C218 8220   0.910   6.571   8.767  0.3520  0.0295  0.8432
   86SAPS  H18R 8221   0.870   6.474   8.803  0.4665 -0.4751 -0.3546
   86SAPS  H18S 8222   0.959   6.540   8.673 -1.8852 -0.1699 -0.3422
   86SAPS  C219 8223   0.801   6.678   8.731  0.6253  0.2716 -0.0589
   86SAPS  H19R 8224   0.847   6.777   8.708 -2.2316  1.7722  0.1658
   86SAPS  H19S 8225   0.742   6.702   8.822  1.4908  3.5402 -0.2146
   86SAPS  C220 8226   0.694   6.639   8.621  0.2498 -0.4413 -0.2314
   86SAPS  H20R 8227   0.636   6.722   8.576  3.3342  2.2157  0.3755
   86SAPS  H20S 8228   0.634   6.559   8.669 -0.3597 -2.6093 -4.1334
   86SAPS  H20T 8229   0.746   6.595   8.533 -1.3760 -0.8001 -1.0606
   86SAPS   C33 8230   1.504   5.876  10.097  0.0292 -0.3502  0.6063
   86SAPS   H3X 8231   1.441   5.800  10.147  0.5238 -1.2039 -0.0490
   86SAPS   H3Y 8232   1.592   5.815  10.068 -1.0929 -2.0490  0.6549
   86SAPS   C34 8233   1.432   5.925   9.969 -1.0311 -0.1326  0.4579
   86SAPS   H4X 8234   1.499   5.989   9.908  1.5844 -3.9390 -1.0853
   86SAPS   H4Y 8235   1.336   5.973   9.998 -0.4920  0.1802  1.8062
   86SAPS   C35 8236   1.407   5.800   9.884  0.0124  1.5222 -0.0258
   86SAPS   H5X 8237   1.372   5.711   9.942 -2.8168  1.7993 -1.1292
   86SAPS   H5Y 8238   1.500   5.770   9.832 -0.3000  0.7293 -0.1454
   86SAPS   C36 8239   1.293   5.814   9.781 -0.5665 -0.0684  0.0836
   86SAPS   H6X 8240   1.320   5.905   9.724 -3.2728  2.1065  1.9837
   86SAPS   H6Y 8241   1.202   5.853   9.831 -0.1906  1.3891 -0.3333
   86SAPS   C37 8242   1.264   5.687   9.710 -0.1230 -0.1226 -0.8167
   86SAPS   H7X 8243   1.208   5.619   9.777 -0.6149  1.0450 -0.0042
   86SAPS   H7Y 8244   1.363   5.654   9.671  0.0129  1.5423 -1.9526
   86SAPS   C38 8245   1.169   5.718   9.596  0.3386  0.6683  0.8090
   86SAPS   H8X 8246   1.217   5.783   9.520  2.1024  0.8351  2.0314
   86SAPS   H8Y 8247   1.074   5.769   9.623 -1.8357 -1.0092 -2.8211
   86SAPS   C39 8248   1.135   5.578   9.529  0.0747  0.6337  0.0115
   86SAPS   H9X 8249   1.063   5.540   9.605 -1.3756  2.2620 -0.4851
   86SAPS   H9Y 8250   1.231   5.524   9.515 -1.2424 -1.7926 -0.1753
   86SAPS  C310 8251   1.061   5.595   9.389 -0.3795 -0.1645 -0.0239
   86SAPS  H10X 8252   0.972   5.657   9.410 -0.5831 -0.0715 -1.1140
   86SAPS  H10Y 8253   1.027   5.495   9.352  0.4582  0.0504 -1.4756
   86SAPS  C311 8254   1.135   5.661   9.270 -0.1553  0.4506  0.0554
   86SAPS  H11X 8255   1.228   5.605   9.242 -1.0531 -0.9432 -0.2548
   86SAPS  H11Y 8256   1.173   5.758   9.307  0.3352 -0.0241  0.8448
   86SAPS  C312 8257   1.043   5.695   9.157  0.3052 -0.5176 -0.4986
   86SAPS  H12X 8258   0.968   5.765   9.198 -0.0819 -1.9300  1.3425
   86SAPS  H12Y 8259   0.992   5.607   9.112  2.1916 -1.4451 -0.9238
   86SAPS  C313 8260   1.107   5.777   9.043 -0.1200 -0.4877 -0.5466
   86SAPS  H13X 8261   1.172   5.854   9.090  0.3655 -1.2584  0.0739
   86SAPS  H13Y 8262   1.020   5.818   8.987 -0.9545  0.0516  1.0998
   86SAPS  C314 8263   1.189   5.697   8.948  0.4204 -0.0680  0.3501
   86SAPS  H14X 8264   1.127   5.621   8.896  0.1977 -1.3715  2.4185
   86SAPS  H14Y 8265   1.248   5.635   9.019 -2.6280 -2.1014  1.2999
   86SAPS  C315 8266   1.271   5.782   8.853 -0.3462  0.6539 -0.1086
   86SAPS  H15X 8267   1.355   5.719   8.816 -1.0532  0.2577 -1.0818
   86SAPS  H15Y 8268   1.307   5.869   8.913  1.4547 -0.0572 -0.0823
   86SAPS  C316 8269   1.198   5.835   8.729  0.6129 -0.4750 -0.5123
   86SAPS  H16X 8270   1.149   5.932   8.749 -0.6011 -1.0408 -0.6090
   86SAPS  H16Y 8271   1.123   5.758   8.699  0.1563 -1.8526  3.6022
   86SAPS  C317 8272   1.288   5.841   8.611 -0.4560 -0.1766 -0.1501
   86SAPS  H17X 8273   1.385   5.879   8.650 -1.6396 -0.0436  2.9508
   86SAPS  H17Y 8274   1.245   5.914   8.540 -0.9586  0.8983  1.2117
   86SAPS  C318 8275   1.294   5.707   8.529 -0.2481 -0.6018  0.0325
   86SAPS  H18X 8276   1.191   5.669   8.508 -0.4198 -0.5656  0.7936
   86SAPS  H18Y 8277   1.358   5.630   8.576  0.2088 -1.4501 -1.8673
   86SAPS  H18Z 8278   1.342   5.727   8.431  0.1115  0.9710  0.4999
   87SAPS     N 8279   0.907   2.448  10.669 -0.0602  0.2025  0.0068
   87SAPS   HN1 8280   0.960   2.527  10.627 -1.9118  0.6657 -1.5917
   87SAPS   HN2 8281   0.965   2.361  10.675 -0.9746 -0.3329  1.8248
   87SAPS   HN3 8282   0.831   2.431  10.600  1.1853 -1.0547 -1.1417
   87SAPS   C12 8283   0.847   2.489  10.800 -0.3232  0.1006 -0.4529
   87SAPS  H12A 8284   0.794   2.579  10.775  0.7435  0.4794 -1.4211
   87SAPS   C13 8285   0.737   2.389  10.857 -0.0527  0.0780 -0.7371
   87SAPS  O13A 8286   0.695   2.290  10.792  0.3196 -0.2814  0.1454
   87SAPS  O13B 8287   0.694   2.409  10.973 -0.5961 -0.2354  0.0251
   87SAPS   C11 8288   0.955   2.499  10.916  0.2273  0.0470 -0.6278
   87SAPS  H11A 8289   1.004   2.401  10.928  1.7556  0.8848  0.1971
   87SAPS  H11B 8290   0.898   2.522  11.008  1.3337  1.5653 -0.2760
   87SAPS     P 8291   1.185   2.619  10.836 -0.0467 -0.4705  0.1653
   87SAPS   O13 8292   1.201   2.763  10.795  0.5065 -0.4626  0.2844
   87SAPS   O14 8293   1.286   2.590  10.938  0.0313  0.1443 -0.0361
   87SAPS   O12 8294   1.038   2.608  10.897  0.3282  0.3400 -0.0091
   87SAPS   O11 8295   1.188   2.529  10.714  0.2682 -0.2381 -0.6495
   87SAPS    C1 8296   1.303   2.469  10.655 -0.1262  0.2711 -0.5348
   87SAPS    HA 8297   1.383   2.445  10.729 -0.0055  0.4482 -0.6080
   87SAPS    HB 8298   1.277   2.373  10.606 -1.7723 -0.6010  1.8456
   87SAPS    C2 8299   1.373   2.554  10.541 -0.8558 -0.2939  0.7268
   87SAPS    HS 8300   1.394   2.654  10.585 -0.4533 -0.0797  0.0807
   87SAPS   O21 8301   1.287   2.560  10.420 -0.5277 -0.1614 -0.3143
   87SAPS   C21 8302   1.298   2.673  10.356 -0.6214 -0.5885 -0.1348
   87SAPS   O22 8303   1.387   2.759  10.377 -0.6124  0.4013  0.4871
   87SAPS   C22 8304   1.181   2.689  10.264 -0.7475 -0.2243  0.1642
   87SAPS   H2R 8305   1.155   2.586  10.229 -0.8989  0.1996 -1.0279
   87SAPS   H2S 8306   1.099   2.721  10.331  0.0683  1.1974  0.5116
   87SAPS    C3 8307   1.513   2.497  10.505 -0.4785 -0.5663  1.0435
   87SAPS    HX 8308   1.568   2.489  10.601  0.1093  1.0821  0.8738
   87SAPS    HY 8309   1.571   2.563  10.437  1.3653 -0.5367  2.5432
   87SAPS   O31 8310   1.503   2.370  10.443  0.5063  0.3129  0.1051
   87SAPS   C31 8311   1.620   2.317  10.404 -0.2262  0.2435  0.0514
   87SAPS   O32 8312   1.725   2.374  10.412 -0.2350 -0.2091 -0.2239
   87SAPS   C32 8313   1.606   2.171  10.363  0.6016  0.0329 -0.8552
   87SAPS   H2X 8314   1.505   2.171  10.317 -0.0705  0.0066  0.5620
   87SAPS   H2Y 8315   1.599   2.119  10.461  0.4614  0.2415 -0.7537
   87SAPS   C23 8316   1.202   2.795  10.154  0.0973  0.1561 -0.2969
   87SAPS   H3R 8317   1.244   2.887  10.200  0.0315 -0.9106  2.0380
   87SAPS   H3S 8318   1.100   2.820  10.117 -0.1437  1.6279  1.2450
   87SAPS   C24 8319   1.282   2.753  10.028  0.3835  0.3505  0.1689
   87SAPS   H4R 8320   1.236   2.816   9.948  0.6252 -1.1506 -1.1999
   87SAPS   H4S 8321   1.261   2.649   9.995  1.1923  0.3162 -0.2713
   87SAPS   C25 8322   1.431   2.771  10.044  0.3844  0.1317  0.0450
   87SAPS   H5R 8323   1.454   2.757  10.151 -4.2807 -0.2083  1.2482
   87SAPS   C26 8324   1.519   2.802   9.948  0.6264 -0.6097  0.6988
   87SAPS   H6R 8325   1.627   2.801   9.969  0.9808 -2.4980 -0.8796
   87SAPS   C27 8326   1.490   2.828   9.800 -0.3594  0.0676 -0.6134
   87SAPS   H7R 8327   1.513   2.934   9.777 -0.6615  0.0627 -0.9471
   87SAPS   H7S 8328   1.382   2.811   9.780 -0.7841 -2.0822  2.6187
   87SAPS   C28 8329   1.576   2.745   9.709  0.4737  0.7517 -0.3345
   87SAPS   H8R 8330   1.661   2.696   9.758  0.0499  0.0458 -0.2968
   87SAPS   C29 8331   1.561   2.722   9.575  0.2976  0.3515 -0.2201
   87SAPS   H9R 8332   1.631   2.658   9.519  0.1583  0.6434 -0.7324
   87SAPS  C210 8333   1.445   2.778   9.492  0.4854 -0.3484  0.3240
   87SAPS  H10R 8334   1.469   2.877   9.447 -2.6421  0.1762 -0.4128
   87SAPS  H10S 8335   1.361   2.803   9.560 -1.7899 -1.0419 -2.0521
   87SAPS  C211 8336   1.395   2.685   9.376 -0.1574 -0.1446  0.5012
   87SAPS  H11R 8337   1.423   2.583   9.407  3.0162  1.2071  2.5987
   87SAPS  C212 8338   1.339   2.720   9.256  0.1726 -0.2223 -0.1886
   87SAPS  H12R 8339   1.319   2.642   9.180  1.1596 -1.3538  0.6574
   87SAPS  C213 8340   1.309   2.857   9.200 -0.7196 -0.0722  0.7346
   87SAPS  H13R 8341   1.403   2.884   9.147  0.7697 -2.2641  2.1225
   87SAPS  H13S 8342   1.292   2.923   9.287  0.7616  1.9570 -0.4290
   87SAPS  C214 8343   1.181   2.856   9.117  0.0590 -0.4120  0.2887
   87SAPS  H14R 8344   1.107   2.788   9.163  0.5596 -1.3101 -0.2143
   87SAPS  C215 8345   1.131   2.939   9.017 -0.2013  0.4780  0.3195
   87SAPS  H15R 8346   1.027   2.926   8.982  0.6178  0.6203 -2.4135
   87SAPS  C216 8347   1.207   3.053   8.961  0.1952  0.4454 -0.4333
   87SAPS  H16R 8348   1.314   3.030   8.945 -0.3936 -2.2971 -0.9690
   87SAPS  H16S 8349   1.203   3.136   9.034 -0.3759 -0.2814  0.3811
   87SAPS  C217 8350   1.167   3.110   8.821  0.5284  0.4496  0.2185
   87SAPS  H17R 8351   1.233   3.198   8.804  0.7191  0.5031  1.1713
   87SAPS  H17S 8352   1.070   3.158   8.848  0.4444  1.0810 -1.1046
   87SAPS  C218 8353   1.149   3.014   8.702 -0.1616 -0.4876 -0.6340
   87SAPS  H18R 8354   1.074   2.939   8.737 -0.1773  0.3087  1.1496
   87SAPS  H18S 8355   1.239   2.950   8.688 -1.1495 -1.9246 -0.7002
   87SAPS  C219 8356   1.102   3.070   8.564 -0.4794 -0.2255 -0.3622
   87SAPS  H19R 8357   1.154   3.167   8.546  1.7376 -0.9450  1.6282
   87SAPS  H19S 8358   0.993   3.088   8.555 -0.3781  1.6124  1.3668
   87SAPS  C220 8359   1.130   2.969   8.447  0.0791  0.1176  1.1047
   87SAPS  H20R 8360   1.084   3.012   8.356  2.7583  0.7247 -0.0852
   87SAPS  H20S 8361   1.084   2.871   8.468 -0.3410  0.2881  0.9839
   87SAPS  H20T 8362   1.239   2.976   8.426  0.3174 -1.6740  1.6133
   87SAPS   C33 8363   1.707   2.118  10.257  0.0325 -0.3357 -0.7249
   87SAPS   H3X 8364   1.790   2.192  10.262 -2.5446  2.6796  0.5830
   87SAPS   H3Y 8365   1.653   2.122  10.160  0.8468 -2.2679 -1.2938
   87SAPS   C34 8366   1.757   1.977  10.292 -0.0913  0.4740  0.6945
   87SAPS   H4X 8367   1.685   1.898  10.320  2.0798 -1.4464  1.1690
   87SAPS   H4Y 8368   1.833   1.985  10.372 -0.3808  1.5805  0.8827
   87SAPS   C35 8369   1.819   1.922  10.157 -0.3739 -0.5375 -0.6798
   87SAPS   H5X 8370   1.894   1.994  10.119 -0.9981  0.5896  0.1760
   87SAPS   H5Y 8371   1.734   1.939  10.087 -0.6480  1.0584  0.0003
   87SAPS   C36 8372   1.850   1.769  10.156  0.0656  0.7887  0.3819
   87SAPS   H6X 8373   1.763   1.706  10.185  1.6627 -1.0148  1.4750
   87SAPS   H6Y 8374   1.932   1.738  10.223 -0.4959 -0.5495  0.4709
   87SAPS   C37 8375   1.898   1.717  10.011 -0.0032  0.5099 -0.6668
   87SAPS   H7X 8376   1.947   1.622  10.040 -3.6823 -1.3697 -0.0456
   87SAPS   H7Y 8377   1.966   1.781   9.951  0.0295  0.4242 -0.7219
   87SAPS   C38 8378   1.780   1.678   9.921 -0.0050 -0.5643 -0.2668
   87SAPS   H8X 8379   1.745   1.772   9.872  1.8739  0.6501  0.5757
   87SAPS   H8Y 8380   1.710   1.634   9.994  1.4807 -0.0002  1.5755
   87SAPS   C39 8381   1.817   1.577   9.815  0.3775  0.0204 -0.1755
   87SAPS   H9X 8382   1.732   1.568   9.744  0.8164 -1.6655 -0.5252
   87SAPS   H9Y 8383   1.844   1.479   9.860  0.7219 -0.6852 -1.8551
   87SAPS  C310 8384   1.944   1.626   9.740 -0.3888 -0.4808 -0.2490
   87SAPS  H10X 8385   2.029   1.633   9.811 -0.6975 -1.8884  0.2872
   87SAPS  H10Y 8386   1.928   1.729   9.701  3.1106  0.3970  0.2880
   87SAPS  C311 8387   1.994   1.545   9.615  0.3881  0.2875 -0.7311
   87SAPS  H11X 8388   2.003   1.443   9.657  0.2895  1.2188  1.6777
   87SAPS  H11Y 8389   2.092   1.587   9.586 -0.6835  1.9128 -2.2546
   87SAPS  C312 8390   1.906   1.549   9.493  0.1317  0.2120  0.6230
   87SAPS  H12X 8391   1.801   1.541   9.529 -0.2979  2.8426  0.1208
   87SAPS  H12Y 8392   1.932   1.463   9.428 -2.4966 -0.4597  0.3156
   87SAPS  C313 8393   1.909   1.683   9.418 -0.6531  0.3290 -0.3314
   87SAPS  H13X 8394   2.012   1.703   9.383  0.4784 -1.4264  1.7185
   87SAPS  H13Y 8395   1.867   1.768   9.475 -0.2683 -0.4206  1.1158
   87SAPS  C314 8396   1.819   1.685   9.292  0.0168 -0.4377  0.0249
   87SAPS  H14X 8397   1.720   1.643   9.321  0.8231 -1.6882  1.0501
   87SAPS  H14Y 8398   1.863   1.617   9.216 -0.7686  0.1875 -1.0275
   87SAPS  C315 8399   1.815   1.821   9.220 -0.9472 -0.0744  0.1063
   87SAPS  H15X 8400   1.796   1.899   9.296 -0.3010  0.2202 -0.0248
   87SAPS  H15Y 8401   1.730   1.815   9.149  0.3326  0.0898 -1.5057
   87SAPS  C316 8402   1.941   1.853   9.139  1.3143 -0.3520  1.0473
   87SAPS  H16X 8403   2.034   1.817   9.187  0.4749 -4.0447  0.1812
   87SAPS  H16Y 8404   1.950   1.964   9.140 -0.5671 -0.1691  1.0130
   87SAPS  C317 8405   1.938   1.776   9.002 -0.3712 -0.7007  0.3897
   87SAPS  H17X 8406   1.861   1.696   9.003  1.0949 -2.1836 -0.3502
   87SAPS  H17Y 8407   2.033   1.720   8.986  0.1173  0.2020  0.0302
   87SAPS  C318 8408   1.911   1.855   8.878 -0.7700 -0.9322  0.2534
   87SAPS  H18X 8409   1.986   1.932   8.851 -1.3313  0.2574  1.9397
   87SAPS  H18Y 8410   1.807   1.892   8.888 -0.5842 -0.4504  0.4252
   87SAPS  H18Z 8411   1.903   1.784   8.793  0.0874 -0.5980 -0.1175
   88SAPS     N 8412   3.278   5.181  11.105  0.1420 -0.0640  0.1885
   88SAPS   HN1 8413   3.207   5.110  11.078 -1.7839  2.0134 -0.5813
   88SAPS   HN2 8414   3.248   5.232  11.190 -0.8156 -1.1725  0.5395
   88SAPS   HN3 8415   3.293   5.248  11.027 -0.9536 -2.9906 -2.7593
   88SAPS   C12 8416   3.411   5.122  11.131 -0.4836 -0.3500  0.9118
   88SAPS  H12A 8417   3.469   5.204  11.170 -0.6649  0.0208  0.4105
   88SAPS   C13 8418   3.422   5.024  11.243 -0.5962 -0.5889 -0.1589
   88SAPS  O13A 8419   3.322   4.997  11.314 -0.2186  0.1930 -0.0527
   88SAPS  O13B 8420   3.537   4.978  11.265 -1.2522  0.2064  0.1063
   88SAPS   C11 8421   3.468   5.068  10.996  0.1408  0.4610 -0.2155
   88SAPS  H11A 8422   3.409   4.977  10.971 -1.5073  1.5665 -0.5530
   88SAPS  H11B 8423   3.575   5.042  11.010  0.0153  0.6987  1.3996
   88SAPS     P 8424   3.547   5.276  10.848 -0.1310  0.0054 -0.0492
   88SAPS   O13 8425   3.471   5.389  10.797  0.2976 -0.4666 -0.4104
   88SAPS   O14 8426   3.629   5.306  10.970  0.0392  0.5735 -0.5234
   88SAPS   O12 8427   3.443   5.161  10.885  0.1756  0.2777  0.6028
   88SAPS   O11 8428   3.655   5.225  10.745  0.1591  0.6274 -0.0199
   88SAPS    C1 8429   3.679   5.087  10.719 -0.1957  0.3003  0.3623
   88SAPS    HA 8430   3.778   5.055  10.757  0.6287  1.5832 -0.6315
   88SAPS    HB 8431   3.605   5.025  10.775 -1.7594  2.9254  1.3495
   88SAPS    C2 8432   3.660   5.064  10.569  0.2115 -0.2149  0.4036
   88SAPS    HS 8433   3.650   4.956  10.544 -1.3623 -0.4954  2.0483
   88SAPS   O21 8434   3.764   5.123  10.488 -0.4988  0.4021  0.0628
   88SAPS   C21 8435   3.873   5.050  10.460  0.2317 -0.2832 -0.8596
   88SAPS   O22 8436   3.901   4.940  10.504  0.2932  0.4448 -0.3982
   88SAPS   C22 8437   3.959   5.126  10.360  0.9258 -0.0057 -0.7710
   88SAPS   H2R 8438   4.016   5.204  10.415 -0.2685  0.8000 -0.6614
   88SAPS   H2S 8439   4.026   5.060  10.300  0.6901  0.2113 -1.2741
   88SAPS    C3 8440   3.519   5.118  10.519  0.6179  0.1280 -0.5265
   88SAPS    HX 8441   3.492   5.215  10.566 -3.6203 -0.8333 -0.5277
   88SAPS    HY 8442   3.446   5.046  10.562 -0.0050 -0.2780 -2.1825
   88SAPS   O31 8443   3.500   5.121  10.374 -0.0748  0.3990  0.3046
   88SAPS   C31 8444   3.528   5.235  10.310 -0.3748 -0.5386  0.2729
   88SAPS   O32 8445   3.569   5.335  10.367 -0.2691 -0.1741 -0.1840
   88SAPS   C32 8446   3.471   5.227  10.168 -0.4793  0.3705  0.5031
   88SAPS   H2X 8447   3.387   5.299  10.167 -1.5095 -0.7620 -1.3548
   88SAPS   H2Y 8448   3.425   5.128  10.147  0.3610  0.0546  0.0876
   88SAPS   C23 8449   3.874   5.209  10.261  0.4005 -0.2944  0.7385
   88SAPS   H3R 8450   3.821   5.299  10.301 -2.3490 -1.8516  0.8228
   88SAPS   H3S 8451   3.800   5.151  10.202  1.9178 -0.9620 -0.5833
   88SAPS   C24 8452   3.978   5.274  10.159 -0.3487  0.1300  0.3426
   88SAPS   H4R 8453   4.038   5.205  10.097  0.2407  1.2378 -0.3515
   88SAPS   H4S 8454   4.051   5.336  10.216  2.0248 -1.9350 -0.2887
   88SAPS   C25 8455   3.901   5.366  10.060  0.2027  0.7179  0.6298
   88SAPS   H5R 8456   3.857   5.456  10.106 -2.1100 -0.1937  0.3334
   88SAPS   C26 8457   3.905   5.360   9.929 -0.0012 -0.2580  0.3091
   88SAPS   H6R 8458   3.832   5.422   9.874 -0.4085 -2.2164 -1.5042
   88SAPS   C27 8459   3.981   5.264   9.838  0.1640 -0.2367  0.1898
   88SAPS   H7R 8460   4.083   5.262   9.880  0.7524 -0.8127 -1.2120
   88SAPS   H7S 8461   3.994   5.317   9.741 -0.1596 -0.9293 -0.2458
   88SAPS   C28 8462   3.924   5.122   9.824 -0.2359 -0.2495  0.1346
   88SAPS   H8R 8463   3.904   5.060   9.913  1.6734 -2.2389 -0.7235
   88SAPS   C29 8464   3.901   5.067   9.707  0.4668 -0.0639  0.1976
   88SAPS   H9R 8465   3.879   4.959   9.705  1.0573 -0.1778 -0.8127
   88SAPS  C210 8466   3.916   5.122   9.570  0.3733 -0.2529  0.0848
   88SAPS  H10R 8467   4.000   5.194   9.559  0.3538 -0.3528 -0.7951
   88SAPS  H10S 8468   3.826   5.184   9.548 -1.5859 -2.7841  0.5510
   88SAPS  C211 8469   3.925   5.013   9.470 -0.0433  0.4444 -0.2192
   88SAPS  H11R 8470   3.876   4.919   9.499  2.5619 -0.6082  1.1476
   88SAPS  C212 8471   3.993   5.018   9.356  0.1962 -0.9922 -0.2233
   88SAPS  H12R 8472   4.007   4.927   9.295  2.4402 -2.2111  1.9270
   88SAPS  C213 8473   4.067   5.133   9.296 -0.0369 -0.0382 -0.7690
   88SAPS  H13R 8474   4.131   5.180   9.374 -0.9337 -0.0374 -0.0214
   88SAPS  H13S 8475   3.997   5.209   9.255 -1.3730 -0.7558  0.0903
   88SAPS  C214 8476   4.161   5.098   9.187 -0.0828 -0.3636 -0.4032
   88SAPS  H14R 8477   4.267   5.095   9.216  0.4547 -0.2949 -2.2310
   88SAPS  C215 8478   4.130   5.086   9.058  0.3008  0.5373  0.4070
   88SAPS  H15R 8479   4.205   5.068   8.979 -1.7304 -0.7399 -1.3395
   88SAPS  C216 8480   3.992   5.111   9.001 -0.2397 -0.3400 -0.0145
   88SAPS  H16R 8481   3.908   5.091   9.072 -1.7266  1.8258 -1.0381
   88SAPS  H16S 8482   3.979   5.043   8.914  2.4114 -1.8190  0.6348
   88SAPS  C217 8483   3.951   5.247   8.939  0.1852 -0.2350  0.3739
   88SAPS  H17R 8484   3.933   5.318   9.023 -1.2468 -1.1852  0.8906
   88SAPS  H17S 8485   3.849   5.221   8.906  0.0357  0.2897  0.4069
   88SAPS  C218 8486   4.047   5.301   8.837 -0.3773 -1.0793 -0.5466
   88SAPS  H18R 8487   4.004   5.265   8.741  1.0285  2.3013 -2.6193
   88SAPS  H18S 8488   4.145   5.251   8.856 -0.0914 -0.1195  0.5993
   88SAPS  C219 8489   4.074   5.453   8.845  0.3778  0.9657  0.3844
   88SAPS  H19R 8490   4.159   5.476   8.777  1.2194  0.5706  1.2818
   88SAPS  H19S 8491   4.114   5.472   8.947  1.7010 -0.3832  0.1460
   88SAPS  C220 8492   3.948   5.536   8.815 -0.3585  0.4282 -0.6916
   88SAPS  H20R 8493   3.967   5.635   8.769 -0.2274  0.4160 -0.6626
   88SAPS  H20S 8494   3.889   5.554   8.908 -0.3044 -2.3379 -0.0438
   88SAPS  H20T 8495   3.877   5.480   8.750  0.6370 -0.9199 -0.6515
   88SAPS   C33 8496   3.574   5.282  10.060  0.2490  0.0337  0.1177
   88SAPS   H3X 8497   3.671   5.228  10.054  0.4763  0.5321 -0.9381
   88SAPS   H3Y 8498   3.607   5.386  10.083  2.6274 -0.8196  0.9226
   88SAPS   C34 8499   3.503   5.281   9.923 -0.0351 -0.0902 -0.8503
   88SAPS   H4X 8500   3.401   5.318   9.944  0.0810  0.3724 -1.0733
   88SAPS   H4Y 8501   3.498   5.175   9.891  1.6736  0.3002 -2.5876
   88SAPS   C35 8502   3.564   5.363   9.809  0.5954  0.6773  0.4897
   88SAPS   H5X 8503   3.648   5.305   9.765 -0.9180  0.7497 -2.7840
   88SAPS   H5Y 8504   3.610   5.459   9.841 -1.6205  1.4798  1.4734
   88SAPS   C36 8505   3.453   5.387   9.702 -0.6182  0.4313 -0.4706
   88SAPS   H6X 8506   3.490   5.459   9.626  0.5828 -1.4802 -1.7999
   88SAPS   H6Y 8507   3.365   5.439   9.746 -0.3255  2.1261 -1.8097
   88SAPS   C37 8508   3.404   5.255   9.631  0.3780 -0.1812  0.2011
   88SAPS   H7X 8509   3.344   5.206   9.710 -0.4481 -1.1878 -0.9975
   88SAPS   H7Y 8510   3.500   5.206   9.606  0.6101 -0.4177  1.4917
   88SAPS   C38 8511   3.325   5.285   9.502  0.2255  0.2292  0.8193
   88SAPS   H8X 8512   3.360   5.375   9.446 -0.3970 -1.0641 -1.8052
   88SAPS   H8Y 8513   3.216   5.292   9.522  0.0263 -0.0992 -0.0930
   88SAPS   C39 8514   3.337   5.158   9.410 -0.4074  0.2860 -0.0362
   88SAPS   H9X 8515   3.320   5.064   9.467  1.6532 -0.4349 -0.5251
   88SAPS   H9Y 8516   3.445   5.154   9.384 -0.5339 -1.7341 -0.3677
   88SAPS  C310 8517   3.246   5.154   9.282  0.1485  0.6099 -0.1080
   88SAPS  H10X 8518   3.248   5.251   9.228 -1.5082 -1.4425 -4.3610
   88SAPS  H10Y 8519   3.145   5.156   9.327  0.6312  1.5613  0.9683
   88SAPS  C311 8520   3.251   5.033   9.190 -0.1410  0.8126  0.6678
   88SAPS  H11X 8521   3.260   4.941   9.253 -1.5770  0.3037  0.1590
   88SAPS  H11Y 8522   3.339   5.031   9.123 -0.2212 -0.5107  0.5804
   88SAPS  C312 8523   3.122   5.013   9.105  0.2098 -0.8704  0.1260
   88SAPS  H12X 8524   3.034   5.016   9.173  0.2990 -1.4810  0.2749
   88SAPS  H12Y 8525   3.131   4.907   9.073 -1.2475 -0.4223 -2.0075
   88SAPS  C313 8526   3.107   5.109   8.981 -0.4479  0.7213  0.1457
   88SAPS  H13X 8527   3.205   5.159   8.967 -1.1258  2.8031  2.1876
   88SAPS  H13Y 8528   3.034   5.188   9.011 -1.3671  0.0984 -0.3854
   88SAPS  C314 8529   3.066   5.028   8.865 -0.2167 -0.8075  0.2516
   88SAPS  H14X 8530   3.023   5.099   8.792 -0.9676 -0.1918  1.2616
   88SAPS  H14Y 8531   2.983   4.963   8.902 -1.0050 -1.1314 -1.9634
   88SAPS  C315 8532   3.173   4.951   8.788 -0.3384 -0.3882  0.1066
   88SAPS  H15X 8533   3.116   4.886   8.718 -0.7103 -1.2301  1.1504
   88SAPS  H15Y 8534   3.231   4.889   8.860 -0.3718 -0.8792 -0.2798
   88SAPS  C316 8535   3.281   5.036   8.716 -0.6511 -0.7304  0.6540
   88SAPS  H16X 8536   3.364   5.072   8.780 -0.0955  1.9644 -1.3945
   88SAPS  H16Y 8537   3.241   5.131   8.674 -0.1706 -1.3987 -1.4331
   88SAPS  C317 8538   3.337   4.954   8.587  0.5932  0.2780  0.1593
   88SAPS  H17X 8539   3.241   4.934   8.534  0.8654 -1.1397  0.1454
   88SAPS  H17Y 8540   3.378   4.857   8.623 -0.9022 -1.3418 -2.2097
   88SAPS  C318 8541   3.431   5.039   8.510 -0.5707 -0.4840 -0.0449
   88SAPS  H18X 8542   3.451   4.989   8.414  1.7670 -0.0979  0.1923
   88SAPS  H18Y 8543   3.528   5.051   8.562 -0.4526 -1.1879 -0.1051
   88SAPS  H18Z 8544   3.392   5.142   8.489 -1.7867 -0.3080  2.6284
   89SAPS     N 8545   4.272   2.253  11.004 -0.3573  0.2316 -0.2347
   89SAPS   HN1 8546   4.356   2.201  10.971  0.0369  0.7550 -0.0784
   89SAPS   HN2 8547   4.246   2.215  11.097  0.1563  2.2295  0.7876
   89SAPS   HN3 8548   4.188   2.225  10.950 -0.2331 -0.3428 -0.1406
   89SAPS   C12 8549   4.287   2.403  11.009 -0.0655  0.4231  1.0050
   89SAPS  H12A 8550   4.210   2.439  11.076 -3.5648 -0.7300 -2.0586
   89SAPS   C13 8551   4.426   2.443  11.062 -0.1822  0.8931  1.3408
   89SAPS  O13A 8552   4.495   2.361  11.127  0.0148  1.0064 -0.0614
   89SAPS  O13B 8553   4.463   2.561  11.056 -0.0243 -0.4222 -0.0820
   89SAPS   C11 8554   4.269   2.446  10.861  0.2591  0.0042 -0.9733
   89SAPS  H11A 8555   4.347   2.398  10.797  1.4874  1.0064 -0.2616
   89SAPS  H11B 8556   4.288   2.555  10.853 -0.5822  0.3833  1.4482
   89SAPS     P 8557   4.036   2.555  10.798  0.5054  0.3027  0.6137
   89SAPS   O13 8558   3.895   2.505  10.782 -0.6025 -0.1622 -0.5204
   89SAPS   O14 8559   4.045   2.647  10.908 -0.6109 -0.1237 -0.3373
   89SAPS   O12 8560   4.132   2.430  10.814  0.1996 -0.0506  0.3735
   89SAPS   O11 8561   4.090   2.616  10.666  0.0242 -0.5620 -0.0341
   89SAPS    C1 8562   4.217   2.680  10.658 -0.2977  0.1285 -0.1139
   89SAPS    HA 8563   4.234   2.746  10.746 -0.3771 -3.1862  2.6033
   89SAPS    HB 8564   4.304   2.612  10.662 -0.1295 -0.0836 -3.8490
   89SAPS    C2 8565   4.231   2.757  10.524 -0.3045 -0.0310  0.0907
   89SAPS    HS 8566   4.170   2.850  10.516  0.7890  0.5487 -2.0895
   89SAPS   O21 8567   4.213   2.662  10.416  0.7633 -0.5298 -0.2163
   89SAPS   C21 8568   4.102   2.689  10.346  0.0087  0.0499  1.0170
   89SAPS   O22 8569   4.018   2.776  10.373 -0.0603 -0.3422  0.6879
   89SAPS   C22 8570   4.103   2.609  10.217 -0.1249  0.1334 -0.7742
   89SAPS   H2R 8571   4.208   2.584  10.190  0.7011  2.4539  0.0636
   89SAPS   H2S 8572   4.038   2.523  10.242 -0.5738  0.9376  1.0156
   89SAPS    C3 8573   4.368   2.823  10.508 -0.3004 -0.1916  0.7522
   89SAPS    HX 8574   4.437   2.737  10.511  0.3274  0.3287  2.6704
   89SAPS    HY 8575   4.392   2.888  10.595 -1.3785 -0.9205  1.6177
   89SAPS   O31 8576   4.378   2.893  10.379 -0.0404  0.0834 -0.7571
   89SAPS   C31 8577   4.346   3.020  10.386 -0.3815 -0.3356 -0.1498
   89SAPS   O32 8578   4.307   3.079  10.486 -0.3789  0.6639 -0.0446
   89SAPS   C32 8579   4.346   3.085  10.250 -0.2009  0.3790  0.2273
   89SAPS   H2X 8580   4.452   3.087  10.218 -0.2346  0.5085  0.1255
   89SAPS   H2Y 8581   4.306   3.187  10.264 -0.2160  0.2708  1.0445
   89SAPS   C23 8582   4.044   2.683  10.099  0.1938  0.4180 -0.2882
   89SAPS   H3R 8583   4.086   2.785  10.085  0.8188  0.4265  1.3806
   89SAPS   H3S 8584   3.936   2.701  10.113  0.1712  0.1258 -0.0723
   89SAPS   C24 8585   4.093   2.607   9.974 -0.1618 -0.5421 -0.4617
   89SAPS   H4R 8586   4.202   2.608   9.994 -0.1982 -0.7602 -0.2548
   89SAPS   H4S 8587   4.065   2.673   9.889 -0.9908 -0.8247 -0.4254
   89SAPS   C25 8588   4.041   2.471   9.948  0.1440 -0.7055 -0.8027
   89SAPS   H5R 8589   4.100   2.394  10.001 -0.2047 -1.1331 -1.0264
   89SAPS   C26 8590   3.960   2.432   9.848  0.1050 -0.7346  0.4539
   89SAPS   H6R 8591   3.930   2.327   9.835  0.1374 -0.5564 -1.4655
   89SAPS   C27 8592   3.914   2.521   9.734  0.8530  0.1900 -0.6265
   89SAPS   H7R 8593   3.898   2.455   9.646 -0.2293 -1.5826  0.8332
   89SAPS   H7S 8594   3.994   2.595   9.709  0.5889  0.3993 -0.8620
   89SAPS   C28 8595   3.787   2.609   9.745 -0.6660 -0.4564 -0.8984
   89SAPS   H8R 8596   3.722   2.580   9.829 -0.8331 -0.4252 -1.0172
   89SAPS   C29 8597   3.754   2.723   9.679  0.7849  0.4956 -0.4432
   89SAPS   H9R 8598   3.673   2.785   9.720 -0.1142 -1.4891  0.9353
   89SAPS  C210 8599   3.824   2.794   9.567 -0.0895  0.0972  0.1925
   89SAPS  H10R 8600   3.863   2.717   9.497  3.6529  1.1130  0.8932
   89SAPS  H10S 8601   3.907   2.847   9.619  1.0392 -2.0535  0.7400
   89SAPS  C211 8602   3.735   2.875   9.476 -0.8565 -0.4457 -0.1677
   89SAPS  H11R 8603   3.673   2.948   9.530 -0.2467 -0.1512  0.1439
   89SAPS  C212 8604   3.750   2.886   9.338 -0.3048  0.4161 -0.3426
   89SAPS  H12R 8605   3.675   2.946   9.283  0.5007 -0.1770 -2.1524
   89SAPS  C213 8606   3.853   2.822   9.255  0.1840  0.5324 -0.1925
   89SAPS  H13R 8607   3.910   2.747   9.314 -3.8112 -2.8354 -0.1567
   89SAPS  H13S 8608   3.935   2.894   9.235  0.7663 -0.3057 -0.8311
   89SAPS  C214 8609   3.784   2.758   9.133 -0.0394 -0.3566 -0.1910
   89SAPS  H14R 8610   3.738   2.659   9.149  2.1969 -1.3603  0.4498
   89SAPS  C215 8611   3.770   2.812   9.009 -0.3094  0.0109  0.8759
   89SAPS  H15R 8612   3.716   2.753   8.933 -1.3186  0.5310  1.1595
   89SAPS  C216 8613   3.819   2.945   8.968 -0.3195 -0.6098  0.1577
   89SAPS  H16R 8614   3.926   2.960   8.995 -0.4155 -0.2977  0.3802
   89SAPS  H16S 8615   3.759   3.020   9.025 -1.2574 -1.9826  1.0416
   89SAPS  C217 8616   3.797   2.973   8.820  0.5980  0.4540  0.0081
   89SAPS  H17R 8617   3.819   3.077   8.788 -0.5053 -0.1536 -3.0772
   89SAPS  H17S 8618   3.690   2.952   8.799  0.6946 -0.4565  0.4247
   89SAPS  C218 8619   3.868   2.879   8.726 -0.2997  0.9836 -0.5680
   89SAPS  H18R 8620   3.855   2.771   8.751 -2.3373  1.3659  0.1428
   89SAPS  H18S 8621   3.978   2.892   8.741 -0.2427 -0.0119  0.0607
   89SAPS  C219 8622   3.833   2.912   8.578 -0.2954 -0.1693 -0.0170
   89SAPS  H19R 8623   3.862   3.018   8.561  2.1279 -0.6654  0.6425
   89SAPS  H19S 8624   3.722   2.908   8.566 -0.5546  2.4603  0.8313
   89SAPS  C220 8625   3.912   2.827   8.485 -0.0956  0.6592  0.3058
   89SAPS  H20R 8626   4.020   2.844   8.505  0.6444  0.0210 -2.6311
   89SAPS  H20S 8627   3.886   2.853   8.380  1.3917  0.0037 -0.2561
   89SAPS  H20T 8628   3.897   2.718   8.502 -0.6660  0.6436 -0.2620
   89SAPS   C33 8629   4.260   3.016  10.140  0.2222 -0.1401 -0.2555
   89SAPS   H3X 8630   4.157   3.018  10.182  0.4328  0.7593  0.2397
   89SAPS   H3Y 8631   4.300   2.913  10.129 -0.4618 -0.3512 -0.8873
   89SAPS   C34 8632   4.261   3.093  10.005 -0.2017  0.1883  0.2064
   89SAPS   H4X 8633   4.368   3.100   9.977 -0.8400  2.2478 -2.0786
   89SAPS   H4Y 8634   4.216   3.192  10.029 -0.5530 -0.6942  3.7544
   89SAPS   C35 8635   4.186   3.029   9.885 -0.3618 -0.5500 -0.7950
   89SAPS   H5X 8636   4.120   3.107   9.843  0.3452 -0.0873 -1.0656
   89SAPS   H5Y 8637   4.117   2.951   9.924 -0.0857 -0.3781  0.0565
   89SAPS   C36 8638   4.268   2.943   9.781  0.5053  0.0673 -0.5260
   89SAPS   H6X 8639   4.300   2.851   9.834  0.2120  1.2871  1.8951
   89SAPS   H6Y 8640   4.362   2.993   9.750  0.2778  0.2809 -0.8760
   89SAPS   C37 8641   4.189   2.893   9.654  0.1754 -1.1244 -0.1142
   89SAPS   H7X 8642   4.142   2.989   9.626  0.0717 -1.3391 -0.6951
   89SAPS   H7Y 8643   4.117   2.811   9.676 -1.8926  0.9196  1.1633
   89SAPS   C38 8644   4.280   2.847   9.539  0.4338 -0.5592 -0.0693
   89SAPS   H8X 8645   4.304   2.739   9.554 -1.1078 -1.0086 -0.5714
   89SAPS   H8Y 8646   4.373   2.907   9.536 -0.0332  0.1751 -0.2606
   89SAPS   C39 8647   4.214   2.864   9.404  1.0520 -0.0973  1.0058
   89SAPS   H9X 8648   4.185   2.971   9.391  2.1584  0.4441  2.6815
   89SAPS   H9Y 8649   4.127   2.796   9.400 -2.4007  3.8835  1.5201
   89SAPS  C310 8650   4.304   2.833   9.287 -0.3688  0.6606  0.4770
   89SAPS  H10X 8651   4.325   2.725   9.279 -1.6288  0.5245 -2.2646
   89SAPS  H10Y 8652   4.402   2.881   9.309  1.1170  0.0689 -3.7928
   89SAPS  C311 8653   4.256   2.872   9.144  0.1983  0.6396 -0.3715
   89SAPS  H11X 8654   4.251   2.982   9.146 -1.3861  0.5849 -0.3142
   89SAPS  H11Y 8655   4.151   2.837   9.135  0.8671 -0.9425 -2.9276
   89SAPS  C312 8656   4.343   2.830   9.021 -0.1291  0.3931  0.2883
   89SAPS  H12X 8657   4.384   2.727   9.018 -0.5427  0.2434 -0.8255
   89SAPS  H12Y 8658   4.434   2.893   9.020  1.0390 -1.2247 -1.3301
   89SAPS  C313 8659   4.267   2.850   8.896 -0.6263  0.8863 -0.6228
   89SAPS  H13X 8660   4.220   2.949   8.883  0.9164  1.5913 -1.0300
   89SAPS  H13Y 8661   4.185   2.775   8.887  0.4457 -0.4083  0.0229
   89SAPS  C314 8662   4.360   2.827   8.774  0.1615 -0.3397  0.3144
   89SAPS  H14X 8663   4.413   2.731   8.793  0.7346  0.0060  0.4872
   89SAPS  H14Y 8664   4.442   2.903   8.774 -0.6435  0.5519 -0.3581
   89SAPS  C315 8665   4.292   2.826   8.638  0.3450 -0.3572 -0.0912
   89SAPS  H15X 8666   4.265   2.933   8.623  1.0703 -0.0929  0.3746
   89SAPS  H15Y 8667   4.201   2.764   8.648  0.7146 -0.7366  1.1233
   89SAPS  C316 8668   4.399   2.787   8.530  0.3404 -0.1945  0.4549
   89SAPS  H16X 8669   4.347   2.811   8.435  0.6975  2.0124  0.7632
   89SAPS  H16Y 8670   4.420   2.678   8.532  2.2349  0.0423 -1.8236
   89SAPS  C317 8671   4.526   2.865   8.516 -0.4890  0.5364  0.1371
   89SAPS  H17X 8672   4.582   2.833   8.606 -1.2782  0.3490  0.5699
   89SAPS  H17Y 8673   4.506   2.974   8.527  3.4313  1.3323  1.0925
   89SAPS  C318 8674   4.603   2.835   8.380 -0.7970  0.0843 -0.4673
   89SAPS  H18X 8675   4.710   2.865   8.387 -0.7793 -0.2385  1.2945
   89SAPS  H18Y 8676   4.554   2.886   8.295  0.0026 -0.6424 -1.3870
   89SAPS  H18Z 8677   4.618   2.726   8.367  0.1110  0.2460 -0.8498
   90SAPS     N 8678   5.632   1.979  10.549 -0.0079 -0.0442 -0.3698
   90SAPS   HN1 8679   5.544   1.950  10.502  0.3437  0.0985 -1.1329
   90SAPS   HN2 8680   5.708   1.975  10.478  2.9781 -2.2690  2.6337
   90SAPS   HN3 8681   5.665   1.913  10.622 -2.4274 -0.3367  0.5610
   90SAPS   C12 8682   5.612   2.111  10.609 -0.0037  0.4202 -0.3723
   90SAPS  H12A 8683   5.580   2.183  10.535  1.2579 -1.1506 -2.5671
   90SAPS   C13 8684   5.503   2.116  10.716 -0.1025 -0.4465 -0.5181
   90SAPS  O13A 8685   5.449   2.011  10.763  0.0765 -0.6732  0.0283
   90SAPS  O13B 8686   5.498   2.221  10.792 -0.0610  0.4620  0.2859
   90SAPS   C11 8687   5.757   2.157  10.658  0.4356  0.1985 -0.3381
   90SAPS  H11A 8688   5.804   2.098  10.740  1.4347  0.9125 -0.3676
   90SAPS  H11B 8689   5.731   2.252  10.709 -2.6264 -0.3883 -0.6600
   90SAPS     P 8690   6.005   2.200  10.603 -0.4898  0.3373 -0.4201
   90SAPS   O13 8691   6.008   2.339  10.655 -0.7508 -0.0656 -0.5150
   90SAPS   O14 8692   6.059   2.093  10.694  0.2964  0.1672 -0.1720
   90SAPS   O12 8693   5.854   2.178  10.553  0.0406  0.1099  0.0340
   90SAPS   O11 8694   6.087   2.200  10.466 -0.1189 -0.4405 -0.0774
   90SAPS    C1 8695   6.043   2.276  10.352  0.3499  0.0181 -0.2480
   90SAPS    HA 8696   5.986   2.366  10.384 -0.8397 -0.8342  0.1236
   90SAPS    HB 8697   6.130   2.316  10.297  0.9400  0.5587  1.0333
   90SAPS    C2 8698   5.969   2.185  10.256  0.1156  0.0832 -0.1708
   90SAPS    HS 8699   5.921   2.095  10.301 -1.6943  1.1143  0.0685
   90SAPS   O21 8700   6.048   2.143  10.144 -0.2514 -0.4658 -0.0810
   90SAPS   C21 8701   6.133   2.042  10.158 -0.2477  0.0139 -0.1296
   90SAPS   O22 8702   6.138   1.959  10.254 -1.0076 -0.0280  0.2685
   90SAPS   C22 8703   6.235   2.040  10.035 -0.4721 -0.2086 -0.2092
   90SAPS   H2R 8704   6.288   2.137  10.033 -2.2272  0.8404  0.9744
   90SAPS   H2S 8705   6.313   1.963  10.052  0.3556  0.5530 -0.4742
   90SAPS    C3 8706   5.844   2.262  10.204  0.8652 -0.2508 -0.1106
   90SAPS    HX 8707   5.886   2.350  10.150 -0.4071  0.9719  0.8072
   90SAPS    HY 8708   5.788   2.296  10.294  2.3404  0.7837  0.4665
   90SAPS   O31 8709   5.761   2.201  10.106  0.1437 -0.2304 -0.1852
   90SAPS   C31 8710   5.675   2.108  10.156 -0.1006  0.7527 -0.2438
   90SAPS   O32 8711   5.681   2.068  10.273  0.4423  0.0246 -0.3685
   90SAPS   C32 8712   5.581   2.053  10.054 -0.1934 -0.3729 -0.2463
   90SAPS   H2X 8713   5.481   2.070  10.100 -0.8069 -0.7393 -1.4203
   90SAPS   H2Y 8714   5.609   1.949  10.029  2.0420  0.0019  0.4191
   90SAPS   C23 8715   6.166   2.020   9.901  0.3086 -0.2356 -0.6164
   90SAPS   H3R 8716   6.088   2.098   9.888  1.4369  0.8601 -0.9259
   90SAPS   H3S 8717   6.123   1.917   9.905 -0.2498  0.0171  0.0891
   90SAPS   C24 8718   6.265   2.009   9.779 -0.0380  0.3905  0.0509
   90SAPS   H4R 8719   6.333   1.926   9.806  1.3077  1.2650 -0.5449
   90SAPS   H4S 8720   6.336   2.095   9.783  2.4214 -1.4080 -1.6481
   90SAPS   C25 8721   6.209   1.990   9.637  0.2482 -0.0507  0.5330
   90SAPS   H5R 8722   6.117   2.049   9.622  0.3322  0.0400  0.3698
   90SAPS   C26 8723   6.250   1.914   9.533 -0.6481 -0.1251  0.3280
   90SAPS   H6R 8724   6.198   1.921   9.436 -2.0403 -1.5940  0.9216
   90SAPS   C27 8725   6.377   1.836   9.527 -0.2989 -0.1908 -0.1170
   90SAPS   H7R 8726   6.371   1.777   9.433 -1.6979 -0.3575  0.0558
   90SAPS   H7S 8727   6.384   1.766   9.613 -0.0661 -0.2261 -0.1625
   90SAPS   C28 8728   6.494   1.931   9.517  1.1853 -0.6786 -0.2401
   90SAPS   H8R 8729   6.495   2.017   9.586 -1.0759 -0.0848 -0.8872
   90SAPS   C29 8730   6.578   1.946   9.410 -0.6827  0.2884  0.1015
   90SAPS   H9R 8731   6.657   2.022   9.415 -0.2280 -0.1891  0.2986
   90SAPS  C210 8732   6.588   1.867   9.282 -0.4986  0.2368 -0.8423
   90SAPS  H10R 8733   6.564   1.760   9.294 -0.6665 -0.0532 -3.2413
   90SAPS  H10S 8734   6.694   1.874   9.249 -0.1061  1.0741  0.4862
   90SAPS  C211 8735   6.479   1.910   9.187  0.2409 -0.5030 -0.2107
   90SAPS  H11R 8736   6.383   1.941   9.231  1.3630  2.2053  0.5030
   90SAPS  C212 8737   6.496   1.915   9.058  0.3258 -0.7953  0.3416
   90SAPS  H12R 8738   6.426   1.952   8.982  0.7064  1.9212  1.1878
   90SAPS  C213 8739   6.623   1.882   8.984 -0.8351 -0.6130 -0.2502
   90SAPS  H13R 8740   6.705   1.917   9.051 -0.2638 -2.4285  0.0536
   90SAPS  H13S 8741   6.633   1.946   8.894  1.4087  0.4083  0.6501
   90SAPS  C214 8742   6.651   1.736   8.957 -0.6629 -0.4874 -0.4077
   90SAPS  H14R 8743   6.685   1.681   9.047 -0.4931  2.0343  1.1636
   90SAPS  C215 8744   6.653   1.674   8.837 -0.5613  0.6789 -0.5687
   90SAPS  H15R 8745   6.680   1.568   8.838 -0.1749  0.7765  0.4242
   90SAPS  C216 8746   6.627   1.733   8.701 -0.0878  0.5735  0.4116
   90SAPS  H16R 8747   6.713   1.701   8.638  0.6293  0.1679  1.5391
   90SAPS  H16S 8748   6.626   1.844   8.695 -0.7675  0.5080 -1.1518
   90SAPS  C217 8749   6.504   1.660   8.638 -0.2089  0.0593 -0.2995
   90SAPS  H17R 8750   6.465   1.738   8.570 -2.2822 -0.4751  0.2089
   90SAPS  H17S 8751   6.420   1.643   8.709 -0.7325 -0.6692 -1.0697
   90SAPS  C218 8752   6.550   1.539   8.549  0.3493 -0.0018  0.1557
   90SAPS  H18R 8753   6.621   1.570   8.469  0.9152 -0.9536  0.2716
   90SAPS  H18S 8754   6.453   1.513   8.502 -2.0063  1.7552  3.6179
   90SAPS  C219 8755   6.616   1.419   8.626  0.1209 -0.7823 -0.0161
   90SAPS  H19R 8756   6.539   1.381   8.696 -0.1286 -1.2715 -0.5495
   90SAPS  H19S 8757   6.707   1.466   8.670  0.7830  0.5888 -2.6111
   90SAPS  C220 8758   6.680   1.304   8.537 -0.5436 -0.0376  0.3832
   90SAPS  H20R 8759   6.602   1.257   8.473 -0.4232  2.3049 -1.6291
   90SAPS  H20S 8760   6.723   1.226   8.604 -1.9629 -0.3623  0.9559
   90SAPS  H20T 8761   6.754   1.340   8.463 -1.2939 -1.7356 -1.2825
   90SAPS   C33 8762   5.574   2.135   9.916 -0.1136  0.6424 -0.7227
   90SAPS   H3X 8763   5.675   2.128   9.870  1.1437 -2.3542  2.1078
   90SAPS   H3Y 8764   5.556   2.244   9.929  1.5802  0.6882  2.3048
   90SAPS   C34 8765   5.473   2.070   9.825  0.5379 -0.3429 -0.3344
   90SAPS   H4X 8766   5.380   2.073   9.885  0.3049  3.0361 -0.6369
   90SAPS   H4Y 8767   5.507   1.968   9.799  1.0274 -0.0541 -0.8609
   90SAPS   C35 8768   5.454   2.150   9.695 -0.1636 -0.1277  0.1722
   90SAPS   H5X 8769   5.420   2.255   9.711 -1.3289 -0.1617 -1.7637
   90SAPS   H5Y 8770   5.362   2.111   9.647 -1.5796  0.8887  1.9066
   90SAPS   C36 8771   5.572   2.145   9.599  1.0504 -0.0698  1.0101
   90SAPS   H6X 8772   5.576   2.040   9.565  1.0100 -0.7513  2.9615
   90SAPS   H6Y 8773   5.668   2.160   9.653  1.0676 -0.7698  1.1830
   90SAPS   C37 8774   5.563   2.234   9.480  0.3781  0.1443  0.0635
   90SAPS   H7X 8775   5.548   2.341   9.502  1.0805  0.0703  0.9927
   90SAPS   H7Y 8776   5.468   2.206   9.430 -0.5657  1.9471  0.7599
   90SAPS   C38 8777   5.672   2.199   9.370  0.6237 -0.1714 -0.3584
   90SAPS   H8X 8778   5.652   2.262   9.281 -0.3636  0.2301  0.1334
   90SAPS   H8Y 8779   5.654   2.091   9.351  0.4729 -0.3929  0.9284
   90SAPS   C39 8780   5.819   2.226   9.414 -0.3180  0.8420  0.3753
   90SAPS   H9X 8781   5.850   2.165   9.502  1.8065 -0.1975 -0.9874
   90SAPS   H9Y 8782   5.817   2.329   9.454 -1.7363  0.2360  2.0381
   90SAPS  C310 8783   5.924   2.217   9.301  0.5526 -0.3533 -0.3536
   90SAPS  H10X 8784   6.009   2.281   9.333  2.4048 -1.9812 -1.7345
   90SAPS  H10Y 8785   5.883   2.262   9.208  0.3611 -0.6992 -0.4383
   90SAPS  C311 8786   5.978   2.069   9.273 -0.6654 -0.0307 -0.1645
   90SAPS  H11X 8787   5.899   2.017   9.216 -1.4340  0.9219 -0.0022
   90SAPS  H11Y 8788   5.990   2.023   9.374  0.2963 -0.5506 -0.5039
   90SAPS  C312 8789   6.093   2.070   9.178 -0.1315  0.3994  0.5853
   90SAPS  H12X 8790   6.145   1.975   9.157  0.9645  1.2246 -0.5993
   90SAPS  H12Y 8791   6.170   2.141   9.217  0.0418 -0.4432  1.8321
   90SAPS  C313 8792   6.049   2.114   9.039 -0.1673  0.3621  0.9482
   90SAPS  H13X 8793   6.017   2.221   9.036  1.5046  0.8580 -0.6468
   90SAPS  H13Y 8794   5.971   2.050   8.994  1.9095 -2.2305  0.8327
   90SAPS  C314 8795   6.171   2.126   8.940  0.0503 -0.1512 -0.2120
   90SAPS  H14X 8796   6.236   2.039   8.967  0.5066  0.6214  1.3094
   90SAPS  H14Y 8797   6.229   2.217   8.965 -3.6977  2.3830 -0.0263
   90SAPS  C315 8798   6.139   2.117   8.794  0.0170 -0.8470 -0.2858
   90SAPS  H15X 8799   6.081   2.210   8.774  0.3928 -0.4783  0.2972
   90SAPS  H15Y 8800   6.064   2.035   8.783 -0.7260 -0.1813 -0.3022
   90SAPS  C316 8801   6.255   2.110   8.690  0.1410  0.6642 -0.4216
   90SAPS  H16X 8802   6.217   2.110   8.586 -0.1216 -0.2969 -0.3353
   90SAPS  H16Y 8803   6.291   2.005   8.699 -1.3422  0.0474 -1.3409
   90SAPS  C317 8804   6.372   2.213   8.722 -0.0835 -0.5082 -0.4883
   90SAPS  H17X 8805   6.400   2.187   8.827 -2.8191 -0.0613  0.4345
   90SAPS  H17Y 8806   6.328   2.315   8.716 -1.6784 -1.1092  0.3111
   90SAPS  C318 8807   6.493   2.193   8.623 -1.1395 -0.2131 -0.6811
   90SAPS  H18X 8808   6.561   2.268   8.669 -1.6636 -0.1676  0.0470
   90SAPS  H18Y 8809   6.480   2.237   8.522  0.0815  0.3070 -0.6302
   90SAPS  H18Z 8810   6.541   2.093   8.628  0.1545  0.4326  2.4156
   91SAPS     N 8811   2.977   0.248   5.979 -0.1700 -0.1216  0.1137
   91SAPS   HN1 8812   2.972   0.310   5.896  0.1905 -1.5018 -0.9719
   91SAPS   HN2 8813   2.877   0.240   6.004 -0.2779 -2.3376 -0.7938
   91SAPS   HN3 8814   3.016   0.307   6.057  2.0265 -0.1216 -0.8977
   91SAPS   C12 8815   3.048   0.117   5.965  0.0807 -0.3247  0.3403
   91SAPS  H12A 8816   3.000   0.054   5.891 -0.6798 -1.4576  1.7605
   91SAPS   C13 8817   3.186   0.127   5.910  0.1460  0.1815  0.0172
   91SAPS  O13A 8818   3.247   0.238   5.887 -0.0999  0.4380 -0.1632
   91SAPS  O13B 8819   3.247   0.023   5.893  0.2559 -0.0397  0.3802
   91SAPS   C11 8820   3.043   0.046   6.112 -0.6928  0.4337 -0.1307
   91SAPS  H11A 8821   3.080   0.121   6.186  0.3565 -0.4616  0.2721
   91SAPS  H11B 8822   3.120  -0.031   6.130 -0.9275  0.6530  2.1556
   91SAPS     P 8823   2.882  -0.160   6.110  0.0955  0.0259  0.1185
   91SAPS   O13 8824   2.771  -0.162   6.011 -0.1762 -0.1374  0.3742
   91SAPS   O14 8825   3.004  -0.231   6.066 -0.0528  0.2966  0.1874
   91SAPS   O12 8826   2.918  -0.014   6.146  0.2425 -0.5873 -0.4946
   91SAPS   O11 8827   2.837  -0.217   6.245 -0.4708  0.1661  0.1988
   91SAPS    C1 8828   2.931  -0.207   6.352  0.6116 -0.2157 -0.3094
   91SAPS    HA 8829   3.007  -0.286   6.336 -0.0134 -0.8284 -0.3295
   91SAPS    HB 8830   2.975  -0.106   6.368 -0.1581  0.1537 -0.4598
   91SAPS    C2 8831   2.867  -0.243   6.492 -0.7843  0.6059 -0.5960
   91SAPS    HS 8832   2.934  -0.203   6.571 -0.3568 -3.7329  1.5324
   91SAPS   O21 8833   2.856  -0.390   6.505 -0.2230  0.0145 -0.0202
   91SAPS   C21 8834   2.972  -0.453   6.531 -0.0084  0.0392 -0.0085
   91SAPS   O22 8835   3.082  -0.400   6.524  0.3168  0.0988 -0.0129
   91SAPS   C22 8836   2.940  -0.602   6.564 -0.1485 -0.2609 -0.4206
   91SAPS   H2R 8837   2.834  -0.616   6.594  0.2276 -1.7356  0.3084
   91SAPS   H2S 8838   2.960  -0.658   6.470 -0.8807 -0.3371 -0.5342
   91SAPS    C3 8839   2.731  -0.182   6.522 -0.0441 -0.8637 -0.2350
   91SAPS    HX 8840   2.643  -0.227   6.471 -1.1282  0.1736  0.6567
   91SAPS    HY 8841   2.735  -0.073   6.497 -2.1946 -0.8099 -0.6039
   91SAPS   O31 8842   2.714  -0.188   6.664 -0.4446 -0.4950 -0.7436
   91SAPS   C31 8843   2.646  -0.283   6.723 -0.6617 -0.2367  0.2295
   91SAPS   O32 8844   2.581  -0.368   6.657  0.1190 -0.4883  0.1251
   91SAPS   C32 8845   2.677  -0.279   6.873 -1.0819  0.6640 -0.2833
   91SAPS   H2X 8846   2.778  -0.235   6.885 -0.4005 -0.6042 -1.0582
   91SAPS   H2Y 8847   2.695  -0.383   6.908 -0.8328  0.6823 -0.3509
   91SAPS   C23 8848   3.033  -0.642   6.676  0.1373  0.0419 -0.0980
   91SAPS   H3R 8849   3.134  -0.603   6.651 -0.7277  2.7640  0.3044
   91SAPS   H3S 8850   3.043  -0.753   6.678  1.3184  0.1460  1.3586
   91SAPS   C24 8851   2.996  -0.598   6.817  0.6769  0.8032  0.3843
   91SAPS   H4R 8852   3.035  -0.674   6.887  0.7442  0.2609 -0.2267
   91SAPS   H4S 8853   2.885  -0.597   6.831  0.8566  1.4912  1.8853
   91SAPS   C25 8854   3.042  -0.458   6.852 -0.8079  1.4067 -0.1962
   91SAPS   H5R 8855   3.115  -0.425   6.778 -0.0282 -0.4976 -0.3193
   91SAPS   C26 8856   3.028  -0.398   6.978  0.1490  0.2185  0.4632
   91SAPS   H6R 8857   3.065  -0.295   6.987  2.5101 -0.6967  2.1397
   91SAPS   C27 8858   2.956  -0.464   7.096 -0.2162  0.4066  0.7627
   91SAPS   H7R 8859   2.989  -0.569   7.109 -1.0221 -0.1536 -1.2433
   91SAPS   H7S 8860   2.848  -0.454   7.068 -0.3168  0.8990  1.3061
   91SAPS   C28 8861   2.965  -0.381   7.213  0.6298 -0.3471 -0.0296
   91SAPS   H8R 8862   2.917  -0.282   7.212  0.3945 -0.4477 -1.5507
   91SAPS   C29 8863   3.023  -0.426   7.323 -0.5992 -0.4570 -0.2587
   91SAPS   H9R 8864   3.033  -0.358   7.409  0.3639 -0.8837 -0.0157
   91SAPS  C210 8865   3.094  -0.555   7.349  0.4492  0.8777  0.5679
   91SAPS  H10R 8866   3.025  -0.634   7.312  0.2361  1.0829  0.5239
   91SAPS  H10S 8867   3.108  -0.570   7.458  0.6167 -2.0389  0.2144
   91SAPS  C211 8868   3.227  -0.584   7.284  0.5463  0.7765  0.1558
   91SAPS  H11R 8869   3.225  -0.579   7.174  1.4026  0.2922  0.1169
   91SAPS  C212 8870   3.345  -0.598   7.340  0.9174  0.3796  0.3233
   91SAPS  H12R 8871   3.433  -0.587   7.275 -1.7343  2.1338 -3.3071
   91SAPS  C213 8872   3.375  -0.597   7.485 -0.1035 -0.0471 -0.4875
   91SAPS  H13R 8873   3.318  -0.524   7.547  0.2178  1.1126 -1.5211
   91SAPS  H13S 8874   3.482  -0.568   7.497 -0.2688  0.2187  0.5023
   91SAPS  C214 8875   3.362  -0.735   7.550 -0.4931  0.3136  0.0846
   91SAPS  H14R 8876   3.295  -0.805   7.498 -1.5386  1.2641  0.1114
   91SAPS  C215 8877   3.426  -0.771   7.664 -0.0334  0.1412  0.4054
   91SAPS  H15R 8878   3.395  -0.870   7.701 -3.3092 -0.1222 -2.4771
   91SAPS  C216 8879   3.524  -0.694   7.753  0.4230 -0.0731 -0.0508
   91SAPS  H16R 8880   3.579  -0.611   7.704  1.9078  0.0076  1.6527
   91SAPS  H16S 8881   3.604  -0.766   7.779  0.8024  0.2105 -0.4143
   91SAPS  C217 8882   3.471  -0.631   7.885  0.2509 -0.5745 -0.0619
   91SAPS  H17R 8883   3.375  -0.578   7.873  1.0869  1.8475  2.7277
   91SAPS  H17S 8884   3.543  -0.561   7.933  0.1755 -0.3140 -0.3314
   91SAPS  C218 8885   3.452  -0.730   7.998  0.1735 -0.0161 -0.9886
   91SAPS  H18R 8886   3.549  -0.781   8.011 -0.7262 -2.2720 -2.4632
   91SAPS  H18S 8887   3.372  -0.803   7.971 -1.1152  1.2431 -0.7193
   91SAPS  C219 8888   3.413  -0.652   8.125  0.8275  0.2716 -0.2301
   91SAPS  H19R 8889   3.339  -0.574   8.095  2.1210  0.9154 -1.9439
   91SAPS  H19S 8890   3.504  -0.600   8.162  1.1111 -0.3647 -0.0280
   91SAPS  C220 8891   3.344  -0.732   8.237 -0.2855  0.3796  0.5257
   91SAPS  H20R 8892   3.378  -0.687   8.333 -2.4380 -0.1317  1.5976
   91SAPS  H20S 8893   3.378  -0.837   8.239  1.2620  0.8643  2.8403
   91SAPS  H20T 8894   3.233  -0.729   8.237 -0.3305 -0.8326 -0.3725
   91SAPS   C33 8895   2.568  -0.228   6.957  0.3614 -0.6870 -1.4530
   91SAPS   H3X 8896   2.477  -0.290   6.949  0.0552 -0.2179 -1.6570
   91SAPS   H3Y 8897   2.551  -0.124   6.922 -0.1418 -1.1909 -2.7654
   91SAPS   C34 8898   2.616  -0.207   7.099 -0.1854 -0.1095 -0.0706
   91SAPS   H4X 8899   2.711  -0.148   7.097 -0.9839  1.2707  0.8749
   91SAPS   H4Y 8900   2.631  -0.306   7.146 -2.7753 -0.7803 -0.5248
   91SAPS   C35 8901   2.523  -0.141   7.197  0.3368 -0.0532 -0.0575
   91SAPS   H5X 8902   2.436  -0.209   7.202  1.1359 -1.1675 -0.8423
   91SAPS   H5Y 8903   2.482  -0.044   7.161 -2.0092 -0.3672  1.5361
   91SAPS   C36 8904   2.585  -0.102   7.335  0.4630 -0.0619  1.0052
   91SAPS   H6X 8905   2.656  -0.020   7.313 -0.1872  0.1890 -0.2494
   91SAPS   H6Y 8906   2.624  -0.199   7.374 -2.1573 -1.6366 -0.0443
   91SAPS   C37 8907   2.498  -0.052   7.443 -0.9893 -0.3600  0.1930
   91SAPS   H7X 8908   2.418  -0.126   7.461 -2.1904  0.9762  0.5347
   91SAPS   H7Y 8909   2.445   0.039   7.408 -0.1669  0.9448  2.1493
   91SAPS   C38 8910   2.568   0.002   7.569  0.4110  0.0837  0.4636
   91SAPS   H8X 8911   2.634   0.087   7.542  0.8343 -0.3490  0.1203
   91SAPS   H8Y 8912   2.629  -0.076   7.619  0.1804  0.0749  0.7364
   91SAPS   C39 8913   2.476   0.059   7.682 -0.0888 -0.6064 -0.7776
   91SAPS   H9X 8914   2.412  -0.016   7.734  0.7997  0.0070  1.2959
   91SAPS   H9Y 8915   2.409   0.134   7.634  0.8134  0.6567 -0.1173
   91SAPS  C310 8916   2.550   0.132   7.804 -0.3865  0.2073  1.1412
   91SAPS  H10X 8917   2.476   0.155   7.884  1.7317 -0.6291  3.4918
   91SAPS  H10Y 8918   2.595   0.225   7.762  2.7894 -0.8845  1.8642
   91SAPS  C311 8919   2.651   0.040   7.874 -0.1612 -0.5209 -1.0795
   91SAPS  H11X 8920   2.744   0.038   7.813  0.8325 -2.0600  0.4005
   91SAPS  H11Y 8921   2.606  -0.062   7.876 -0.6868 -0.3004 -1.5216
   91SAPS  C312 8922   2.683   0.093   8.011  0.5827 -0.5886 -0.3297
   91SAPS  H12X 8923   2.590   0.120   8.067 -2.2167 -1.1315 -4.2450
   91SAPS  H12Y 8924   2.732   0.191   7.993 -1.6859  0.3131 -2.2068
   91SAPS  C313 8925   2.792   0.010   8.079  0.5065  0.0829 -0.2855
   91SAPS  H13X 8926   2.830   0.063   8.169 -1.8705  1.0602  0.2188
   91SAPS  H13Y 8927   2.881  -0.011   8.016  0.7393 -0.1491  0.1181
   91SAPS  C314 8928   2.725  -0.117   8.137 -0.0111 -0.3955 -0.0011
   91SAPS  H14X 8929   2.689  -0.184   8.056 -3.6950 -0.9547  1.8696
   91SAPS  H14Y 8930   2.641  -0.081   8.200  1.5094 -0.8368  2.4107
   91SAPS  C315 8931   2.827  -0.189   8.223 -0.2419 -0.1889  0.4790
   91SAPS  H15X 8932   2.826  -0.136   8.321 -0.0604  2.8054 -1.0361
   91SAPS  H15Y 8933   2.930  -0.175   8.184  0.0704  1.8643  1.8488
   91SAPS  C316 8934   2.796  -0.343   8.222  0.5093 -0.3954 -0.0059
   91SAPS  H16X 8935   2.778  -0.369   8.116  2.3876  2.0447 -1.0392
   91SAPS  H16Y 8936   2.711  -0.369   8.289  1.8290 -0.7594  1.6152
   91SAPS  C317 8937   2.920  -0.421   8.275 -0.0351 -0.9554 -0.5091
   91SAPS  H17X 8938   2.921  -0.417   8.386  1.2226  1.5423 -0.5579
   91SAPS  H17Y 8939   3.013  -0.375   8.235  0.1328  1.5561  2.4200
   91SAPS  C318 8940   2.915  -0.572   8.231  0.2728 -0.2697 -0.1168
   91SAPS  H18X 8941   2.812  -0.609   8.249 -0.4631  2.3848  1.6711
   91SAPS  H18Y 8942   2.988  -0.631   8.290  0.3442 -0.0314  0.0344
   91SAPS  H18Z 8943   2.932  -0.578   8.121 -2.1123  1.1908 -0.6460
   92SAPS     N 8944   1.097   6.382   6.414  0.4054 -0.4458  0.3998
   92SAPS   HN1 8945   1.027   6.388   6.491  0.8073  0.8983  0.6868
   92SAPS   HN2 8946   1.163   6.303   6.434  0.9482 -0.1853 -0.3440
   92SAPS   HN3 8947   1.158   6.466   6.418  0.8112 -0.6338 -1.1973
   92SAPS   C12 8948   1.025   6.350   6.288  0.9632 -0.0121  0.8889
   92SAPS  H12A 8949   0.958   6.432   6.266 -0.2817 -1.5582 -1.5041
   92SAPS   C13 8950   1.097   6.297   6.162  0.0585  0.0352  0.6182
   92SAPS  O13A 8951   1.216   6.288   6.148 -1.0229  0.3474 -0.8084
   92SAPS  O13B 8952   1.018   6.289   6.064 -0.0567  0.4409 -0.1473
   92SAPS   C11 8953   0.921   6.240   6.330  0.2119  0.3112 -0.1524
   92SAPS  H11A 8954   0.982   6.156   6.370 -0.3755 -0.4141 -0.7509
   92SAPS  H11B 8955   0.875   6.196   6.239 -0.3581 -0.3936  0.4685
   92SAPS     P 8956   0.670   6.309   6.368  0.0248 -0.0134 -0.0211
   92SAPS   O13 8957   0.672   6.306   6.222 -0.9067  0.0533  0.6074
   92SAPS   O14 8958   0.584   6.211   6.446 -0.6018 -0.8147 -0.5187
   92SAPS   O12 8959   0.821   6.298   6.419  0.9887  0.0357 -0.6306
   92SAPS   O11 8960   0.624   6.448   6.420 -0.1759  0.2439 -0.1885
   92SAPS    C1 8961   0.703   6.568   6.422  0.0782 -0.0530 -0.2440
   92SAPS    HA 8962   0.781   6.561   6.343  1.9668  1.1095  1.4510
   92SAPS    HB 8963   0.634   6.654   6.404  0.4237  0.6204  1.4836
   92SAPS    C2 8964   0.769   6.587   6.559  0.0907 -0.4392  0.6904
   92SAPS    HS 8965   0.811   6.494   6.602  0.4563 -0.3856  0.4556
   92SAPS   O21 8966   0.668   6.645   6.642 -0.4036 -0.0407 -0.1041
   92SAPS   C21 8967   0.607   6.561   6.728  0.0433  0.0109 -0.4157
   92SAPS   O22 8968   0.627   6.442   6.733  0.3958 -0.0128 -0.5013
   92SAPS   C22 8969   0.529   6.639   6.834 -0.0691 -0.3021 -0.4322
   92SAPS   H2R 8970   0.585   6.729   6.868  0.1237 -1.1911  1.7732
   92SAPS   H2S 8971   0.433   6.678   6.794 -0.6000  0.6750  1.6538
   92SAPS    C3 8972   0.878   6.693   6.552 -0.5209 -0.6779 -0.2953
   92SAPS    HX 8973   0.833   6.782   6.504 -2.3778 -0.7987  1.0966
   92SAPS    HY 8974   0.956   6.651   6.486 -0.8011 -0.0215 -1.0628
   92SAPS   O31 8975   0.935   6.722   6.681 -0.2785 -0.2456 -0.2707
   92SAPS   C31 8976   0.994   6.843   6.683 -0.1040  0.0809  0.4948
   92SAPS   O32 8977   0.990   6.923   6.591 -0.1310 -0.3507 -0.1355
   92SAPS   C32 8978   1.042   6.863   6.821 -0.7026 -0.2031  0.1432
   92SAPS   H2X 8979   1.069   6.766   6.868 -0.2972 -0.4224 -0.5324
   92SAPS   H2Y 8980   0.959   6.895   6.888 -1.1277 -2.4986  0.7924
   92SAPS   C23 8981   0.488   6.544   6.950  0.5987  0.4314  0.1872
   92SAPS   H3R 8982   0.537   6.444   6.955 -0.0297  0.1810  2.8256
   92SAPS   H3S 8983   0.380   6.518   6.948  0.8624 -0.6834 -0.9455
   92SAPS   C24 8984   0.506   6.616   7.090 -0.3348 -0.1952 -0.6336
   92SAPS   H4R 8985   0.616   6.615   7.108 -0.2580 -1.8938 -1.0813
   92SAPS   H4S 8986   0.454   6.554   7.166 -0.6790  0.7172 -0.1086
   92SAPS   C25 8987   0.451   6.756   7.111  0.1404 -0.2153  0.7714
   92SAPS   H5R 8988   0.505   6.837   7.060 -0.8824 -0.6556 -1.0972
   92SAPS   C26 8989   0.337   6.798   7.167 -0.1638  0.0823  0.1379
   92SAPS   H6R 8990   0.315   6.906   7.169  1.0174  0.3317  2.1052
   92SAPS   C27 8991   0.234   6.706   7.230  0.4117  0.3189 -0.6159
   92SAPS   H7R 8992   0.279   6.613   7.271 -0.0705  0.4942  0.3537
   92SAPS   H7S 8993   0.159   6.677   7.153  0.9042  0.8323 -1.3005
   92SAPS   C28 8994   0.174   6.766   7.361  0.0458 -0.0546 -0.1950
   92SAPS   H8R 8995   0.084   6.824   7.336 -0.6417 -0.9085  0.2564
   92SAPS   C29 8996   0.219   6.766   7.487 -0.3354 -0.6190  0.2508
   92SAPS   H9R 8997   0.164   6.827   7.561  0.4753 -0.3353  0.6240
   92SAPS  C210 8998   0.347   6.709   7.527  0.3248  0.0993  0.2537
   92SAPS  H10R 8999   0.404   6.789   7.579  3.1196  0.3514 -2.8552
   92SAPS  H10S 9000   0.414   6.687   7.442  1.1696 -1.1156  1.1923
   92SAPS  C211 9001   0.332   6.588   7.619  0.4808 -0.0145 -0.4896
   92SAPS  H11R 9002   0.309   6.494   7.566  1.2259 -0.6097  0.2236
   92SAPS  C212 9003   0.308   6.588   7.752 -0.4612 -0.4980  0.4802
   92SAPS  H12R 9004   0.294   6.493   7.805  0.2390 -0.6632  0.3737
   92SAPS  C213 9005   0.320   6.710   7.837 -0.0079  0.0918  0.4025
   92SAPS  H13R 9006   0.351   6.803   7.785  1.5033 -1.1313 -0.9815
   92SAPS  H13S 9007   0.405   6.688   7.905  1.0495  1.5833 -0.3802
   92SAPS  C214 9008   0.197   6.739   7.923  0.9203 -1.2305 -0.1675
   92SAPS  H14R 9009   0.136   6.809   7.865  1.9234 -0.9932 -0.9808
   92SAPS  C215 9010   0.158   6.712   8.048 -0.0206  0.6204 -0.1195
   92SAPS  H15R 9011   0.057   6.734   8.085  0.3120 -2.9449  3.6815
   92SAPS  C216 9012   0.238   6.618   8.143  0.3204  0.7119  0.2726
   92SAPS  H16R 9013   0.324   6.563   8.099  1.1702  0.6857  1.8784
   92SAPS  H16S 9014   0.183   6.529   8.180 -0.6582 -0.4111 -3.4589
   92SAPS  C217 9015   0.300   6.694   8.265 -0.4297  0.4435  0.6768
   92SAPS  H17R 9016   0.354   6.621   8.327 -0.2221  0.1625  0.1703
   92SAPS  H17S 9017   0.227   6.750   8.328 -2.0232 -0.0835 -0.6154
   92SAPS  C218 9018   0.406   6.794   8.226 -0.0390 -0.2369  0.3001
   92SAPS  H18R 9019   0.354   6.891   8.207 -0.4588 -0.1862  1.6282
   92SAPS  H18S 9020   0.458   6.764   8.133  0.8421  0.3417  0.5891
   92SAPS  C219 9021   0.516   6.811   8.325 -0.4125  0.2604  0.2478
   92SAPS  H19R 9022   0.591   6.869   8.268  2.1489 -1.0976  2.0168
   92SAPS  H19S 9023   0.569   6.716   8.348  1.2182  1.0393 -0.1204
   92SAPS  C220 9024   0.471   6.894   8.452 -0.8422  1.1738  0.8867
   92SAPS  H20R 9025   0.379   6.849   8.495  0.9673 -1.9755  1.7849
   92SAPS  H20S 9026   0.428   6.994   8.431 -1.1098  1.6577  3.4206
   92SAPS  H20T 9027   0.553   6.887   8.526  0.3994 -3.7190 -0.5481
   92SAPS   C33 9028   1.178   6.944   6.825 -0.2423  0.5049 -0.2456
   92SAPS   H3X 9029   1.179   7.036   6.762  1.1766 -0.2084 -1.3323
   92SAPS   H3Y 9030   1.269   6.883   6.810  1.6096  3.2251 -0.8567
   92SAPS   C34 9031   1.194   7.004   6.968  0.4286 -0.0296 -0.8602
   92SAPS   H4X 9032   1.111   7.077   6.981  0.3898 -0.5195  2.1963
   92SAPS   H4Y 9033   1.277   7.075   6.988 -1.0624  1.6883 -0.3891
   92SAPS   C35 9034   1.181   6.909   7.095  0.5200  0.1028 -0.3764
   92SAPS   H5X 9035   1.245   6.819   7.081  1.7306  0.5298  1.9804
   92SAPS   H5Y 9036   1.078   6.882   7.126  1.4728 -2.1987  0.9820
   92SAPS   C36 9037   1.216   6.993   7.223  0.2962  0.4607 -0.5970
   92SAPS   H6X 9038   1.158   7.087   7.214 -2.3117 -0.7518  2.0677
   92SAPS   H6Y 9039   1.323   7.022   7.222  0.4334  0.0102  0.3132
   92SAPS   C37 9040   1.191   6.922   7.366 -0.3482  0.1126 -0.1505
   92SAPS   H7X 9041   1.280   6.861   7.391 -2.4478 -2.9624  0.5079
   92SAPS   H7Y 9042   1.104   6.854   7.351 -0.1596 -0.6007  1.7230
   92SAPS   C38 9043   1.165   7.017   7.484 -0.6391  0.2280 -0.7999
   92SAPS   H8X 9044   1.067   7.065   7.462 -0.8468 -0.3054 -1.0603
   92SAPS   H8Y 9045   1.244   7.094   7.483  0.2586 -0.6708 -0.7270
   92SAPS   C39 9046   1.158   6.959   7.628 -0.0599 -0.3767 -0.4302
   92SAPS   H9X 9047   1.255   6.926   7.671  0.5964  0.1805 -1.4379
   92SAPS   H9Y 9048   1.095   6.868   7.634  0.9113 -0.9722  2.2608
   92SAPS  C310 9049   1.098   7.059   7.723  0.3654  0.2335 -0.7983
   92SAPS  H10X 9050   1.005   7.105   7.683  0.7938  1.2038 -0.7089
   92SAPS  H10Y 9051   1.172   7.140   7.739 -0.7765  0.7733  2.5617
   92SAPS  C311 9052   1.066   6.996   7.865  0.2187 -0.1335  0.0002
   92SAPS  H11X 9053   1.110   6.894   7.875 -1.6312 -1.1489 -1.4757
   92SAPS  H11Y 9054   0.957   6.979   7.852  0.1395  0.1489  0.2863
   92SAPS  C312 9055   1.089   7.080   7.988  0.8535 -0.3140 -0.2392
   92SAPS  H12X 9056   1.065   7.189   7.985 -2.6539 -0.9226  0.8401
   92SAPS  H12Y 9057   1.199   7.084   8.006  0.7710  2.6402  0.1305
   92SAPS  C313 9058   1.009   7.018   8.108 -0.8191 -0.1371  0.5372
   92SAPS  H13X 9059   1.031   6.909   8.117  0.0833  0.1306  1.9756
   92SAPS  H13Y 9060   0.901   7.032   8.084 -0.4308  0.6208 -0.8363
   92SAPS  C314 9061   1.040   7.082   8.242  0.0798  0.2134  0.7952
   92SAPS  H14X 9062   1.019   7.191   8.253 -1.1171  0.0535  0.3044
   92SAPS  H14Y 9063   1.149   7.074   8.260  0.3638  0.7692 -0.6102
   92SAPS  C315 9064   0.949   7.011   8.346 -0.0038  0.0157  0.0709
   92SAPS  H15X 9065   0.984   6.910   8.375  0.7160  0.4301  0.6728
   92SAPS  H15Y 9066   0.846   6.988   8.310  0.4991 -2.8485  0.2310
   92SAPS  C316 9067   0.942   7.105   8.465 -0.5005 -0.1127  0.6879
   92SAPS  H16X 9068   0.916   7.211   8.444  1.0045  0.3480  1.0081
   92SAPS  H16Y 9069   1.042   7.108   8.515  0.2844 -0.8866 -0.7616
   92SAPS  C317 9070   0.838   7.055   8.569 -0.1156 -0.4058 -0.4408
   92SAPS  H17X 9071   0.818   6.946   8.568  0.3328 -0.5355 -3.1580
   92SAPS  H17Y 9072   0.742   7.096   8.533 -0.1761 -0.7515 -0.6770
   92SAPS  C318 9073   0.859   7.085   8.716  0.3047  0.0909 -0.1037
   92SAPS  H18X 9074   0.897   7.187   8.739 -0.6609  0.2079  1.1114
   92SAPS  H18Y 9075   0.938   7.015   8.751 -1.4013 -3.0752 -2.0714
   92SAPS  H18Z 9076   0.777   7.060   8.788  0.4380  0.2725  0.1152
   93SAPS     N 9077   2.000   6.231   5.962  0.8278  0.0125  0.7115
   93SAPS   HN1 9078   1.932   6.201   6.034 -0.2244 -0.4462 -0.4338
   93SAPS   HN2 9079   2.024   6.332   5.953  1.6607 -0.2536 -0.2690
   93SAPS   HN3 9080   1.953   6.203   5.873  0.2177 -0.2580  1.1163
   93SAPS   C12 9081   2.121   6.137   5.965 -0.4112 -0.2174 -0.8237
   93SAPS  H12A 9082   2.147   6.108   5.865  1.0635  1.3244 -0.9341
   93SAPS   C13 9083   2.253   6.201   6.030  0.7297  0.1311  0.9714
   93SAPS  O13A 9084   2.241   6.299   6.100  0.0212  0.1999 -0.1267
   93SAPS  O13B 9085   2.354   6.132   6.037  0.0702 -0.3129  0.0789
   93SAPS   C11 9086   2.085   6.001   6.037  0.6393  0.0818  0.6048
   93SAPS  H11A 9087   2.171   5.932   6.028 -0.8208 -1.8919  0.9913
   93SAPS  H11B 9088   2.002   5.961   5.975  0.2887  0.9413  0.5133
   93SAPS     P 9089   2.062   5.901   6.275  0.2581 -0.0725 -0.1851
   93SAPS   O13 9090   2.112   5.777   6.208 -0.5264  0.0477 -0.2398
   93SAPS   O14 9091   2.138   5.941   6.397 -0.4004  0.0687  0.3204
   93SAPS   O12 9092   2.050   6.019   6.174 -0.4110  0.4205 -0.1001
   93SAPS   O11 9093   1.911   5.881   6.326 -0.1379  0.4820  0.2430
   93SAPS    C1 9094   1.829   5.994   6.364  0.1698 -0.1460 -0.5412
   93SAPS    HA 9095   1.890   6.076   6.408 -1.3885 -0.0272  1.5622
   93SAPS    HB 9096   1.772   6.023   6.274 -1.0281 -2.9211 -0.8064
   93SAPS    C2 9097   1.730   5.955   6.482 -0.4180  0.2247  0.1179
   93SAPS    HS 9098   1.689   6.050   6.523  0.3784  1.0289 -0.9037
   93SAPS   O21 9099   1.801   5.875   6.586 -0.2902 -0.2689  0.2478
   93SAPS   C21 9100   1.868   5.951   6.671 -0.3675  0.0599 -0.3750
   93SAPS   O22 9101   1.859   6.073   6.681 -0.4654  0.0071  0.3479
   93SAPS   C22 9102   1.967   5.879   6.761 -1.5601 -0.0789 -0.4138
   93SAPS   H2R 9103   1.917   5.789   6.803 -0.9605 -1.2633 -2.1435
   93SAPS   H2S 9104   2.059   5.852   6.705 -1.2044 -2.2009  1.0577
   93SAPS    C3 9105   1.610   5.865   6.448  0.9862  0.6039 -0.3764
   93SAPS    HX 9106   1.641   5.772   6.395  0.2621 -0.3939  0.8851
   93SAPS    HY 9107   1.536   5.924   6.390  0.0206  0.4691  0.6832
   93SAPS   O31 9108   1.537   5.838   6.569  0.3609  0.2373  0.4018
   93SAPS   C31 9109   1.563   5.725   6.629 -0.6187  0.0910 -0.1538
   93SAPS   O32 9110   1.637   5.638   6.581  0.1929 -0.1577 -0.2174
   93SAPS   C32 9111   1.496   5.713   6.770 -0.1262  0.0144  0.5280
   93SAPS   H2X 9112   1.463   5.607   6.772 -0.7198  0.1944  0.5561
   93SAPS   H2Y 9113   1.402   5.772   6.771  0.2284  0.6117 -0.1672
   93SAPS   C23 9114   2.013   5.960   6.889  0.1398  0.6154 -0.8244
   93SAPS   H3R 9115   2.057   6.059   6.863 -1.4958  1.2634 -1.2634
   93SAPS   H3S 9116   2.097   5.907   6.939 -2.0555 -1.2442  1.0893
   93SAPS   C24 9117   1.901   5.993   6.993 -0.8453  0.0243  0.0521
   93SAPS   H4R 9118   1.842   5.903   7.017  1.0064 -1.1389  0.4343
   93SAPS   H4S 9119   1.832   6.056   6.933  0.1350  1.1478  0.0686
   93SAPS   C25 9120   1.935   6.080   7.108 -0.1422  0.3486 -0.0201
   93SAPS   H5R 9121   1.939   6.188   7.086  0.7920  0.0780 -1.3150
   93SAPS   C26 9122   1.957   6.039   7.234  0.8427 -0.1026  0.0571
   93SAPS   H6R 9123   1.972   6.116   7.311 -0.0156  2.3249 -2.0811
   93SAPS   C27 9124   1.943   5.901   7.290 -0.6558  0.1840  0.5073
   93SAPS   H7R 9125   1.880   5.834   7.228  0.5535 -2.4136  1.8797
   93SAPS   H7S 9126   1.893   5.910   7.389 -1.2272 -3.0761  0.6363
   93SAPS   C28 9127   2.080   5.835   7.308 -0.9313 -0.0456 -0.7508
   93SAPS   H8R 9128   2.136   5.794   7.223 -1.1382  1.0069 -1.4148
   93SAPS   C29 9129   2.143   5.812   7.424 -0.9757  0.4639  0.9662
   93SAPS   H9R 9130   2.243   5.767   7.423 -1.6242 -1.0068  1.0476
   93SAPS  C210 9131   2.097   5.850   7.564 -0.0986  0.3621 -0.1897
   93SAPS  H10R 9132   2.039   5.945   7.563  1.2865  1.2504  0.0783
   93SAPS  H10S 9133   2.188   5.888   7.616  2.7800 -0.1131 -4.3611
   93SAPS  C211 9134   2.017   5.746   7.635 -0.2459 -0.9273 -0.1027
   93SAPS  H11R 9135   1.913   5.746   7.598  0.0011  0.4369 -0.8575
   93SAPS  C212 9136   2.057   5.656   7.721  0.4488  0.1674 -0.8574
   93SAPS  H12R 9137   1.986   5.580   7.755 -1.5647  2.6626  0.8073
   93SAPS  C213 9138   2.200   5.651   7.781  0.2729 -0.0874  0.7672
   93SAPS  H13R 9139   2.218   5.751   7.826 -0.1772  0.5893 -0.5063
   93SAPS  H13S 9140   2.274   5.647   7.698 -0.0424  2.9691  0.2418
   93SAPS  C214 9141   2.226   5.536   7.878  0.0450 -0.1645  0.5390
   93SAPS  H14R 9142   2.252   5.444   7.823 -0.4731 -0.2294  0.4040
   93SAPS  C215 9143   2.225   5.530   8.011  0.4409 -0.0191 -0.0158
   93SAPS  H15R 9144   2.226   5.427   8.051  1.0624 -0.3402 -0.8108
   93SAPS  C216 9145   2.194   5.638   8.112  0.0893  0.7404  0.4025
   93SAPS  H16R 9146   2.089   5.670   8.123  0.4307  1.2482  2.6590
   93SAPS  H16S 9147   2.251   5.732   8.092 -0.7998  1.9452  3.0687
   93SAPS  C217 9148   2.243   5.597   8.252 -0.2756 -0.5608  0.5331
   93SAPS  H17R 9149   2.248   5.693   8.309  1.8936 -1.3642  1.8192
   93SAPS  H17S 9150   2.349   5.563   8.250 -0.0887  0.0225 -0.0763
   93SAPS  C218 9151   2.152   5.502   8.328  0.0710  0.5506 -0.5912
   93SAPS  H18R 9152   2.169   5.400   8.287  0.9353 -0.0630  1.1539
   93SAPS  H18S 9153   2.048   5.541   8.321 -0.3487 -0.2916  0.5232
   93SAPS  C219 9154   2.182   5.498   8.478 -0.0965  0.0463 -0.6004
   93SAPS  H19R 9155   2.180   5.601   8.518 -1.8813  0.0409 -0.5723
   93SAPS  H19S 9156   2.284   5.463   8.505 -0.1684 -0.7658 -1.3596
   93SAPS  C220 9157   2.071   5.422   8.558 -0.5784 -0.0379  0.7285
   93SAPS  H20R 9158   2.086   5.442   8.666  1.4381 -0.6786  0.5934
   93SAPS  H20S 9159   2.086   5.314   8.538 -1.7523 -0.4299  1.8351
   93SAPS  H20T 9160   1.966   5.451   8.535  0.0093  1.9737  0.3973
   93SAPS   C33 9161   1.582   5.760   6.884 -0.4501  0.3325 -0.1031
   93SAPS   H3X 9162   1.605   5.869   6.877 -1.4100  0.5383 -0.2205
   93SAPS   H3Y 9163   1.674   5.698   6.887 -0.4460  0.3426 -0.0253
   93SAPS   C34 9164   1.504   5.745   7.015 -0.1122 -0.0281 -0.3398
   93SAPS   H4X 9165   1.477   5.638   7.005 -0.7863 -0.0303  1.2203
   93SAPS   H4Y 9166   1.412   5.806   7.026  0.8019  1.2495  0.6018
   93SAPS   C35 9167   1.583   5.770   7.138  0.2909 -0.0641  0.1937
   93SAPS   H5X 9168   1.630   5.870   7.137  0.6279 -0.1974  1.3198
   93SAPS   H5Y 9169   1.668   5.699   7.137  1.5982  1.4338 -2.0409
   93SAPS   C36 9170   1.511   5.735   7.265  0.3540 -0.1802 -0.1822
   93SAPS   H6X 9171   1.486   5.628   7.257 -2.0124  0.3933 -1.3123
   93SAPS   H6Y 9172   1.414   5.788   7.269  0.2809 -0.3631  0.4081
   93SAPS   C37 9173   1.595   5.749   7.392 -0.1219  0.6718  0.4220
   93SAPS   H7X 9174   1.635   5.852   7.387  0.4745  0.3992 -0.8851
   93SAPS   H7Y 9175   1.676   5.673   7.395 -1.9681 -1.3718  1.6120
   93SAPS   C38 9176   1.506   5.738   7.521 -0.0591  0.2062  0.1208
   93SAPS   H8X 9177   1.465   5.635   7.516 -1.8351  0.8175  0.9834
   93SAPS   H8Y 9178   1.417   5.805   7.521 -0.1952  0.0485 -0.9267
   93SAPS   C39 9179   1.583   5.746   7.646 -0.1908 -0.5253  0.0875
   93SAPS   H9X 9180   1.583   5.854   7.672 -0.1029 -0.3798 -0.5062
   93SAPS   H9Y 9181   1.688   5.713   7.632  0.0797 -0.1922  1.1672
   93SAPS  C310 9182   1.516   5.654   7.748 -0.5486  0.0075  0.2315
   93SAPS  H10X 9183   1.541   5.548   7.729 -2.8342 -0.4598 -0.4448
   93SAPS  H10Y 9184   1.405   5.656   7.752 -0.5405  1.7477  0.5439
   93SAPS  C311 9185   1.569   5.681   7.889  0.8097  0.0578  0.0205
   93SAPS  H11X 9186   1.510   5.616   7.958  1.1012  1.0168  1.2045
   93SAPS  H11Y 9187   1.541   5.785   7.917  1.3846 -0.2134  1.6998
   93SAPS  C312 9188   1.717   5.643   7.911 -0.2931 -0.0419 -0.0827
   93SAPS  H12X 9189   1.783   5.721   7.867  1.3233 -1.7092 -0.7381
   93SAPS  H12Y 9190   1.737   5.547   7.859  3.5284  0.0737  0.8290
   93SAPS  C313 9191   1.755   5.614   8.056 -0.4607  0.1490  0.3878
   93SAPS  H13X 9192   1.862   5.585   8.060 -0.7263 -0.6614  2.1925
   93SAPS  H13Y 9193   1.693   5.525   8.077  1.8350 -1.9907 -1.3277
   93SAPS  C314 9194   1.739   5.731   8.158 -0.2096  0.4192 -0.1006
   93SAPS  H14X 9195   1.630   5.754   8.158 -0.3606 -0.2207  0.7684
   93SAPS  H14Y 9196   1.790   5.821   8.118 -3.7811  1.8177 -1.9242
   93SAPS  C315 9197   1.786   5.699   8.298 -0.1148 -0.0191 -1.2594
   93SAPS  H15X 9198   1.894   5.678   8.305  0.9302  4.3030 -1.2032
   93SAPS  H15Y 9199   1.728   5.612   8.335  2.3856 -1.9621 -1.6558
   93SAPS  C316 9200   1.760   5.812   8.406 -0.5191 -0.1676 -0.0671
   93SAPS  H16X 9201   1.766   5.766   8.506 -0.0433 -1.1447 -0.5283
   93SAPS  H16Y 9202   1.655   5.846   8.405 -0.3108  0.6665  1.9465
   93SAPS  C317 9203   1.867   5.920   8.402 -1.1428 -0.3734  0.2490
   93SAPS  H17X 9204   1.873   5.951   8.296 -1.5847  1.4740  0.7096
   93SAPS  H17Y 9205   1.965   5.873   8.424  0.2764  2.4906  0.6567
   93SAPS  C318 9206   1.850   6.039   8.492  0.2082 -0.5253  0.0346
   93SAPS  H18X 9207   1.844   6.013   8.600 -1.8862  0.9590  0.3301
   93SAPS  H18Y 9208   1.757   6.089   8.458  0.7028  0.8722  0.6601
   93SAPS  H18Z 9209   1.927   6.115   8.466 -0.1013 -0.3266 -0.3041
   94SAPS     N 9210   6.468   0.387   5.687  0.2095 -0.6506  0.4640
   94SAPS   HN1 9211   6.420   0.353   5.601 -0.1095 -1.4601  0.9458
   94SAPS   HN2 9212   6.395   0.402   5.759 -0.2836  1.2629 -0.3683
   94SAPS   HN3 9213   6.498   0.485   5.671 -1.6991  0.5166  3.3015
   94SAPS   C12 9214   6.590   0.300   5.717  0.4146 -0.1574 -0.3443
   94SAPS  H12A 9215   6.555   0.205   5.754  0.1152  0.5207  1.1824
   94SAPS   C13 9216   6.678   0.281   5.588  0.2621 -0.6907  0.4540
   94SAPS  O13A 9217   6.645   0.346   5.485 -0.0390  0.0836 -0.0708
   94SAPS  O13B 9218   6.783   0.218   5.585 -0.2793 -0.8631 -0.2834
   94SAPS   C11 9219   6.687   0.363   5.834 -0.3646 -0.0368  0.2345
   94SAPS  H11A 9220   6.730   0.461   5.803  1.6097 -0.5332  1.2014
   94SAPS  H11B 9221   6.771   0.290   5.842 -1.5521 -1.3725  0.9925
   94SAPS     P 9222   6.603   0.505   6.045  0.4175  0.0734  0.2561
   94SAPS   O13 9223   6.587   0.611   5.942 -0.2843 -0.3816 -1.0467
   94SAPS   O14 9224   6.495   0.485   6.146  0.0638  0.4163 -0.0075
   94SAPS   O12 9225   6.612   0.370   5.956 -0.9147  0.1581  0.0563
   94SAPS   O11 9226   6.746   0.511   6.106 -0.2363 -0.6866  0.2655
   94SAPS    C1 9227   6.802   0.408   6.184  0.1020  0.1340  0.4512
   94SAPS    HA 9228   6.740   0.316   6.191 -2.2084  1.6073  0.5931
   94SAPS    HB 9229   6.902   0.381   6.147 -0.0947  1.2283 -0.9430
   94SAPS    C2 9230   6.832   0.450   6.336  0.7386 -0.6784  0.3327
   94SAPS    HS 9231   6.867   0.365   6.398  2.2250  0.2374  0.8109
   94SAPS   O21 9232   6.718   0.513   6.402  0.5316  0.5803 -0.1744
   94SAPS   C21 9233   6.633   0.418   6.463 -0.4521 -0.7751 -0.1276
   94SAPS   O22 9234   6.653   0.298   6.446 -0.3136 -0.2467 -0.2639
   94SAPS   C22 9235   6.524   0.482   6.547 -0.7397  1.4081  0.3244
   94SAPS   H2R 9236   6.545   0.591   6.547 -1.6528  1.6213 -1.7034
   94SAPS   H2S 9237   6.429   0.454   6.498  1.5928 -2.3996 -2.6096
   94SAPS    C3 9238   6.937   0.566   6.331  0.1082 -0.2421 -0.1131
   94SAPS    HX 9239   6.915   0.631   6.244  1.8190 -0.8074 -1.0165
   94SAPS    HY 9240   7.032   0.519   6.298 -1.0088 -2.6259 -0.1933
   94SAPS   O31 9241   6.948   0.646   6.443  0.3314 -0.0531 -0.8267
   94SAPS   C31 9242   7.004   0.601   6.551  0.0360  0.2930  0.4482
   94SAPS   O32 9243   7.064   0.493   6.562  0.4614  0.5255 -0.3593
   94SAPS   C32 9244   6.991   0.702   6.663  0.0533 -0.4989 -0.0881
   94SAPS   H2X 9245   6.899   0.760   6.640  0.1624 -0.1585  0.3258
   94SAPS   H2Y 9246   7.077   0.771   6.667 -2.5792  3.0679  0.6086
   94SAPS   C23 9247   6.515   0.425   6.693  1.0511  0.8053  0.9428
   94SAPS   H3R 9248   6.454   0.501   6.747 -2.4879 -0.8001 -0.4670
   94SAPS   H3S 9249   6.617   0.405   6.731  1.4093 -3.4749 -1.5511
   94SAPS   C24 9250   6.435   0.295   6.700  0.1645 -0.0232  0.3818
   94SAPS   H4R 9251   6.455   0.254   6.802 -1.7210 -0.4213  0.6235
   94SAPS   H4S 9252   6.485   0.218   6.637  0.7439  1.0123 -0.4479
   94SAPS   C25 9253   6.286   0.299   6.672  0.2573 -0.5054 -0.0018
   94SAPS   H5R 9254   6.257   0.290   6.566  2.7208 -0.3656 -0.7604
   94SAPS   C26 9255   6.194   0.341   6.757  0.3446 -0.3326  0.3853
   94SAPS   H6R 9256   6.089   0.346   6.723  0.5907 -0.7541 -0.4598
   94SAPS   C27 9257   6.220   0.382   6.900 -0.3048 -0.1500  0.0951
   94SAPS   H7R 9258   6.313   0.441   6.911 -0.2562 -0.2758  0.3671
   94SAPS   H7S 9259   6.219   0.288   6.959 -2.3337 -2.9727 -3.8901
   94SAPS   C28 9260   6.105   0.472   6.944 -0.1255 -0.8442  0.1150
   94SAPS   H8R 9261   6.064   0.536   6.865  1.7095  0.9516  0.5341
   94SAPS   C29 9262   6.061   0.485   7.067  0.0604  0.3150 -0.1355
   94SAPS   H9R 9263   5.987   0.564   7.089 -0.6183 -1.1327  3.3967
   94SAPS  C210 9264   6.122   0.417   7.186 -0.1222  0.3765 -0.3079
   94SAPS  H10R 9265   6.202   0.342   7.173  0.5683  0.9753  0.3936
   94SAPS  H10S 9266   6.044   0.369   7.248  0.8155 -0.8764 -0.0743
   94SAPS  C211 9267   6.188   0.527   7.271  0.2974  0.4457  0.2448
   94SAPS  H11R 9268   6.191   0.627   7.226  0.8701  1.3309  2.1536
   94SAPS  C212 9269   6.234   0.521   7.400 -0.5184 -0.0663 -0.1868
   94SAPS  H12R 9270   6.274   0.609   7.452 -2.1999 -0.3193  1.6665
   94SAPS  C213 9271   6.239   0.397   7.479  0.0865  0.9077 -0.6649
   94SAPS  H13R 9272   6.262   0.318   7.404  1.4355  1.3572 -0.7473
   94SAPS  H13S 9273   6.138   0.379   7.523  0.1642 -1.0526 -1.1656
   94SAPS  C214 9274   6.339   0.376   7.589 -0.3085 -0.0204 -0.2410
   94SAPS  H14R 9275   6.430   0.344   7.536  1.0248  3.0275  0.0337
   94SAPS  C215 9276   6.340   0.404   7.720 -0.4069  0.7651  0.2527
   94SAPS  H15R 9277   6.425   0.372   7.782  0.2095  0.8208 -0.5533
   94SAPS  C216 9278   6.234   0.479   7.796  1.2581  0.5574  0.2363
   94SAPS  H16R 9279   6.147   0.417   7.824  1.5509  0.0155 -0.0401
   94SAPS  H16S 9280   6.194   0.557   7.728  0.4050 -0.2127 -0.1522
   94SAPS  C217 9281   6.291   0.529   7.926 -0.2973  0.0894 -0.8780
   94SAPS  H17R 9282   6.363   0.455   7.967  1.3609  0.5138 -2.8248
   94SAPS  H17S 9283   6.211   0.559   7.997  0.4336  0.0546 -0.0141
   94SAPS  C218 9284   6.377   0.658   7.903  0.3329 -0.1240 -0.0146
   94SAPS  H18R 9285   6.308   0.736   7.864  1.1327 -0.1312 -1.5287
   94SAPS  H18S 9286   6.448   0.626   7.824  0.8441  1.6159 -0.2832
   94SAPS  C219 9287   6.447   0.703   8.018 -0.5020  0.6651 -0.2806
   94SAPS  H19R 9288   6.551   0.730   7.987 -0.5066  1.2754  0.2243
   94SAPS  H19S 9289   6.452   0.614   8.084 -1.4963 -0.2415 -1.3835
   94SAPS  C220 9290   6.390   0.822   8.099 -0.4729  0.0018 -0.2227
   94SAPS  H20R 9291   6.433   0.841   8.199 -0.1293  0.3360 -0.4329
   94SAPS  H20S 9292   6.286   0.806   8.135  0.5381 -0.7350  2.6094
   94SAPS  H20T 9293   6.403   0.921   8.050  1.8831  1.0990  2.3839
   94SAPS   C33 9294   6.944   0.653   6.791  0.0867  0.1242 -0.3960
   94SAPS   H3X 9295   6.847   0.602   6.777  0.1301 -0.8065  2.1032
   94SAPS   H3Y 9296   6.918   0.746   6.848 -0.8448  1.6016 -3.0731
   94SAPS   C34 9297   7.050   0.565   6.868 -0.3302  0.7408  0.8761
   94SAPS   H4X 9298   7.144   0.623   6.880  0.4198 -0.2871  0.1614
   94SAPS   H4Y 9299   7.077   0.477   6.806  1.0581  1.6844  0.0702
   94SAPS   C35 9300   6.993   0.540   7.009  0.1072 -0.4798  0.3734
   94SAPS   H5X 9301   6.890   0.499   7.009 -0.7975  1.6357 -0.4321
   94SAPS   H5Y 9302   6.985   0.639   7.058  2.4971 -0.6259  1.1786
   94SAPS   C36 9303   7.087   0.449   7.088  0.8526 -0.6980 -0.0023
   94SAPS   H6X 9304   7.191   0.486   7.086  0.5918  0.0188 -0.7605
   94SAPS   H6Y 9305   7.074   0.345   7.049 -1.0549 -0.3988 -0.2506
   94SAPS   C37 9306   7.047   0.439   7.235 -0.3970 -0.4729  0.7216
   94SAPS   H7X 9307   6.954   0.379   7.235 -1.0725  0.4663 -1.6453
   94SAPS   H7Y 9308   7.032   0.542   7.271  1.0210  0.1234 -0.3038
   94SAPS   C38 9309   7.164   0.369   7.315 -0.2146  0.0488 -0.1165
   94SAPS   H8X 9310   7.259   0.425   7.311  2.2236 -3.7289 -0.2495
   94SAPS   H8Y 9311   7.178   0.263   7.284 -1.3209 -0.3660  0.7244
   94SAPS   C39 9312   7.124   0.359   7.469  0.3270  0.4089  0.1235
   94SAPS   H9X 9313   7.031   0.299   7.472 -0.6180  1.8410  2.4604
   94SAPS   H9Y 9314   7.100   0.465   7.493 -0.5751 -0.1073  1.6169
   94SAPS  C310 9315   7.251   0.316   7.550  0.5704 -0.6341 -0.1609
   94SAPS  H10X 9316   7.325   0.395   7.525 -0.9440  0.8365 -0.1384
   94SAPS  H10Y 9317   7.294   0.221   7.511  0.5842 -0.2497 -1.1029
   94SAPS  C311 9318   7.240   0.317   7.698 -0.3441 -0.0827 -0.1473
   94SAPS  H11X 9319   7.143   0.266   7.719 -0.6346  1.4749  2.8588
   94SAPS  H11Y 9320   7.223   0.417   7.744 -0.9390 -0.0489 -0.4229
   94SAPS  C312 9321   7.341   0.231   7.768  0.0637  0.5953  0.0384
   94SAPS  H12X 9322   7.441   0.273   7.746 -0.2864  1.2651 -0.3139
   94SAPS  H12Y 9323   7.341   0.133   7.716  0.9976  0.5241  0.1615
   94SAPS  C313 9324   7.330   0.230   7.921  0.4566 -0.0773 -0.2905
   94SAPS  H13X 9325   7.410   0.161   7.956  0.1137  1.3830  3.9413
   94SAPS  H13Y 9326   7.232   0.195   7.960  1.2988 -2.5172 -0.1697
   94SAPS  C314 9327   7.374   0.369   7.985  0.1815  0.0436  0.3410
   94SAPS  H14X 9328   7.329   0.452   7.927 -2.3592 -0.6142  1.2589
   94SAPS  H14Y 9329   7.485   0.376   7.996  0.3094  2.8572 -1.7170
   94SAPS  C315 9330   7.318   0.374   8.131 -0.3142  0.4299 -0.4812
   94SAPS  H15X 9331   7.345   0.286   8.193 -1.1788  1.5708  1.5805
   94SAPS  H15Y 9332   7.209   0.361   8.115  0.0220 -3.3531 -0.6461
   94SAPS  C316 9333   7.348   0.499   8.203  0.2641 -0.7846  0.0675
   94SAPS  H16X 9334   7.281   0.521   8.290  1.2405 -1.0078  0.8964
   94SAPS  H16Y 9335   7.337   0.573   8.121  0.6831  0.0410  0.7478
   94SAPS  C317 9336   7.492   0.516   8.262  0.3360  0.3153 -0.0987
   94SAPS  H17X 9337   7.576   0.494   8.193 -0.9041  1.9022 -2.2254
   94SAPS  H17Y 9338   7.496   0.435   8.339 -2.0498  1.2278  1.1008
   94SAPS  C318 9339   7.516   0.646   8.341  0.2778  0.9265  0.0421
   94SAPS  H18X 9340   7.617   0.645   8.386  0.8351 -0.5337 -1.1793
   94SAPS  H18Y 9341   7.442   0.650   8.424  2.2297 -2.2813  2.1641
   94SAPS  H18Z 9342   7.499   0.728   8.268  1.3817  1.0307 -0.1029
   95SAPS     N 9343   3.707   6.279   6.178  0.3148  0.3215  0.7105
   95SAPS   HN1 9344   3.699   6.313   6.080 -1.0960 -1.8265  0.0094
   95SAPS   HN2 9345   3.618   6.295   6.229 -0.6740  1.0060 -1.1447
   95SAPS   HN3 9346   3.783   6.335   6.223  0.5730  2.3421 -1.9586
   95SAPS   C12 9347   3.749   6.139   6.179 -0.1713 -0.0411  0.6510
   95SAPS  H12A 9348   3.683   6.094   6.106 -1.7890  1.7024  0.9594
   95SAPS   C13 9349   3.898   6.112   6.163 -0.0244  0.2179 -1.0083
   95SAPS  O13A 9350   3.981   6.208   6.152 -0.3035 -0.4940  0.3957
   95SAPS  O13B 9351   3.932   5.993   6.128 -0.0325  0.5178 -0.7248
   95SAPS   C11 9352   3.701   6.074   6.312 -0.3909 -0.2846  0.1944
   95SAPS  H11A 9353   3.762   6.117   6.394  0.0382 -0.4031 -0.0601
   95SAPS  H11B 9354   3.727   5.967   6.302 -0.3111 -0.2687  0.2214
   95SAPS     P 9355   3.492   6.038   6.455  0.1107 -0.3313  0.0227
   95SAPS   O13 9356   3.348   6.041   6.418 -0.0489 -0.0913  0.3366
   95SAPS   O14 9357   3.555   5.906   6.489  0.0355  0.0051  0.1469
   95SAPS   O12 9358   3.563   6.104   6.336 -0.1291  1.0734 -0.0220
   95SAPS   O11 9359   3.529   6.140   6.568  0.0982  0.2016  0.3332
   95SAPS    C1 9360   3.467   6.267   6.591 -0.5748  0.6562  0.2487
   95SAPS    HA 9361   3.522   6.347   6.538  1.8352  1.6143  3.8254
   95SAPS    HB 9362   3.360   6.264   6.558  0.1060 -1.0564 -2.1218
   95SAPS    C2 9363   3.468   6.313   6.745  0.4008 -0.5297 -0.1131
   95SAPS    HS 9364   3.576   6.329   6.767  0.0641  1.2128  0.4235
   95SAPS   O21 9365   3.402   6.219   6.833 -0.1427  0.0724 -0.2151
   95SAPS   C21 9366   3.468   6.110   6.851  1.2250  0.1577 -0.0136
   95SAPS   O22 9367   3.589   6.093   6.838  0.4773 -0.5740 -0.2840
   95SAPS   C22 9368   3.368   5.999   6.894 -0.1609  0.3092 -0.1288
   95SAPS   H2R 9369   3.285   6.047   6.951  0.3783  0.9200  0.1462
   95SAPS   H2S 9370   3.323   5.955   6.802 -2.0017 -1.9252  1.7163
   95SAPS    C3 9371   3.394   6.451   6.749 -1.4553 -0.7644  0.4099
   95SAPS    HX 9372   3.308   6.461   6.679  0.7447  2.2319 -2.1587
   95SAPS    HY 9373   3.458   6.533   6.709 -2.7900  0.7495  1.2591
   95SAPS   O31 9374   3.337   6.486   6.873  0.4389  0.3400 -0.3151
   95SAPS   C31 9375   3.425   6.522   6.967  0.4904  0.5646 -0.1890
   95SAPS   O32 9376   3.544   6.536   6.952 -0.8491  0.0240  0.1123
   95SAPS   C32 9377   3.353   6.553   7.093  0.4225 -0.0840 -0.2302
   95SAPS   H2X 9378   3.289   6.464   7.112  0.3743 -0.2162 -1.0015
   95SAPS   H2Y 9379   3.284   6.638   7.072  0.4024 -0.3351 -1.2512
   95SAPS   C23 9380   3.419   5.885   6.983 -0.0752  0.3908  0.0072
   95SAPS   H3R 9381   3.475   5.933   7.066 -0.0040  1.8518 -0.8543
   95SAPS   H3S 9382   3.487   5.816   6.928 -1.7920  0.6349 -2.6333
   95SAPS   C24 9383   3.298   5.807   7.037 -0.0173  0.0376  0.7081
   95SAPS   H4R 9384   3.244   5.878   7.103 -3.1443 -0.4646 -1.1077
   95SAPS   H4S 9385   3.339   5.728   7.104  0.4179  0.5640  1.0790
   95SAPS   C25 9386   3.215   5.750   6.923 -0.9908  0.0498  0.0799
   95SAPS   H5R 9387   3.267   5.676   6.861 -0.9627 -2.0601  2.4613
   95SAPS   C26 9388   3.082   5.758   6.911 -0.3541 -0.9057 -0.1290
   95SAPS   H6R 9389   3.029   5.702   6.832  0.9079 -0.1096 -1.6143
   95SAPS   C27 9390   2.989   5.826   7.000 -0.8919 -0.7090  0.3037
   95SAPS   H7R 9391   2.906   5.880   6.949 -1.2013 -0.4054  1.0919
   95SAPS   H7S 9392   3.035   5.905   7.064  0.5794  0.2108 -1.7736
   95SAPS   C28 9393   2.915   5.729   7.088 -0.6303 -0.5597 -0.5238
   95SAPS   H8R 9394   2.908   5.628   7.043  2.3459 -0.7111 -0.8578
   95SAPS   C29 9395   2.889   5.749   7.218  0.0867  0.3930 -0.5065
   95SAPS   H9R 9396   2.838   5.668   7.272 -0.4135  2.3517  2.1689
   95SAPS  C210 9397   2.916   5.871   7.300  0.4386 -0.1943  0.4852
   95SAPS  H10R 9398   2.816   5.892   7.343  0.8403 -0.0563  1.3844
   95SAPS  H10S 9399   2.935   5.960   7.236 -1.7943  1.0560  1.4340
   95SAPS  C211 9400   3.026   5.869   7.406 -0.1701 -0.3417  0.6043
   95SAPS  H11R 9401   3.117   5.813   7.380  0.4266  0.8522  0.0343
   95SAPS  C212 9402   3.021   5.928   7.523 -0.1935  0.2994 -0.1480
   95SAPS  H12R 9403   3.105   5.909   7.590  0.0324  0.7946 -0.2843
   95SAPS  C213 9404   2.910   5.998   7.587  0.7482 -0.3786  0.2747
   95SAPS  H13R 9405   2.818   5.949   7.546  1.0351 -0.9734  0.3363
   95SAPS  H13S 9406   2.914   6.102   7.549  2.4833 -0.2130  0.8348
   95SAPS  C214 9407   2.886   5.995   7.738 -1.5305 -0.2619  0.5668
   95SAPS  H14R 9408   2.810   5.923   7.773  0.5271 -2.0003  1.6524
   95SAPS  C215 9409   2.975   6.046   7.834 -0.1913  0.4881  0.0468
   95SAPS  H15R 9410   2.952   6.038   7.941  1.4628  0.1351  0.3997
   95SAPS  C216 9411   3.107   6.125   7.805 -0.6279  0.6486 -0.8158
   95SAPS  H16R 9412   3.164   6.079   7.721 -3.0575 -0.7813 -1.7931
   95SAPS  H16S 9413   3.171   6.132   7.896  0.8907 -1.7417 -1.5869
   95SAPS  C217 9414   3.064   6.264   7.764  0.0233 -0.4158  0.4480
   95SAPS  H17R 9415   3.005   6.264   7.670  1.4515 -1.4429 -0.4860
   95SAPS  H17S 9416   3.160   6.309   7.730  0.4757 -3.7167 -3.3267
   95SAPS  C218 9417   3.000   6.350   7.875 -0.2586 -0.3021 -0.2359
   95SAPS  H18R 9418   3.058   6.340   7.969 -0.5353 -1.2329 -0.1530
   95SAPS  H18S 9419   2.892   6.328   7.886 -0.7001  0.4525 -2.5352
   95SAPS  C219 9420   2.993   6.498   7.834  0.1367  0.7308 -0.4815
   95SAPS  H19R 9421   3.099   6.528   7.823  0.9311 -2.1442 -1.6100
   95SAPS  H19S 9422   2.946   6.554   7.918  0.0658 -2.0705  1.4830
   95SAPS  C220 9423   2.908   6.529   7.708  0.0765 -0.0509 -0.1123
   95SAPS  H20R 9424   2.919   6.639   7.695  0.2272 -0.1090 -0.5006
   95SAPS  H20S 9425   2.803   6.496   7.715 -0.1557  0.1340 -1.9987
   95SAPS  H20T 9426   2.953   6.485   7.616 -1.6803  0.4187 -1.2392
   95SAPS   C33 9427   3.435   6.590   7.212 -0.8439  0.0096  0.4124
   95SAPS   H3X 9428   3.486   6.688   7.199  2.0568 -1.2897  1.1071
   95SAPS   H3Y 9429   3.529   6.532   7.218  0.4128  1.5729 -2.2307
   95SAPS   C34 9430   3.361   6.584   7.342  0.5204 -0.7538 -0.4928
   95SAPS   H4X 9431   3.334   6.479   7.365  0.4100 -1.0703 -1.9497
   95SAPS   H4Y 9432   3.270   6.648   7.342  1.8220  1.3675  3.3466
   95SAPS   C35 9433   3.458   6.631   7.460 -0.1812  0.1734  0.1310
   95SAPS   H5X 9434   3.471   6.739   7.436 -0.3922  0.4361  1.1344
   95SAPS   H5Y 9435   3.554   6.576   7.451  1.8083  3.4387 -0.1669
   95SAPS   C36 9436   3.405   6.621   7.606 -0.1794  0.2569  0.3801
   95SAPS   H6X 9437   3.356   6.521   7.610  0.3619  0.0148  1.1286
   95SAPS   H6Y 9438   3.330   6.701   7.627  2.0728  2.7168 -0.4131
   95SAPS   C37 9439   3.519   6.644   7.707  0.1483 -0.0460  0.2442
   95SAPS   H7X 9440   3.535   6.753   7.716  0.1062 -0.0672  0.6240
   95SAPS   H7Y 9441   3.612   6.599   7.665 -0.3014 -2.3130  1.4816
   95SAPS   C38 9442   3.480   6.594   7.848  0.1198  0.0523  0.3872
   95SAPS   H8X 9443   3.573   6.603   7.909  0.3109  0.6274  0.0225
   95SAPS   H8Y 9444   3.445   6.489   7.848 -0.6056  0.2684 -1.1218
   95SAPS   C39 9445   3.378   6.688   7.919  0.2614 -0.4982 -0.1550
   95SAPS   H9X 9446   3.280   6.664   7.872 -0.4588 -0.9603  1.5331
   95SAPS   H9Y 9447   3.411   6.791   7.895 -1.1114 -0.6513 -3.3362
   95SAPS  C310 9448   3.377   6.662   8.071  0.2421 -0.6412  0.2985
   95SAPS  H10X 9449   3.310   6.735   8.121 -1.3336 -2.5083  1.0735
   95SAPS  H10Y 9450   3.474   6.685   8.120 -0.0213 -1.8324  1.4752
   95SAPS  C311 9451   3.336   6.513   8.108  0.2169  0.6482  1.1358
   95SAPS  H11X 9452   3.422   6.446   8.087 -0.1324  0.1491  1.2915
   95SAPS  H11Y 9453   3.260   6.481   8.034  1.1286 -0.4094  0.6206
   95SAPS  C312 9454   3.299   6.498   8.250 -0.1500  0.2931 -1.1502
   95SAPS  H12X 9455   3.377   6.477   8.326  0.0204 -0.6790 -1.5773
   95SAPS  H12Y 9456   3.247   6.399   8.255  1.5037 -0.6113 -1.2133
   95SAPS  C313 9457   3.210   6.606   8.317  0.5022  0.1684  0.6688
   95SAPS  H13X 9458   3.122   6.632   8.255 -0.0190  0.5827  1.5490
   95SAPS  H13Y 9459   3.281   6.691   8.326  0.6932  0.7448 -3.9492
   95SAPS  C314 9460   3.150   6.566   8.454 -0.1966  0.3480 -0.4769
   95SAPS  H14X 9461   3.229   6.524   8.520  0.2604  0.7667 -0.7450
   95SAPS  H14Y 9462   3.082   6.481   8.432  0.6633  0.5450 -4.6977
   95SAPS  C315 9463   3.079   6.678   8.531  0.6379 -0.3683  0.7042
   95SAPS  H15X 9464   3.026   6.637   8.620 -1.6146 -1.1066 -0.8691
   95SAPS  H15Y 9465   3.004   6.717   8.459  0.8426 -1.3091 -0.0391
   95SAPS  C316 9466   3.168   6.788   8.579 -0.8395 -0.0056  0.3796
   95SAPS  H16X 9467   3.235   6.827   8.499  0.5051  0.0979  1.5168
   95SAPS  H16Y 9468   3.239   6.741   8.650 -1.1240 -0.8211  0.1294
   95SAPS  C317 9469   3.092   6.893   8.651  0.2347  0.7362 -0.0055
   95SAPS  H17X 9470   3.162   6.945   8.720  1.4408 -0.2527 -0.4279
   95SAPS  H17Y 9471   3.009   6.841   8.703 -0.7130  1.0424 -1.1791
   95SAPS  C318 9472   3.043   7.009   8.560  0.1137 -0.2415 -0.0207
   95SAPS  H18X 9473   2.964   7.074   8.606  0.3459  0.2177 -0.2643
   95SAPS  H18Y 9474   2.988   6.971   8.471  1.1727  0.6765 -1.1006
   95SAPS  H18Z 9475   3.130   7.065   8.520  0.7261  0.1011  1.6943
   96SAPS     N 9476   5.822   4.965   6.321 -0.5071 -0.3805  0.4311
   96SAPS   HN1 9477   5.767   4.906   6.254  1.2183 -0.4264 -0.9988
   96SAPS   HN2 9478   5.894   4.900   6.358 -1.4464 -0.7721  1.6593
   96SAPS   HN3 9479   5.762   4.989   6.402  2.1101  0.3092  2.2671
   96SAPS   C12 9480   5.877   5.078   6.248  0.0773  0.2639 -0.0193
   96SAPS  H12A 9481   5.941   5.138   6.311 -0.5779 -0.6742  1.5964
   96SAPS   C13 9482   5.972   5.037   6.135  0.3371  0.1329  0.0712
   96SAPS  O13A 9483   5.978   4.920   6.102 -0.1995 -0.1553  0.3205
   96SAPS  O13B 9484   6.028   5.135   6.073  0.3247 -0.0025  0.4426
   96SAPS   C11 9485   5.755   5.157   6.192  0.0159  0.1316  1.5993
   96SAPS  H11A 9486   5.708   5.101   6.108  1.4950 -1.3621  1.7021
   96SAPS  H11B 9487   5.788   5.252   6.144  0.2906 -0.6365  0.2073
   96SAPS     P 9488   5.632   5.323   6.360  0.0393 -0.3316  0.0225
   96SAPS   O13 9489   5.660   5.419   6.254 -0.2383  0.6137  0.4224
   96SAPS   O14 9490   5.504   5.337   6.425 -0.3561 -0.4004 -0.4924
   96SAPS   O12 9491   5.649   5.176   6.295 -0.0168  0.0808  0.4183
   96SAPS   O11 9492   5.746   5.338   6.469  0.1197 -0.1696 -0.6754
   96SAPS    C1 9493   5.748   5.258   6.587 -0.7382  0.5248  0.0349
   96SAPS    HA 9494   5.666   5.185   6.599  0.3353 -0.3214  3.4349
   96SAPS    HB 9495   5.843   5.201   6.574 -0.7126  0.3716  0.8527
   96SAPS    C2 9496   5.785   5.339   6.715  0.3054  0.2821  0.2059
   96SAPS    HS 9497   5.869   5.283   6.762 -1.5948 -1.9185  1.1844
   96SAPS   O21 9498   5.676   5.347   6.805 -0.1959  0.5537  0.3798
   96SAPS   C21 9499   5.671   5.242   6.891  0.4380  0.2974  0.2887
   96SAPS   O22 9500   5.729   5.139   6.886 -0.3355  0.1047  0.1068
   96SAPS   C22 9501   5.561   5.261   7.000  0.0399 -0.1188  0.1745
   96SAPS   H2R 9502   5.503   5.350   6.969  1.2522  1.0146  1.0730
   96SAPS   H2S 9503   5.500   5.169   7.015 -0.9118  0.6596  1.1855
   96SAPS    C3 9504   5.837   5.484   6.672  0.2656 -0.4231  0.3480
   96SAPS    HX 9505   5.757   5.541   6.620  2.1718  0.5751 -1.6319
   96SAPS    HY 9506   5.911   5.466   6.591  0.8613  0.1561  0.7597
   96SAPS   O31 9507   5.899   5.549   6.783 -0.3048  0.2922 -0.1081
   96SAPS   C31 9508   5.818   5.622   6.850 -0.2726 -0.0547  0.1236
   96SAPS   O32 9509   5.703   5.652   6.824 -0.0826 -0.1902 -0.6295
   96SAPS   C32 9510   5.903   5.692   6.962  0.0199 -0.0754  0.2120
   96SAPS   H2X 9511   5.964   5.774   6.918 -0.5500  1.0859  1.5089
   96SAPS   H2Y 9512   5.972   5.617   7.005  1.3038  0.7381 -0.3591
   96SAPS   C23 9513   5.611   5.250   7.150 -0.2758 -0.1197 -1.2199
   96SAPS   H3R 9514   5.653   5.347   7.185 -0.8878 -0.9496  2.1008
   96SAPS   H3S 9515   5.696   5.178   7.155  0.4382  0.7604  0.0323
   96SAPS   C24 9516   5.496   5.220   7.259 -0.9737 -0.6297 -0.1648
   96SAPS   H4R 9517   5.551   5.191   7.352 -0.2352  1.1406 -0.0006
   96SAPS   H4S 9518   5.446   5.128   7.221 -2.0938  0.3858 -1.2195
   96SAPS   C25 9519   5.398   5.333   7.290 -0.2667  0.6734 -0.1024
   96SAPS   H5R 9520   5.322   5.345   7.211 -0.7584 -0.9084  0.1033
   96SAPS   C26 9521   5.387   5.396   7.408 -0.5254 -0.3648  0.0520
   96SAPS   H6R 9522   5.313   5.476   7.420  1.1383  0.9962  1.8886
   96SAPS   C27 9523   5.470   5.388   7.540  0.2888  0.3176 -0.0442
   96SAPS   H7R 9524   5.546   5.467   7.526  2.0168 -1.1318  0.8643
   96SAPS   H7S 9525   5.528   5.294   7.549 -3.2030 -2.0000  0.3571
   96SAPS   C28 9526   5.390   5.411   7.666 -0.3636 -0.7010  0.1397
   96SAPS   H8R 9527   5.298   5.470   7.654 -1.2534 -2.1998 -0.6438
   96SAPS   C29 9528   5.415   5.362   7.785 -0.1010  0.3036 -0.6528
   96SAPS   H9R 9529   5.347   5.385   7.868 -0.0173 -1.4508 -0.0502
   96SAPS  C210 9530   5.535   5.285   7.828  0.0195  0.5321  0.3196
   96SAPS  H10R 9531   5.601   5.348   7.891 -0.2555  0.7357  0.4045
   96SAPS  H10S 9532   5.603   5.244   7.750 -1.4130  0.0349 -0.6961
   96SAPS  C211 9533   5.480   5.160   7.901 -0.2642 -0.4730  0.6344
   96SAPS  H11R 9534   5.425   5.092   7.833  2.0485  0.6337 -2.5810
   96SAPS  C212 9535   5.513   5.114   8.020  0.3255 -0.3519 -0.1643
   96SAPS  H12R 9536   5.459   5.025   8.057  0.5054 -0.6909 -0.7019
   96SAPS  C213 9537   5.610   5.179   8.115 -0.0913  0.1121 -0.3041
   96SAPS  H13R 9538   5.623   5.286   8.086 -1.2149 -0.3684 -2.8425
   96SAPS  H13S 9539   5.710   5.132   8.105  1.3553  2.6340  1.2768
   96SAPS  C214 9540   5.564   5.171   8.259  0.2565 -0.5452 -0.0606
   96SAPS  H14R 9541   5.619   5.104   8.326  0.9733  1.2333  1.2084
   96SAPS  C215 9542   5.458   5.227   8.315  0.2465  0.0423 -0.0814
   96SAPS  H15R 9543   5.444   5.213   8.423 -1.5518  0.8112 -0.1778
   96SAPS  C216 9544   5.358   5.328   8.262 -0.2723 -0.2689  0.0141
   96SAPS  H16R 9545   5.256   5.288   8.279 -0.0028 -0.2442  2.0191
   96SAPS  H16S 9546   5.367   5.353   8.154 -2.3881  2.5094  0.3545
   96SAPS  C217 9547   5.341   5.466   8.338 -0.5558  0.0251  0.6334
   96SAPS  H17R 9548   5.436   5.522   8.351  0.1360 -1.0464  0.3506
   96SAPS  H17S 9549   5.301   5.442   8.439 -2.1786  1.2244  0.3124
   96SAPS  C218 9550   5.245   5.566   8.258  0.3789  0.1092  0.0126
   96SAPS  H18R 9551   5.137   5.540   8.251  0.3407  0.1475  0.4694
   96SAPS  H18S 9552   5.287   5.567   8.155  0.3615 -0.3304 -0.0014
   96SAPS  C219 9553   5.269   5.704   8.319  0.1322 -0.3342  0.0393
   96SAPS  H19R 9554   5.247   5.781   8.242  0.0512  1.1371  1.4796
   96SAPS  H19S 9555   5.377   5.705   8.343 -0.1065  0.3783  1.1832
   96SAPS  C220 9556   5.190   5.732   8.448  0.4593  0.5807  0.1107
   96SAPS  H20R 9557   5.087   5.745   8.409  0.2847 -2.6860 -0.7963
   96SAPS  H20S 9558   5.223   5.826   8.497 -0.7804  0.5083  1.1610
   96SAPS  H20T 9559   5.197   5.642   8.513 -0.9003  0.8079  0.6090
   96SAPS   C33 9560   5.824   5.737   7.086 -0.1476 -0.4936  0.6789
   96SAPS   H3X 9561   5.765   5.820   7.041  0.9802 -0.2429 -0.3753
   96SAPS   H3Y 9562   5.901   5.772   7.158  0.5042  0.6899 -0.5566
   96SAPS   C34 9563   5.743   5.626   7.147 -1.2020 -0.1588 -0.3406
   96SAPS   H4X 9564   5.810   5.538   7.160 -1.0790 -0.7083 -3.8636
   96SAPS   H4Y 9565   5.658   5.591   7.084 -2.1745  0.6260  0.5032
   96SAPS   C35 9566   5.699   5.669   7.283  0.3421 -0.4873  0.1510
   96SAPS   H5X 9567   5.778   5.670   7.361 -2.3034 -0.0773  3.0223
   96SAPS   H5Y 9568   5.639   5.587   7.328  1.6750 -0.4287  2.1478
   96SAPS   C36 9569   5.607   5.797   7.288 -0.0551 -0.1108 -0.3553
   96SAPS   H6X 9570   5.533   5.796   7.206  0.6245  3.0229 -1.1052
   96SAPS   H6Y 9571   5.669   5.885   7.263  1.3459 -0.7429  0.7426
   96SAPS   C37 9572   5.530   5.796   7.427  0.7789  0.1537  0.2486
   96SAPS   H7X 9573   5.617   5.797   7.496  0.9562  0.7734  0.0307
   96SAPS   H7Y 9574   5.468   5.710   7.459  0.9629  0.2156  0.7768
   96SAPS   C38 9575   5.442   5.926   7.443 -0.4118 -0.3612 -0.1117
   96SAPS   H8X 9576   5.333   5.908   7.434 -0.1690 -2.2626  0.2787
   96SAPS   H8Y 9577   5.465   5.990   7.356 -0.0462  1.3751  1.2060
   96SAPS   C39 9578   5.474   5.992   7.576  0.5871  0.3612  0.0044
   96SAPS   H9X 9579   5.427   6.090   7.554  1.8952  0.9148 -0.3886
   96SAPS   H9Y 9580   5.583   6.000   7.594  0.5979 -1.5762  1.0476
   96SAPS  C310 9581   5.432   5.913   7.699  0.3287 -0.5393  0.0156
   96SAPS  H10X 9582   5.495   5.823   7.715  0.5355 -0.6193 -1.1394
   96SAPS  H10Y 9583   5.331   5.869   7.680  0.4491 -1.2381  0.9152
   96SAPS  C311 9584   5.432   6.008   7.819  0.3644 -0.3963  0.9315
   96SAPS  H11X 9585   5.327   6.038   7.836 -0.1549 -2.2741  1.3112
   96SAPS  H11Y 9586   5.496   6.096   7.795 -1.3996  0.7041  0.1402
   96SAPS  C312 9587   5.488   5.956   7.948  0.0861  0.0402 -0.0968
   96SAPS  H12X 9588   5.590   5.920   7.923 -0.7607 -1.2287 -1.8989
   96SAPS  H12Y 9589   5.436   5.871   7.996 -0.0788 -0.5676 -1.3174
   96SAPS  C313 9590   5.493   6.068   8.050 -0.4853 -0.5892  0.0283
   96SAPS  H13X 9591   5.393   6.115   8.062  0.8015  1.9207  1.7328
   96SAPS  H13Y 9592   5.558   6.149   8.010 -1.6149  1.3894  1.9999
   96SAPS  C314 9593   5.546   6.019   8.183 -0.5231  0.0690 -0.5647
   96SAPS  H14X 9594   5.649   5.985   8.161  0.5661  1.4256  2.0363
   96SAPS  H14Y 9595   5.482   5.939   8.227  0.3500 -0.3333 -0.0138
   96SAPS  C315 9596   5.541   6.128   8.291  0.2326  0.6075 -0.2287
   96SAPS  H15X 9597   5.436   6.157   8.313  0.5552  1.4627  0.2748
   96SAPS  H15Y 9598   5.583   6.217   8.240  0.2030 -0.1308 -1.5691
   96SAPS  C316 9599   5.611   6.106   8.423 -0.4765  0.0181  0.0708
   96SAPS  H16X 9600   5.693   6.032   8.406 -0.0219  0.2041  1.3721
   96SAPS  H16Y 9601   5.537   6.064   8.494  0.6280  0.3326  1.4452
   96SAPS  C317 9602   5.686   6.237   8.472  0.8300  0.1166 -0.3188
   96SAPS  H17X 9603   5.606   6.312   8.492  1.1764 -0.0922  2.1466
   96SAPS  H17Y 9604   5.758   6.281   8.400  1.0791 -1.0514 -0.8032
   96SAPS  C318 9605   5.758   6.211   8.603  0.2897  0.9057  0.1906
   96SAPS  H18X 9606   5.847   6.144   8.604 -1.4571 -1.5611 -0.2646
   96SAPS  H18Y 9607   5.695   6.167   8.684  0.2940 -2.3954 -1.4214
   96SAPS  H18Z 9608   5.794   6.298   8.662 -1.8376  0.7801  1.7910
   97SAPS     N 9609   6.509   5.358   6.203  0.2641  0.3663  0.1694
   97SAPS   HN1 9610   6.417   5.403   6.225  0.4991  0.2539  1.4686
   97SAPS   HN2 9611   6.500   5.306   6.113 -1.9825  0.4930  0.2522
   97SAPS   HN3 9612   6.513   5.288   6.280 -0.3502 -1.3396 -1.2861
   97SAPS   C12 9613   6.614   5.462   6.190  0.0469 -0.0537  0.1809
   97SAPS  H12A 9614   6.695   5.416   6.136  0.6454  2.7943 -1.5855
   97SAPS   C13 9615   6.581   5.575   6.086 -0.6412  0.3758 -0.9768
   97SAPS  O13A 9616   6.478   5.558   6.016  0.5145 -0.5446  0.2133
   97SAPS  O13B 9617   6.668   5.662   6.059  0.0180  0.6463 -0.0042
   97SAPS   C11 9618   6.641   5.522   6.329  0.4166  0.6801  0.2596
   97SAPS  H11A 9619   6.552   5.579   6.364 -2.4101 -2.1966 -1.7276
   97SAPS  H11B 9620   6.721   5.599   6.330 -0.1151  1.2746  2.5934
   97SAPS     P 9621   6.814   5.356   6.442 -0.8559  0.0788  0.1771
   97SAPS   O13 9622   6.833   5.252   6.340 -1.0092  0.0335 -1.0014
   97SAPS   O14 9623   6.910   5.465   6.434  0.2469  0.6586  0.3435
   97SAPS   O12 9624   6.676   5.424   6.422 -0.5992 -0.3339  0.3821
   97SAPS   O11 9625   6.819   5.290   6.589 -0.4526 -0.2877  0.0024
   97SAPS    C1 9626   6.755   5.361   6.699 -0.6000 -0.3928 -0.3164
   97SAPS    HA 9627   6.690   5.446   6.670 -3.2460 -0.7040  3.9016
   97SAPS    HB 9628   6.681   5.291   6.744  0.2888 -0.4392  1.1361
   97SAPS    C2 9629   6.852   5.435   6.805 -0.0753 -0.4722  0.9801
   97SAPS    HS 9630   6.948   5.463   6.755  2.0678 -1.4019  4.2171
   97SAPS   O21 9631   6.877   5.358   6.920  0.9255  0.3344 -0.7297
   97SAPS   C21 9632   6.941   5.238   6.904 -0.1512 -0.0526  0.4398
   97SAPS   O22 9633   6.990   5.210   6.790  0.0309  0.0030 -0.6787
   97SAPS   C22 9634   6.952   5.156   7.026  0.7320 -0.3083  0.1027
   97SAPS   H2R 9635   6.898   5.206   7.109  2.1155 -0.3139  1.0516
   97SAPS   H2S 9636   6.902   5.061   6.998 -0.9071  0.7484 -0.6907
   97SAPS    C3 9637   6.783   5.568   6.860  0.5574 -0.2325  0.2472
   97SAPS    HX 9638   6.701   5.517   6.916 -2.0244 -0.7535 -3.5890
   97SAPS    HY 9639   6.724   5.621   6.783  0.7945  0.1867  0.3541
   97SAPS   O31 9640   6.865   5.650   6.937 -0.0938  0.3364 -0.0270
   97SAPS   C31 9641   6.949   5.740   6.877 -0.4220 -0.4308 -0.1939
   97SAPS   O32 9642   6.951   5.775   6.762  0.4635  0.8649  0.4896
   97SAPS   C32 9643   7.032   5.795   6.991 -0.2250  0.8501  0.4067
   97SAPS   H2X 9644   7.092   5.707   7.020 -1.0508 -1.0670 -3.1398
   97SAPS   H2Y 9645   6.970   5.836   7.073 -1.8206 -0.1709 -0.2381
   97SAPS   C23 9646   7.103   5.136   7.051 -0.0435 -0.1648  0.2458
   97SAPS   H3R 9647   7.140   5.086   6.958  2.1164 -0.6603  1.3043
   97SAPS   H3S 9648   7.120   5.071   7.139  0.9176  0.5339  0.5846
   97SAPS   C24 9649   7.179   5.264   7.074  0.0348 -0.4264  0.8606
   97SAPS   H4R 9650   7.194   5.332   6.987 -0.1539 -0.2903  0.9332
   97SAPS   H4S 9651   7.283   5.233   7.096 -0.4267 -2.0373  0.8620
   97SAPS   C25 9652   7.114   5.325   7.199 -0.2766 -0.0115 -0.4743
   97SAPS   H5R 9653   7.017   5.373   7.179 -0.7164 -1.5210 -2.2499
   97SAPS   C26 9654   7.152   5.331   7.322  0.3614  0.0314 -0.0522
   97SAPS   H6R 9655   7.090   5.378   7.401 -1.9625 -1.6524 -0.7399
   97SAPS   C27 9656   7.288   5.276   7.366 -0.9673 -0.4827  0.4582
   97SAPS   H7R 9657   7.314   5.183   7.310 -0.2954 -0.1957  0.2868
   97SAPS   H7S 9658   7.284   5.238   7.470  4.0533  0.6760  1.3385
   97SAPS   C28 9659   7.403   5.378   7.353  0.1934 -0.4483 -0.1423
   97SAPS   H8R 9660   7.469   5.368   7.265  0.2816  0.7553 -0.2401
   97SAPS   C29 9661   7.454   5.462   7.447 -0.7615 -0.8863  0.4305
   97SAPS   H9R 9662   7.542   5.520   7.419 -2.8272  1.3092 -2.0870
   97SAPS  C210 9663   7.395   5.484   7.588 -0.2505 -0.3378 -0.0106
   97SAPS  H10R 9664   7.286   5.506   7.586 -0.1360  0.3373  0.6650
   97SAPS  H10S 9665   7.445   5.574   7.629 -2.0064  0.9231 -0.5189
   97SAPS  C211 9666   7.427   5.369   7.677 -0.2936 -0.0109 -0.1058
   97SAPS  H11R 9667   7.372   5.278   7.648 -0.7646 -1.1492  3.8083
   97SAPS  C212 9668   7.507   5.366   7.787  0.4276 -0.2787 -0.3104
   97SAPS  H12R 9669   7.504   5.284   7.860  4.5906 -1.6007 -1.3358
   97SAPS  C213 9670   7.573   5.483   7.856 -0.4169 -0.2013 -0.0907
   97SAPS  H13R 9671   7.583   5.572   7.789 -0.4970 -0.4509 -0.4394
   97SAPS  H13S 9672   7.674   5.449   7.885 -0.3408  0.8567  0.9822
   97SAPS  C214 9673   7.512   5.528   7.984  0.6097 -0.5741 -0.2622
   97SAPS  H14R 9674   7.472   5.629   7.972  1.3713 -0.1278  0.8347
   97SAPS  C215 9675   7.518   5.479   8.106  0.6065  0.2116 -0.6385
   97SAPS  H15R 9676   7.457   5.536   8.178  1.1701  1.2411 -0.9614
   97SAPS  C216 9677   7.575   5.358   8.164  0.1388  0.9197  0.0684
   97SAPS  H16R 9678   7.611   5.375   8.267 -1.8415 -0.0106  0.9554
   97SAPS  H16S 9679   7.660   5.318   8.104 -0.1507  0.4570 -0.0375
   97SAPS  C217 9680   7.473   5.238   8.175  0.2162 -0.1949  0.1872
   97SAPS  H17R 9681   7.536   5.147   8.171 -0.9200 -1.2214  2.8330
   97SAPS  H17S 9682   7.416   5.228   8.081  0.4613 -0.2983  0.0492
   97SAPS  C218 9683   7.388   5.252   8.301  0.2490 -0.1240  0.1753
   97SAPS  H18R 9684   7.355   5.357   8.318 -0.3012 -0.3961  0.8274
   97SAPS  H18S 9685   7.445   5.220   8.391 -0.4189  0.3367  0.7702
   97SAPS  C219 9686   7.256   5.174   8.279 -0.6055  0.5196 -0.1283
   97SAPS  H19R 9687   7.204   5.211   8.188 -0.5749  1.1984  0.1256
   97SAPS  H19S 9688   7.197   5.203   8.369  1.3769  1.2668  0.9791
   97SAPS  C220 9689   7.275   5.028   8.276  0.1328 -0.4163  0.0314
   97SAPS  H20R 9690   7.175   4.984   8.256 -0.4000  2.3136 -4.8938
   97SAPS  H20S 9691   7.323   4.989   8.369  4.4024  0.2003 -1.6645
   97SAPS  H20T 9692   7.347   4.990   8.201  0.0990  0.1668 -0.2994
   97SAPS   C33 9693   7.140   5.905   6.953  0.4759  0.5974 -0.1716
   97SAPS   H3X 9694   7.086   5.990   6.905 -0.9626  0.5563  1.2799
   97SAPS   H3Y 9695   7.211   5.862   6.880 -0.2775 -2.2910  0.6540
   97SAPS   C34 9696   7.216   5.959   7.074  0.1111 -0.6468 -0.9279
   97SAPS   H4X 9697   7.269   5.871   7.115  1.6292  0.3244 -0.6932
   97SAPS   H4Y 9698   7.136   5.977   7.150 -0.0744 -0.2159 -1.2188
   97SAPS   C35 9699   7.304   6.087   7.045  0.5960  0.5800  0.1016
   97SAPS   H5X 9700   7.237   6.174   7.028 -0.4089 -0.1504  0.2710
   97SAPS   H5Y 9701   7.367   6.068   6.955  3.5172  1.5347  1.8086
   97SAPS   C36 9702   7.386   6.121   7.163 -0.0121 -0.9334 -0.4558
   97SAPS   H6X 9703   7.461   6.199   7.136  1.6386 -0.7330  3.8784
   97SAPS   H6Y 9704   7.447   6.037   7.203  0.7473  0.1036  0.6663
   97SAPS   C37 9705   7.306   6.170   7.287  0.0936 -0.0988 -0.1602
   97SAPS   H7X 9706   7.243   6.088   7.327  0.9936 -1.3742 -1.2489
   97SAPS   H7Y 9707   7.232   6.247   7.256 -0.9957 -1.4950 -1.1416
   97SAPS   C38 9708   7.404   6.225   7.391 -0.1641  0.7748  0.6402
   97SAPS   H8X 9709   7.458   6.317   7.360  0.7585  0.2294  0.5901
   97SAPS   H8Y 9710   7.466   6.136   7.417 -0.1617  0.0449 -1.6473
   97SAPS   C39 9711   7.328   6.274   7.513  0.2832 -0.2914 -0.0527
   97SAPS   H9X 9712   7.258   6.193   7.544 -2.3259  2.0753  0.5742
   97SAPS   H9Y 9713   7.270   6.358   7.469  1.9497  0.7442 -0.3927
   97SAPS  C310 9714   7.404   6.321   7.636 -0.1154 -0.1814 -0.1590
   97SAPS  H10X 9715   7.332   6.379   7.699 -3.7997 -1.7054 -2.6378
   97SAPS  H10Y 9716   7.484   6.391   7.605  0.5404 -0.6047  0.5482
   97SAPS  C311 9717   7.464   6.205   7.710  0.6982  0.9453 -0.0760
   97SAPS  H11X 9718   7.560   6.178   7.661  0.0180 -3.3323  0.6077
   97SAPS  H11Y 9719   7.402   6.113   7.699 -1.1760  2.4069 -3.3423
   97SAPS  C312 9720   7.500   6.248   7.855  0.0790  0.2374  0.4239
   97SAPS  H12X 9721   7.417   6.303   7.902  1.5878  1.8821  1.2813
   97SAPS  H12Y 9722   7.578   6.327   7.848 -0.6841  0.9684 -0.1136
   97SAPS  C313 9723   7.551   6.129   7.936 -0.1510  0.0514 -0.3819
   97SAPS  H13X 9724   7.632   6.087   7.873 -0.8014 -0.2470 -1.0386
   97SAPS  H13Y 9725   7.465   6.059   7.920  0.2560 -0.4958 -0.2063
   97SAPS  C314 9726   7.581   6.169   8.077 -0.2186 -0.1214  0.6410
   97SAPS  H14X 9727   7.508   6.240   8.121  0.8876  2.0467 -0.8364
   97SAPS  H14Y 9728   7.675   6.228   8.070 -0.9733  1.0990  0.7255
   97SAPS  C315 9729   7.604   6.048   8.172 -0.3043 -0.4141  0.7236
   97SAPS  H15X 9730   7.520   5.976   8.181 -1.5143  0.9045  0.3463
   97SAPS  H15Y 9731   7.606   6.108   8.266 -0.7906  0.4103  0.2172
   97SAPS  C316 9732   7.738   5.981   8.150 -0.1184 -0.2977  0.1733
   97SAPS  H16X 9733   7.828   6.045   8.140  0.4580 -1.1120  0.0253
   97SAPS  H16Y 9734   7.734   5.942   8.046  1.2084  0.6848 -0.2665
   97SAPS  C317 9735   7.755   5.848   8.224  0.1231 -0.1532  0.2714
   97SAPS  H17X 9736   7.857   5.817   8.194  1.0535  2.3572  0.6755
   97SAPS  H17Y 9737   7.683   5.773   8.185  0.2598 -0.6411  0.9368
   97SAPS  C318 9738   7.748   5.872   8.375 -0.0652 -0.1198 -0.3020
   97SAPS  H18X 9739   7.775   5.782   8.433  1.7303  0.7426  0.2597
   97SAPS  H18Y 9740   7.642   5.901   8.395 -0.6304 -0.2644 -2.7179
   97SAPS  H18Z 9741   7.812   5.951   8.419 -0.4666  0.9465 -1.5627
   98SAPS     N 9742   4.325   6.586   5.976 -0.4508  0.3161  0.8518
   98SAPS   HN1 9743   4.283   6.525   5.902 -0.0364 -0.4045  1.1996
   98SAPS   HN2 9744   4.360   6.523   6.051 -0.7139 -0.9370 -0.0475
   98SAPS   HN3 9745   4.260   6.651   6.026  0.6515  1.9467  0.2537
   98SAPS   C12 9746   4.443   6.656   5.920  0.0610 -0.0152  0.3128
   98SAPS  H12A 9747   4.508   6.575   5.889  3.0980  1.9775  0.9853
   98SAPS   C13 9748   4.420   6.752   5.796 -0.1268 -0.3309 -0.3779
   98SAPS  O13A 9749   4.316   6.752   5.734  0.2531  0.0688 -0.0665
   98SAPS  O13B 9750   4.517   6.813   5.750 -0.0027 -0.6158  0.1473
   98SAPS   C11 9751   4.515   6.738   6.031  0.1266 -0.0078 -0.4433
   98SAPS  H11A 9752   4.440   6.811   6.069 -1.7560 -3.3080  2.9083
   98SAPS  H11B 9753   4.603   6.795   5.995 -0.2095 -1.5347 -4.0484
   98SAPS     P 9754   4.590   6.693   6.271 -0.1503  0.0551 -0.1701
   98SAPS   O13 9755   4.625   6.573   6.354 -0.3323  0.0626  0.0535
   98SAPS   O14 9756   4.698   6.794   6.249 -0.0206 -0.2321  0.3860
   98SAPS   O12 9757   4.541   6.642   6.133 -0.3455 -0.5503  1.0417
   98SAPS   O11 9758   4.461   6.762   6.334 -0.0643 -0.0625  0.0776
   98SAPS    C1 9759   4.360   6.673   6.395 -1.1382 -0.5162  0.1056
   98SAPS    HA 9760   4.296   6.640   6.311  0.3453 -0.1292 -1.2251
   98SAPS    HB 9761   4.398   6.578   6.438  1.1538  0.1861 -0.2132
   98SAPS    C2 9762   4.267   6.754   6.489  0.5272 -0.2666 -0.2416
   98SAPS    HS 9763   4.203   6.814   6.420 -0.8190  0.0405  1.2066
   98SAPS   O21 9764   4.337   6.842   6.578  0.2559  0.2158 -0.0127
   98SAPS   C21 9765   4.256   6.934   6.635 -0.3780 -0.4011 -0.2142
   98SAPS   O22 9766   4.137   6.952   6.611 -0.0747 -0.6614 -0.4437
   98SAPS   C22 9767   4.334   7.004   6.743 -0.5581 -0.0317 -0.5842
   98SAPS   H2R 9768   4.388   6.935   6.811 -1.8292 -0.3550  0.1407
   98SAPS   H2S 9769   4.410   7.062   6.687 -1.9583  1.1730 -1.3264
   98SAPS    C3 9770   4.186   6.651   6.580  0.3192  0.4032  0.2128
   98SAPS    HX 9771   4.125   6.595   6.506  0.1217  0.9277 -0.0261
   98SAPS    HY 9772   4.114   6.710   6.641 -0.7273  0.5471 -1.1022
   98SAPS   O31 9773   4.273   6.558   6.653 -0.9680  0.2813  0.0309
   98SAPS   C31 9774   4.287   6.591   6.792  0.4436 -0.4742  0.6243
   98SAPS   O32 9775   4.213   6.672   6.842 -0.7658 -0.2424 -0.2197
   98SAPS   C32 9776   4.367   6.485   6.852  0.4657  0.0358  0.0872
   98SAPS   H2X 9777   4.462   6.484   6.793 -0.7711 -0.1976 -1.9864
   98SAPS   H2Y 9778   4.304   6.394   6.841  0.0508  0.4598 -1.3306
   98SAPS   C23 9779   4.254   7.112   6.832 -0.1885 -0.9556 -0.1004
   98SAPS   H3R 9780   4.203   7.177   6.758  1.8253  3.4258  2.0163
   98SAPS   H3S 9781   4.329   7.175   6.885 -1.3246  0.3684 -0.0314
   98SAPS   C24 9782   4.161   7.051   6.938  0.2746 -0.1318 -0.1255
   98SAPS   H4R 9783   4.091   6.976   6.895 -0.7028  0.7641 -0.1354
   98SAPS   H4S 9784   4.098   7.137   6.969  1.5831  1.8424 -2.5559
   98SAPS   C25 9785   4.236   6.989   7.049 -0.0606 -0.7214  0.2276
   98SAPS   H5R 9786   4.283   6.894   7.018  0.2769  0.0467 -1.7564
   98SAPS   C26 9787   4.249   7.038   7.171  0.0500 -0.2347  0.1659
   98SAPS   H6R 9788   4.295   6.977   7.250 -0.0119  0.5632  0.8367
   98SAPS   C27 9789   4.185   7.163   7.230  0.5272  0.7432  1.0232
   98SAPS   H7R 9790   4.093   7.126   7.280  1.1564 -3.6891 -0.6334
   98SAPS   H7S 9791   4.158   7.240   7.155  1.1763  0.0148  0.0105
   98SAPS   C28 9792   4.280   7.230   7.328 -0.4642 -0.4118  0.3130
   98SAPS   H8R 9793   4.337   7.317   7.292  0.8411 -1.4629 -0.2429
   98SAPS   C29 9794   4.289   7.217   7.458  0.3403  1.4822  0.3845
   98SAPS   H9R 9795   4.360   7.279   7.515  0.6757  1.4077  0.0449
   98SAPS  C210 9796   4.211   7.115   7.539  0.4912  0.2547  0.0643
   98SAPS  H10R 9797   4.119   7.088   7.483  2.1885 -0.6588 -2.5028
   98SAPS  H10S 9798   4.179   7.163   7.634  0.3290 -2.4855  1.4789
   98SAPS  C211 9799   4.298   7.000   7.570  0.0571 -0.1230  0.8232
   98SAPS  H11R 9800   4.310   6.925   7.491  0.0766 -0.5244  1.2048
   98SAPS  C212 9801   4.359   6.981   7.687 -0.0608 -0.2769  0.4089
   98SAPS  H12R 9802   4.422   6.891   7.691 -0.4702 -0.5597  0.5106
   98SAPS  C213 9803   4.356   7.064   7.815  0.3870  0.6752  0.0690
   98SAPS  H13R 9804   4.332   7.169   7.789 -0.9322  0.5086  0.5740
   98SAPS  H13S 9805   4.451   7.080   7.871  0.4216 -3.5061  1.5498
   98SAPS  C214 9806   4.252   7.010   7.919  0.5522  0.2138  0.0010
   98SAPS  H14R 9807   4.149   7.046   7.909  0.6489  0.0323 -1.9331
   98SAPS  C215 9808   4.281   6.948   8.037 -0.1406 -0.0660 -0.1053
   98SAPS  H15R 9809   4.199   6.906   8.096  0.5648 -1.1082  0.1605
   98SAPS  C216 9810   4.418   6.922   8.083  0.2050  0.4718 -0.0950
   98SAPS  H16R 9811   4.422   6.928   8.194  0.4192  2.8313 -0.1799
   98SAPS  H16S 9812   4.496   6.992   8.046 -0.1683 -0.2884 -2.4927
   98SAPS  C217 9813   4.466   6.784   8.047  0.3349  1.2422 -0.0588
   98SAPS  H17R 9814   4.463   6.772   7.937  1.4048  0.0260  0.0199
   98SAPS  H17S 9815   4.384   6.727   8.096 -0.8096  2.3953 -0.5830
   98SAPS  C218 9816   4.604   6.738   8.106 -0.1219 -0.0046  0.7110
   98SAPS  H18R 9817   4.681   6.812   8.077 -1.6627  1.8379  1.0650
   98SAPS  H18S 9818   4.624   6.641   8.056 -2.0495 -0.8326  1.4183
   98SAPS  C219 9819   4.602   6.734   8.255 -0.2090  0.2841  0.2211
   98SAPS  H19R 9820   4.497   6.718   8.289  0.8715 -0.0266  3.8603
   98SAPS  H19S 9821   4.626   6.831   8.304 -0.7440  0.2424  0.5758
   98SAPS  C220 9822   4.684   6.618   8.311 -0.0401  0.6901 -0.2657
   98SAPS  H20R 9823   4.670   6.524   8.253  2.3645 -0.0419  0.2292
   98SAPS  H20S 9824   4.656   6.585   8.414 -0.3218 -2.3728 -1.2337
   98SAPS  H20T 9825   4.792   6.639   8.300 -0.1580  0.1351 -2.9533
   98SAPS   C33 9826   4.395   6.510   7.003  0.0780  0.5394 -0.8608
   98SAPS   H3X 9827   4.428   6.614   7.026  0.4390  0.0857  0.7287
   98SAPS   H3Y 9828   4.473   6.434   7.024 -0.7300 -0.5747 -1.7713
   98SAPS   C34 9829   4.276   6.495   7.095 -0.2994  0.1647  0.4699
   98SAPS   H4X 9830   4.222   6.407   7.055  0.9489  0.2777 -1.6358
   98SAPS   H4Y 9831   4.228   6.591   7.067 -0.7572 -0.3003 -0.3575
   98SAPS   C35 9832   4.329   6.493   7.237  0.1258 -0.2835  0.1418
   98SAPS   H5X 9833   4.401   6.577   7.239 -0.1227 -0.0417 -0.6927
   98SAPS   H5Y 9834   4.388   6.400   7.252  1.3594  0.7750  2.5517
   98SAPS   C36 9835   4.227   6.510   7.350  0.0728 -0.0985  0.2102
   98SAPS   H6X 9836   4.143   6.436   7.351 -2.7520  2.7624 -1.9380
   98SAPS   H6Y 9837   4.165   6.601   7.335 -0.0994 -0.4181 -1.1625
   98SAPS   C37 9838   4.307   6.537   7.488  0.6263  0.8037 -0.2184
   98SAPS   H7X 9839   4.406   6.583   7.464 -0.6037  2.5486 -2.3864
   98SAPS   H7Y 9840   4.321   6.429   7.509 -0.4142 -0.1169 -3.5832
   98SAPS   C38 9841   4.231   6.597   7.599  0.2773  0.5044 -0.2094
   98SAPS   H8X 9842   4.134   6.543   7.612 -0.0426  1.2355  0.5289
   98SAPS   H8Y 9843   4.201   6.703   7.581  0.5127  0.5981 -0.0504
   98SAPS   C39 9844   4.298   6.595   7.732 -0.1771 -0.1913 -0.3876
   98SAPS   H9X 9845   4.239   6.646   7.811  0.4813 -0.4409  0.2803
   98SAPS   H9Y 9846   4.388   6.661   7.730 -0.4230  0.1251 -1.4994
   98SAPS  C310 9847   4.336   6.464   7.789 -0.0765 -0.3409 -0.3757
   98SAPS  H10X 9848   4.417   6.425   7.724 -2.0609  0.1308 -3.2833
   98SAPS  H10Y 9849   4.253   6.391   7.783  1.3753 -2.2030  0.9020
   98SAPS  C311 9850   4.379   6.466   7.937  0.0786  0.5970 -0.9212
   98SAPS  H11X 9851   4.448   6.553   7.946  0.5966  0.2547 -1.4405
   98SAPS  H11Y 9852   4.447   6.378   7.944  1.8251  1.8549 -1.2627
   98SAPS  C312 9853   4.262   6.471   8.036 -0.4910 -0.1025 -0.5867
   98SAPS  H12X 9854   4.193   6.387   8.016 -0.5065 -0.2746  0.1850
   98SAPS  H12Y 9855   4.207   6.567   8.031 -3.4251 -1.6317 -0.0742
   98SAPS  C313 9856   4.314   6.454   8.184 -0.2724  0.0361  0.6071
   98SAPS  H13X 9857   4.397   6.526   8.199  0.1914 -0.2585 -0.4141
   98SAPS  H13Y 9858   4.359   6.353   8.186  0.1841  0.1261 -1.7015
   98SAPS  C314 9859   4.196   6.461   8.286 -0.3272  0.3363  0.5071
   98SAPS  H14X 9860   4.112   6.395   8.256  0.0879 -0.5632  1.2678
   98SAPS  H14Y 9861   4.142   6.558   8.286 -1.2587 -0.1745  0.6876
   98SAPS  C315 9862   4.242   6.410   8.426 -0.5223 -0.3558  0.9995
   98SAPS  H15X 9863   4.301   6.316   8.428 -0.0077 -0.0355  1.1025
   98SAPS  H15Y 9864   4.151   6.406   8.490 -0.9595  1.4444  0.5390
   98SAPS  C316 9865   4.339   6.506   8.491 -0.9705 -0.2584 -0.3252
   98SAPS  H16X 9866   4.310   6.609   8.460  1.8546  0.5466 -0.5756
   98SAPS  H16Y 9867   4.435   6.495   8.437 -0.1466  0.4302  0.9439
   98SAPS  C317 9868   4.349   6.494   8.646  0.4732 -0.0919  0.3136
   98SAPS  H17X 9869   4.379   6.390   8.673 -0.2206  0.2804  2.6380
   98SAPS  H17Y 9870   4.246   6.523   8.674 -0.0650 -0.7154 -0.9264
   98SAPS  C318 9871   4.441   6.600   8.707 -0.7260  0.4812  0.1559
   98SAPS  H18X 9872   4.536   6.609   8.650 -1.1907  0.2480 -0.6788
   98SAPS  H18Y 9873   4.473   6.576   8.810 -1.6232  1.5367  0.7035
   98SAPS  H18Z 9874   4.400   6.703   8.709  1.1167  1.2293  1.5372
   99SAPS     N 9875   3.311   3.165   6.196  0.2857  0.4839 -0.7989
   99SAPS   HN1 9876   3.317   3.175   6.299 -0.6373  0.3939 -0.7313
   99SAPS   HN2 9877   3.322   3.266   6.170 -0.7167  0.9263  0.3864
   99SAPS   HN3 9878   3.212   3.143   6.174  0.2978 -2.9334  1.7834
   99SAPS   C12 9879   3.404   3.065   6.135 -0.3581 -0.6564  0.2310
   99SAPS  H12A 9880   3.377   3.062   6.031 -2.1917  1.2819  0.5918
   99SAPS   C13 9881   3.559   3.081   6.147  0.1255 -0.0341  0.1187
   99SAPS  O13A 9882   3.608   3.190   6.196 -0.3016  0.0346 -0.5998
   99SAPS  O13B 9883   3.639   2.997   6.103  0.3678 -0.3770 -0.6023
   99SAPS   C11 9884   3.362   2.934   6.201  0.5810  0.0997  0.2673
   99SAPS  H11A 9885   3.383   2.930   6.311 -3.6477 -0.8780  1.2206
   99SAPS  H11B 9886   3.413   2.846   6.157  1.0263 -0.8524  2.5102
   99SAPS     P 9887   3.168   2.762   6.199 -0.1718 -0.5544 -0.9525
   99SAPS   O13 9888   3.022   2.766   6.223  0.5382 -0.5267 -0.2818
   99SAPS   O14 9889   3.223   2.679   6.093  0.7617  0.8695  0.3794
   99SAPS   O12 9890   3.227   2.905   6.174 -0.0294 -0.6275  0.1338
   99SAPS   O11 9891   3.246   2.725   6.323 -0.2040  0.5971 -0.0288
   99SAPS    C1 9892   3.209   2.777   6.451 -0.0735 -0.1390 -0.3847
   99SAPS    HA 9893   3.226   2.887   6.452 -0.8537 -0.0074 -0.6818
   99SAPS    HB 9894   3.100   2.758   6.467  0.0680 -2.6833 -1.9009
   99SAPS    C2 9895   3.293   2.707   6.563 -0.1600 -0.3089 -0.5344
   99SAPS    HS 9896   3.397   2.743   6.552  0.5753 -1.9897  0.4377
   99SAPS   O21 9897   3.289   2.565   6.538  0.5736 -0.4693 -0.4443
   99SAPS   C21 9898   3.390   2.497   6.583 -0.2318  0.2708 -0.5849
   99SAPS   O22 9899   3.493   2.539   6.621 -0.0276  0.1188  0.1153
   99SAPS   C22 9900   3.354   2.348   6.548 -0.0508  0.3829  0.8319
   99SAPS   H2R 9901   3.262   2.316   6.601 -1.0845  1.0326 -0.5094
   99SAPS   H2S 9902   3.335   2.356   6.439  0.3707 -0.4669  0.6924
   99SAPS    C3 9903   3.243   2.734   6.709 -0.2728 -0.2395  0.6421
   99SAPS    HX 9904   3.159   2.666   6.735  1.0697 -1.9326  0.7035
   99SAPS    HY 9905   3.207   2.838   6.726 -2.6529 -0.5803 -1.7151
   99SAPS   O31 9906   3.346   2.697   6.806  0.3334 -0.2620  0.9691
   99SAPS   C31 9907   3.445   2.794   6.823  0.3135 -0.0982 -0.3668
   99SAPS   O32 9908   3.437   2.909   6.790  0.4547  0.1415 -0.3051
   99SAPS   C32 9909   3.567   2.717   6.879 -0.4276  0.3459 -0.3258
   99SAPS   H2X 9910   3.608   2.664   6.790 -0.3682 -1.1567  0.5542
   99SAPS   H2Y 9911   3.532   2.640   6.952 -0.1556  2.3680  2.0703
   99SAPS   C23 9912   3.473   2.245   6.573  0.6304 -0.1411  0.0540
   99SAPS   H3R 9913   3.570   2.278   6.530 -0.1057  1.5011 -0.4202
   99SAPS   H3S 9914   3.442   2.143   6.544 -1.0080 -0.6706  3.2200
   99SAPS   C24 9915   3.494   2.237   6.729 -0.0452  0.9545  0.2979
   99SAPS   H4R 9916   3.505   2.341   6.767 -1.8845  2.1473 -2.1309
   99SAPS   H4S 9917   3.597   2.198   6.742 -0.3259 -0.4571 -1.3439
   99SAPS   C25 9918   3.399   2.161   6.822  0.8592 -0.8574  0.9226
   99SAPS   H5R 9919   3.384   2.054   6.799  1.2753 -0.9925  1.2714
   99SAPS   C26 9920   3.341   2.209   6.932 -0.1605 -0.4271 -0.4531
   99SAPS   H6R 9921   3.266   2.151   6.988 -1.8842  1.1982 -0.9690
   99SAPS   C27 9922   3.358   2.350   6.987 -0.0092 -0.2813 -0.5022
   99SAPS   H7R 9923   3.324   2.426   6.913 -1.0882  0.8691  1.1154
   99SAPS   H7S 9924   3.463   2.374   7.016  0.3153 -0.0729 -1.7814
   99SAPS   C28 9925   3.290   2.375   7.117 -0.0607  0.0899 -0.9723
   99SAPS   H8R 9926   3.184   2.344   7.118  0.0628 -0.6620 -3.3322
   99SAPS   C29 9927   3.342   2.411   7.237 -0.3962  0.0585  0.0037
   99SAPS   H9R 9928   3.269   2.451   7.309 -2.3341  1.0054 -2.3630
   99SAPS  C210 9929   3.488   2.446   7.268  0.5242 -0.3263  0.3777
   99SAPS  H10R 9930   3.533   2.526   7.207 -0.1440  0.5494  1.0057
   99SAPS  H10S 9931   3.547   2.356   7.239 -0.3930 -0.7433 -0.2708
   99SAPS  C211 9932   3.496   2.463   7.420 -0.8400 -0.5531 -0.3800
   99SAPS  H11R 9933   3.462   2.372   7.473 -0.4976 -1.2268 -1.2850
   99SAPS  C212 9934   3.511   2.581   7.480 -0.5393  0.3368  0.1074
   99SAPS  H12R 9935   3.524   2.589   7.589 -0.8311  1.6414  0.0731
   99SAPS  C213 9936   3.535   2.715   7.426  0.3215 -0.4479 -0.9561
   99SAPS  H13R 9937   3.483   2.733   7.329  2.4097  0.2500 -2.0029
   99SAPS  H13S 9938   3.644   2.727   7.405 -0.2072  1.5447 -2.9853
   99SAPS  C214 9939   3.494   2.816   7.531 -0.1631  0.3387  0.4086
   99SAPS  H14R 9940   3.581   2.844   7.592  0.0216  1.7639 -0.4709
   99SAPS  C215 9941   3.376   2.873   7.558  0.2339 -0.8080  0.0723
   99SAPS  H15R 9942   3.373   2.961   7.624 -1.7155 -1.5106  0.9931
   99SAPS  C216 9943   3.255   2.849   7.477  1.0973  0.4378  0.1031
   99SAPS  H16R 9944   3.281   2.775   7.399  3.4873  0.0451  1.1995
   99SAPS  H16S 9945   3.223   2.946   7.432  1.5306  1.1167  1.2201
   99SAPS  C217 9946   3.134   2.790   7.557  0.4559 -0.2880  0.6736
   99SAPS  H17R 9947   3.115   2.830   7.659 -3.4774 -1.5064  0.5960
   99SAPS  H17S 9948   3.163   2.686   7.581 -2.2558 -0.9731  1.3027
   99SAPS  C218 9949   3.001   2.797   7.486  0.2096 -0.1325 -0.0093
   99SAPS  H18R 9950   2.994   2.718   7.408  0.6106 -0.3753  0.1996
   99SAPS  H18S 9951   2.987   2.903   7.455  1.0388  0.9619  3.0165
   99SAPS  C219 9952   2.884   2.750   7.576 -0.2608  0.1259 -0.6096
   99SAPS  H19R 9953   2.795   2.746   7.510 -0.8386  0.7568  0.1193
   99SAPS  H19S 9954   2.863   2.833   7.647  1.7491 -0.3216  0.6108
   99SAPS  C220 9955   2.896   2.621   7.653  0.2170  0.0639 -0.3215
   99SAPS  H20R 9956   2.909   2.531   7.589 -3.1997 -0.6576 -0.1679
   99SAPS  H20S 9957   2.807   2.587   7.710  0.6191 -2.5321 -1.0880
   99SAPS  H20T 9958   2.978   2.622   7.729 -1.7941  1.0292  1.9515
   99SAPS   C33 9959   3.667   2.825   6.936  0.0731 -0.0941  0.5121
   99SAPS   H3X 9960   3.702   2.898   6.859  1.1736 -0.9400  0.1732
   99SAPS   H3Y 9961   3.753   2.768   6.977  0.4849 -0.7812 -1.2173
   99SAPS   C34 9962   3.612   2.897   7.064 -0.2075 -0.1383  0.5601
   99SAPS   H4X 9963   3.600   2.817   7.140 -1.5577 -1.2805 -0.7728
   99SAPS   H4Y 9964   3.513   2.942   7.044  1.0954  2.6216 -0.1682
   99SAPS   C35 9965   3.716   2.990   7.128  0.2786  0.4888  0.1278
   99SAPS   H5X 9966   3.738   3.079   7.065  0.3545  0.9087  0.7432
   99SAPS   H5Y 9967   3.811   2.938   7.151 -0.7229  0.3213  4.7138
   99SAPS   C36 9968   3.698   3.035   7.271  0.8412 -0.2475  0.2390
   99SAPS   H6X 9969   3.791   3.079   7.314  0.0905  1.3937  0.2796
   99SAPS   H6Y 9970   3.676   2.948   7.337 -3.0117  0.5883  0.2655
   99SAPS   C37 9971   3.586   3.139   7.286  0.3273 -0.2241 -0.0935
   99SAPS   H7X 9972   3.494   3.080   7.266  0.2401 -0.7581  1.6937
   99SAPS   H7Y 9973   3.605   3.217   7.209 -1.3086 -0.0625 -0.3622
   99SAPS   C38 9974   3.552   3.215   7.412 -0.2578 -0.5060 -0.1413
   99SAPS   H8X 9975   3.632   3.291   7.428 -0.3223 -0.4644 -0.0150
   99SAPS   H8Y 9976   3.558   3.148   7.500  1.3987  0.6537  0.6874
   99SAPS   C39 9977   3.422   3.295   7.417  0.1803  0.3496  0.2188
   99SAPS   H9X 9978   3.335   3.228   7.409 -1.1697  2.2683 -2.8003
   99SAPS   H9Y 9979   3.414   3.355   7.324 -1.1431 -1.7095 -1.0657
   99SAPS  C310 9980   3.404   3.384   7.542  0.1426  0.4632  0.3080
   99SAPS  H10X 9981   3.415   3.492   7.522 -0.1595  0.6080  0.8986
   99SAPS  H10Y 9982   3.483   3.364   7.618  2.0436 -1.4966 -2.0060
   99SAPS  C311 9983   3.263   3.370   7.602 -0.1945  0.1098  0.1413
   99SAPS  H11X 9984   3.259   3.266   7.639  1.2081  0.0413  0.1363
   99SAPS  H11Y 9985   3.186   3.382   7.522 -0.7087 -0.7473  0.4968
   99SAPS  C312 9986   3.250   3.462   7.724 -0.2454 -0.5003  0.1864
   99SAPS  H12X 9987   3.304   3.555   7.695 -0.1148 -0.3774  0.8134
   99SAPS  H12Y 9988   3.290   3.412   7.815 -2.6352 -1.9295  0.5339
   99SAPS  C313 9989   3.096   3.478   7.744  0.0641  0.2143 -0.4263
   99SAPS  H13X 9990   3.041   3.382   7.732  0.0193  0.2990 -0.9009
   99SAPS  H13Y 9991   3.041   3.534   7.666  0.7385  1.3669 -0.0933
   99SAPS  C314 9992   3.069   3.539   7.873  0.6496 -0.9026 -0.3489
   99SAPS  H14X 9993   3.093   3.648   7.871 -1.1857 -0.4791 -0.8722
   99SAPS  H14Y 9994   3.131   3.493   7.953 -0.3446 -1.5794  0.0659
   99SAPS  C315 9995   2.923   3.523   7.912  0.4973 -0.1208  0.3473
   99SAPS  H15X 9996   2.890   3.418   7.909 -0.3948  0.1721 -0.8909
   99SAPS  H15Y 9997   2.878   3.581   7.828  1.4444 -0.0313 -0.1227
   99SAPS  C316 9998   2.899   3.591   8.048 -0.1022  0.2531 -0.8795
   99SAPS  H16X 9999   2.957   3.686   8.052 -0.8715  0.6931  1.1382
   99SAPS  H16Y10000   2.945   3.530   8.128  1.4865  2.8882  0.3762
   99SAPS  C31710001   2.752   3.611   8.069  1.2459 -0.1006 -0.0180
   99SAPS  H17X10002   2.715   3.697   8.009  0.4610 -0.4113  0.0114
   99SAPS  H17Y10003   2.735   3.658   8.168  2.2939  0.7884 -0.2425
   99SAPS  C31810004   2.659   3.494   8.046 -1.0501  0.5722 -0.1698
   99SAPS  H18X10005   2.558   3.523   8.083 -1.2479 -0.1024 -0.1733
   99SAPS  H18Y10006   2.700   3.405   8.098  1.8169  0.6506 -2.1132
   99SAPS  H18Z10007   2.649   3.462   7.940 -2.0003 -1.8241  0.5714
  100SAPS     N10008   2.079   0.053   6.015  0.4202 -0.1105 -0.6301
  100SAPS   HN110009   2.124   0.089   5.929  3.2002 -3.4450 -0.7964
  100SAPS   HN210010   2.018   0.126   6.057  0.7377 -0.0134 -0.3296
  100SAPS   HN310011   2.169   0.026   6.060  0.6652  0.0191 -1.0420
  100SAPS   C1210012   2.009  -0.074   5.992  0.4566 -0.3283 -0.0843
  100SAPS  H12A10013   1.905  -0.057   5.967  0.4440 -1.6415 -1.0523
  100SAPS   C1310014   2.062  -0.160   5.881 -0.3369  0.1240  0.0481
  100SAPS  O13A10015   2.162  -0.122   5.819 -0.5142  0.6764  0.4503
  100SAPS  O13B10016   2.036  -0.287   5.882 -0.4659 -0.7723 -0.4612
  100SAPS   C1110017   2.003  -0.171   6.118 -0.4443  0.5408  0.2196
  100SAPS  H11A10018   2.100  -0.215   6.149 -0.1321  0.6300 -0.5862
  100SAPS  H11B10019   1.935  -0.253   6.087  2.0888 -2.2058  1.4407
  100SAPS     P10020   1.864  -0.178   6.348 -0.3826  0.3631 -0.1216
  100SAPS   O1310021   1.725  -0.190   6.294  0.3572 -0.2419 -0.2265
  100SAPS   O1410022   1.939  -0.300   6.386  1.0664  0.2496  0.1974
  100SAPS   O1210023   1.950  -0.104   6.240 -0.4918  0.2806 -0.1447
  100SAPS   O1110024   1.869  -0.079   6.473 -1.0206 -0.1398  0.4996
  100SAPS    C110025   1.976   0.005   6.507 -0.1815 -0.9681  0.1329
  100SAPS    HA10026   2.071  -0.051   6.494  0.6971  0.9590 -3.1103
  100SAPS    HB10027   1.987   0.093   6.440  1.1665  0.0427  1.6082
  100SAPS    C210028   1.971   0.049   6.658  0.7530 -0.3089  0.4823
  100SAPS    HS10029   2.069   0.088   6.695 -0.6558  1.7831  2.3030
  100SAPS   O2110030   1.923  -0.055   6.740 -0.1072 -0.0058 -0.0599
  100SAPS   C2110031   2.007  -0.159   6.752  0.4404  0.0788 -0.5314
  100SAPS   O2210032   2.119  -0.163   6.706 -0.1748  0.6701 -0.3869
  100SAPS   C2210033   1.935  -0.285   6.820  0.4687 -0.7345 -0.3565
  100SAPS   H2R10034   1.837  -0.297   6.768 -0.6075 -3.1771  1.9663
  100SAPS   H2S10035   2.002  -0.372   6.802 -0.4823 -2.0988  2.1132
  100SAPS    C310036   1.871   0.170   6.689 -0.2927  0.1366  0.4831
  100SAPS    HX10037   1.772   0.136   6.650  0.5915 -0.1124 -1.7326
  100SAPS    HY10038   1.893   0.248   6.613 -0.6078 -0.4489 -0.2264
  100SAPS   O3110039   1.885   0.211   6.829 -0.0687  0.3512  0.5141
  100SAPS   C3110040   1.770   0.204   6.904  0.3566  0.4766  1.0711
  100SAPS   O3210041   1.658   0.205   6.858 -0.2829 -0.1660 -0.1368
  100SAPS   C3210042   1.804   0.201   7.051 -0.5087  0.1454  0.0339
  100SAPS   H2X10043   1.846   0.301   7.074  1.0489 -0.6000  0.5294
  100SAPS   H2Y10044   1.896   0.139   7.060  0.4255  1.6685  1.5844
  100SAPS   C2310045   1.901  -0.253   6.963  0.6313  0.1312 -0.5074
  100SAPS   H3R10046   1.822  -0.329   6.980  0.7347 -0.0793 -0.9598
  100SAPS   H3S10047   1.848  -0.156   6.973  0.6175 -0.0046  1.0065
  100SAPS   C2410048   2.015  -0.281   7.068  0.4498  0.7368  0.1527
  100SAPS   H4R10049   2.071  -0.375   7.047 -2.1745 -1.0732  0.6547
  100SAPS   H4S10050   1.970  -0.306   7.167  0.7982  1.4384  0.4924
  100SAPS   C2510051   2.120  -0.170   7.077  0.3347  0.0883 -0.6649
  100SAPS   H5R10052   2.194  -0.168   6.995  0.4423 -3.7836 -0.8239
  100SAPS   C2610053   2.138  -0.074   7.171 -0.3042 -0.0795  0.6421
  100SAPS   H6R10054   2.205   0.012   7.153 -0.5568  0.8744  3.6637
  100SAPS   C2710055   2.052  -0.058   7.290  0.1717  0.0097 -0.2180
  100SAPS   H7R10056   1.979  -0.141   7.302 -0.0399  0.0117 -1.3675
  100SAPS   H7S10057   1.993   0.036   7.278 -1.1693 -0.9906 -1.9105
  100SAPS   C2810058   2.138  -0.028   7.415 -0.5507 -0.8563  0.4361
  100SAPS   H8R10059   2.181  -0.122   7.454  0.6200  0.0103  1.2986
  100SAPS   C2910060   2.156   0.084   7.481  0.2341 -1.0516  0.2025
  100SAPS   H9R10061   2.205   0.074   7.579 -0.1527  2.3208  0.8875
  100SAPS  C21010062   2.095   0.218   7.452 -0.0916  0.0473  0.0332
  100SAPS  H10R10063   1.984   0.205   7.457 -0.2495  1.6694  2.0156
  100SAPS  H10S10064   2.116   0.250   7.348 -0.2216  0.2743  0.0778
  100SAPS  C21110065   2.145   0.319   7.554  0.2812  0.3266  0.3061
  100SAPS  H11R10066   2.211   0.403   7.526 -0.8384  2.2211  2.8881
  100SAPS  C21210067   2.124   0.311   7.686  0.7772 -0.9324 -0.4047
  100SAPS  H12R10068   2.162   0.396   7.744  2.6946  0.2024 -3.1490
  100SAPS  C21310069   2.047   0.208   7.763  1.0661 -1.1855  0.1355
  100SAPS  H13R10070   1.995   0.140   7.692 -0.1634  0.9980 -1.1552
  100SAPS  H13S10071   1.970   0.267   7.816 -0.6272 -0.3724 -2.9731
  100SAPS  C21410072   2.142   0.136   7.851  0.3924  0.3029 -0.5419
  100SAPS  H14R10073   2.182   0.044   7.805 -1.4847 -0.4599 -0.7621
  100SAPS  C21510074   2.187   0.174   7.972  0.0521  0.6169 -0.0348
  100SAPS  H15R10075   2.277   0.124   8.010  1.0596  2.7663  0.5415
  100SAPS  C21610076   2.153   0.304   8.042 -0.6529 -0.6077  0.0564
  100SAPS  H16R10077   2.045   0.325   8.027 -0.7473 -1.8781 -1.2218
  100SAPS  H16S10078   2.219   0.388   8.012 -0.5801 -0.1564  1.3856
  100SAPS  C21710079   2.160   0.298   8.199  0.1930  0.0101 -0.1360
  100SAPS  H17R10080   2.251   0.240   8.226  0.3632  0.5821  0.5480
  100SAPS  H17S10081   2.085   0.223   8.231  0.9732 -0.7483 -0.0601
  100SAPS  C21810082   2.151   0.433   8.272 -0.8950 -0.2125  0.0934
  100SAPS  H18R10083   2.063   0.487   8.232 -2.4044 -0.9292  2.2752
  100SAPS  H18S10084   2.235   0.493   8.231  0.4166  0.4165  3.4119
  100SAPS  C21910085   2.157   0.435   8.432  0.9240 -0.1703 -0.1315
  100SAPS  H19R10086   2.075   0.370   8.470  0.8627  1.3098  2.5226
  100SAPS  H19S10087   2.134   0.532   8.482  0.3373 -1.8080  3.0522
  100SAPS  C22010088   2.276   0.374   8.504  0.2699  0.1879  0.3510
  100SAPS  H20R10089   2.263   0.264   8.491  2.0498 -0.0226  0.1498
  100SAPS  H20S10090   2.268   0.402   8.612 -0.2058 -1.3748  0.7494
  100SAPS  H20T10091   2.373   0.405   8.462  0.2432 -0.9920 -0.6362
  100SAPS   C3310092   1.684   0.167   7.150 -0.9051 -0.8600  0.0838
  100SAPS   H3X10093   1.636   0.067   7.144 -1.8095 -0.5924  2.1067
  100SAPS   H3Y10094   1.609   0.244   7.125 -0.0856 -0.0860 -0.0683
  100SAPS   C3410095   1.728   0.179   7.295  0.2278 -0.4984  0.2135
  100SAPS   H4X10096   1.770   0.281   7.309 -0.7502 -0.0274 -0.1474
  100SAPS   H4Y10097   1.810   0.105   7.305  0.5273 -0.7567 -3.0188
  100SAPS   C3510098   1.610   0.183   7.397 -0.2880 -0.0441 -0.1778
  100SAPS   H5X10099   1.569   0.079   7.403  1.3808 -0.6740  1.1698
  100SAPS   H5Y10100   1.524   0.246   7.366 -0.0507 -0.8228 -2.6118
  100SAPS   C3610101   1.656   0.227   7.537 -0.2364 -0.4100 -0.2181
  100SAPS   H6X10102   1.701   0.327   7.523  0.7541 -0.9046 -0.6713
  100SAPS   H6Y10103   1.734   0.159   7.575 -0.7784 -0.8735  0.0783
  100SAPS   C3710104   1.545   0.242   7.631  1.0316  0.6958 -0.3056
  100SAPS   H7X10105   1.487   0.149   7.648  0.2268  1.0019 -1.3071
  100SAPS   H7Y10106   1.478   0.323   7.598  2.0995  2.1412  0.8965
  100SAPS   C3810107   1.592   0.278   7.774 -0.1089  0.1297  0.3122
  100SAPS   H8X10108   1.636   0.380   7.774 -0.4730  0.3550 -2.1340
  100SAPS   H8Y10109   1.664   0.197   7.798  0.1914 -0.6842 -2.9422
  100SAPS   C3910110   1.478   0.269   7.876  0.2981 -0.4599  0.0301
  100SAPS   H9X10111   1.411   0.199   7.823  1.2280 -0.5644 -1.0338
  100SAPS   H9Y10112   1.419   0.362   7.883 -0.9417 -1.1275 -1.1390
  100SAPS  C31010113   1.520   0.222   8.020  0.1624  0.0406 -0.2476
  100SAPS  H10X10114   1.599   0.147   7.997 -0.8243 -0.2782 -2.9006
  100SAPS  H10Y10115   1.430   0.174   8.063 -1.9941  1.4317 -2.8633
  100SAPS  C31110116   1.565   0.339   8.107 -0.7042  0.1921 -0.0803
  100SAPS  H11X10117   1.479   0.396   8.148 -0.2324 -0.7869  2.4512
  100SAPS  H11Y10118   1.634   0.403   8.048 -0.1177  1.6835  2.1309
  100SAPS  C31210119   1.652   0.296   8.233 -0.2697 -0.1982 -0.4717
  100SAPS  H12X10120   1.682   0.390   8.286 -1.7089  0.3155 -0.5079
  100SAPS  H12Y10121   1.747   0.246   8.206  0.3883 -0.2165  1.6519
  100SAPS  C31310122   1.571   0.209   8.333 -1.2432 -0.2575  0.6298
  100SAPS  H13X10123   1.517   0.125   8.286 -1.9018  0.1410  0.6527
  100SAPS  H13Y10124   1.486   0.268   8.375  0.1584  1.3377  1.3831
  100SAPS  C31410125   1.663   0.160   8.446 -0.2505  0.3199  0.6267
  100SAPS  H14X10126   1.601   0.107   8.522  0.0170 -2.2395 -0.8018
  100SAPS  H14Y10127   1.712   0.244   8.499 -0.1215  0.4214  0.3476
  100SAPS  C31510128   1.759   0.049   8.406 -0.2671 -0.3152  0.9220
  100SAPS  H15X10129   1.844   0.103   8.360 -0.4377  0.0246  0.9986
  100SAPS  H15Y10130   1.706  -0.011   8.329 -2.8889  0.8063  1.7255
  100SAPS  C31610131   1.800  -0.053   8.515  0.5344 -0.0570 -0.1806
  100SAPS  H16X10132   1.827   0.016   8.598 -2.1906  0.3132  0.4890
  100SAPS  H16Y10133   1.895  -0.106   8.492  1.4354 -0.5361  3.8579
  100SAPS  C31710134   1.691  -0.154   8.554  0.1408 -0.4827 -0.5741
  100SAPS  H17X10135   1.683  -0.234   8.476 -2.2950 -0.3403 -0.5252
  100SAPS  H17Y10136   1.591  -0.106   8.545  0.1659 -0.1831  0.6641
  100SAPS  C31810137   1.718  -0.218   8.688 -0.0447  0.1172 -0.2045
  100SAPS  H18X10138   1.813  -0.276   8.679 -2.0474 -3.3876 -0.4612
  100SAPS  H18Y10139   1.636  -0.289   8.714 -0.3812 -0.4351 -2.5942
  100SAPS  H18Z10140   1.736  -0.139   8.764  0.4477 -0.2659  0.0881
  101OSM      N10141   1.414   3.957  10.901  0.0719  0.7164  0.1378
  101OSM    C1510142   1.560   4.004  10.878 -0.1164 -0.5441 -0.3185
  101OSM   H15A10143   1.616   3.919  10.841  0.8784 -0.6655  1.3540
  101OSM   H15B10144   1.608   4.028  10.972  0.8323  0.5964 -1.0777
  101OSM   H15C10145   1.573   4.090  10.815 -0.4784  0.3767  0.8373
  101OSM    C1410146   1.427   3.837  10.993 -0.2419 -0.4379 -0.4712
  101OSM   H14A10147   1.471   3.860  11.089  0.2906  1.0528 -1.0424
  101OSM   H14B10148   1.486   3.759  10.947  0.3382 -0.0044 -0.4793
  101OSM   H14C10149   1.332   3.791  11.015 -0.0572 -0.4226  0.3909
  101OSM    C1310150   1.335   4.062  10.961  0.0927 -0.0207  0.6457
  101OSM   H13A10151   1.231   4.036  10.977 -0.2126  1.3728  1.0832
  101OSM   H13B10152   1.332   4.155  10.906  3.1995  0.1994  0.7177
  101OSM   H13C10153   1.370   4.094  11.058 -1.2738  0.2714  1.0760
  101OSM    C1210154   1.362   3.922  10.759  0.7850 -0.1509 -0.1739
  101OSM   H12A10155   1.431   3.860  10.703  0.6930  0.0548 -0.5198
  101OSM   H12B10156   1.357   4.014  10.702 -0.0095  0.1878  0.4359
  101OSM    C1110157   1.215   3.875  10.759  0.5212 -0.0670 -0.5406
  101OSM   H11A10158   1.167   3.889  10.660 -1.4429  0.4812  0.4317
  101OSM   H11B10159   1.164   3.949  10.825  3.8556  0.3828  1.8184
  101OSM      P10160   1.264   3.622  10.753 -0.5004 -0.0966  0.2261
  101OSM    O1310161   1.407   3.638  10.760 -0.4044 -0.5918  0.2763
  101OSM    O1410162   1.204   3.506  10.812 -0.0412  0.1302 -0.1045
  101OSM    O1110163   1.228   3.642  10.601  0.3677  0.6780  0.0793
  101OSM    O1210164   1.197   3.751  10.822  0.0991 -0.1733 -0.1041
  101OSM    C1S10165   1.084   3.631  10.578  0.2522  0.5183  0.4218
  101OSM    H1S10166   1.024   3.687  10.652 -1.1276  0.9194 -0.9658
  101OSM    H1T10167   1.054   3.525  10.590  1.9655  0.0175  0.5879
  101OSM     NF10168   0.909   3.704  10.417  0.2065 -0.3202 -0.4306
  101OSM    HNF10169   0.858   3.644  10.355 -2.1261 -0.9156  1.8806
  101OSM    C2S10170   1.053   3.678  10.435 -0.1820 -0.0473  0.0771
  101OSM    H2S10171   1.098   3.779  10.421 -0.7353 -0.0786 -2.1780
  101OSM    C3S10172   1.101   3.573  10.331 -0.0533  0.4101  0.4356
  101OSM    H3S10173   1.049   3.477  10.350 -0.1377  0.3729  0.0267
  101OSM     O310174   1.237   3.529  10.360 -0.4503  0.5247  0.1141
  101OSM    HO310175   1.247   3.570  10.447 -1.6204 -0.0681  0.5550
  101OSM    C4S10176   1.083   3.621  10.182  0.4838  0.3459  0.8440
  101OSM    H4S10177   1.005   3.568  10.125  2.8407  1.9250 -4.5483
  101OSM    C5S10178   1.160   3.704  10.106  0.1393  0.8362  0.4559
  101OSM    H5S10179   1.263   3.725  10.137  0.6883 -0.3391 -0.4714
  101OSM    C6S10180   1.132   3.731   9.962  0.3555  0.2316  0.3193
  101OSM    H6S10181   1.226   3.737   9.902 -1.4051  1.1870 -2.5176
  101OSM    H6T10182   1.093   3.835   9.956 -0.1320  0.1883  2.1107
  101OSM    C7S10183   1.035   3.630   9.888  0.3036 -0.5323 -0.3185
  101OSM    H7S10184   0.933   3.630   9.931  0.1638  1.1498 -0.5869
  101OSM    H7T10185   1.085   3.532   9.902  0.2237 -0.6337 -0.7278
  101OSM    C8S10186   1.029   3.664   9.741  1.0215 -0.2620  0.0869
  101OSM    H8S10187   1.126   3.656   9.688  0.6134  1.7979 -1.1062
  101OSM    H8T10188   1.011   3.774   9.746 -0.9287 -0.5890  0.9347
  101OSM    C9S10189   0.910   3.592   9.676 -0.1134 -0.1846 -0.2627
  101OSM    H9S10190   0.813   3.611   9.726 -0.1024  0.0737 -0.3390
  101OSM    H9T10191   0.929   3.484   9.690 -2.1071 -0.3621  1.5550
  101OSM   C10S10192   0.905   3.623   9.527  0.3312 -0.1772  0.6221
  101OSM   H10S10193   1.007   3.584   9.509  0.5605  0.2851  0.8935
  101OSM   H10T10194   0.899   3.733   9.515  2.0778  0.3675  3.7822
  101OSM   C11S10195   0.785   3.553   9.453  0.5001 -0.0434 -0.9122
  101OSM   H11S10196   0.690   3.595   9.490  1.1689  1.3853 -0.7679
  101OSM   H11T10197   0.788   3.447   9.485 -0.2849  0.5796  1.4026
  101OSM   C12S10198   0.773   3.577   9.300 -0.0214  0.7983  0.0201
  101OSM   H12S10199   0.867   3.545   9.250 -1.0036  1.5524 -2.4849
  101OSM   H12T10200   0.760   3.685   9.280 -1.2661  0.4774 -1.0933
  101OSM   C13S10201   0.654   3.500   9.239  0.6056  0.2102 -0.1004
  101OSM   H13S10202   0.565   3.549   9.283  1.0382  0.1256  0.8926
  101OSM   H13T10203   0.657   3.397   9.282  0.1686  1.1529  2.3369
  101OSM   C14S10204   0.632   3.516   9.088  0.7580  0.1686 -0.0347
  101OSM   H14S10205   0.535   3.482   9.046 -0.1202 -1.1615  2.8042
  101OSM   H14T10206   0.719   3.470   9.038  0.8719  1.5776 -1.1855
  101OSM   C15S10207   0.638   3.669   9.041 -0.0583  0.5276 -0.0374
  101OSM   H15S10208   0.738   3.707   9.072 -0.3145  1.6146 -0.5061
  101OSM   H15T10209   0.561   3.730   9.093  1.6757  1.0489  2.0740
  101OSM   C16S10210   0.627   3.693   8.889 -0.8990 -0.4838 -0.1654
  101OSM   H16S10211   0.525   3.655   8.863 -0.2400 -1.0461 -2.1482
  101OSM   H16T10212   0.699   3.631   8.832 -0.6355 -0.3936  0.0718
  101OSM   C17S10213   0.644   3.840   8.845  0.1772 -0.4480  0.5098
  101OSM   H17S10214   0.746   3.874   8.872 -0.1758  1.3206 -0.2066
  101OSM   H17T10215   0.569   3.904   8.897  0.3809  0.8287 -0.6890
  101OSM   C18S10216   0.635   3.852   8.693 -0.3572 -0.7510  0.1011
  101OSM   H18S10217   0.528   3.833   8.667 -0.1713 -0.5320 -0.8531
  101OSM   H18T10218   0.694   3.777   8.637 -0.8181 -2.1242  1.3769
  101OSM   H18U10219   0.661   3.953   8.655  0.9464 -0.7769  0.8799
  101OSM    C1F10220   0.846   3.809  10.474 -0.1720  0.5699 -0.4323
  101OSM     OF10221   0.902   3.895  10.542  0.1055 -0.1183  0.4871
  101OSM    C2F10222   0.700   3.809  10.469  0.0955  0.0589  0.5464
  101OSM    H2F10223   0.654   3.847  10.562  2.2470  3.3400  0.4212
  101OSM    H2G10224   0.676   3.701  10.456 -1.4310  0.5178 -0.7935
  101OSM    C3F10225   0.645   3.889  10.353 -0.2219  0.1710 -0.1452
  101OSM    H3F10226   0.692   3.990  10.353  1.4807 -0.5044  2.4110
  101OSM    H3G10227   0.539   3.910  10.376 -1.1668 -2.4583 -1.7413
  101OSM    C4F10228   0.658   3.828  10.216 -0.0760 -0.0485 -0.1976
  101OSM    H4F10229   0.604   3.733  10.197  2.6582 -1.3767 -2.1127
  101OSM    H4G10230   0.764   3.811  10.186 -0.5472 -1.9960 -0.8836
  101OSM    C5F10231   0.586   3.913  10.107 -0.1872 -0.0492 -0.5440
  101OSM    H5F10232   0.619   4.019  10.117 -4.8604  1.7914 -1.5691
  101OSM    H5G10233   0.475   3.919  10.112 -0.1888  2.1310 -1.7814
  101OSM    C6F10234   0.620   3.875   9.963 -0.4947  0.3104 -0.8721
  101OSM    H6F10235   0.590   3.768   9.959 -0.5287  0.0920  2.3258
  101OSM    H6G10236   0.730   3.867   9.946 -0.1274  0.4269  1.1748
  101OSM    C7F10237   0.554   3.950   9.851 -0.2063 -0.1568  0.0661
  101OSM    H7F10238   0.585   4.054   9.875 -0.3817 -0.3994  1.4555
  101OSM    H7G10239   0.443   3.951   9.854 -0.2514  0.8944 -1.1823
  101OSM    C8F10240   0.598   3.922   9.706 -0.1734  0.0906 -0.0917
  101OSM    H8F10241   0.546   3.829   9.676 -2.3111  1.3434 -0.4633
  101OSM    H8G10242   0.708   3.907   9.701 -0.1832 -1.1868  2.1687
  101OSM    C9F10243   0.561   4.036   9.613 -0.2126 -0.1713  0.1476
  101OSM    H9F10244   0.567   4.133   9.665  2.2415 -0.3532  0.2951
  101OSM   C10F10245   0.531   4.038   9.476  0.4263  0.5740 -0.4514
  101OSM   H10F10246   0.500   4.136   9.436 -1.3518  0.7040  1.0879
  101OSM   C11F10247   0.524   3.916   9.387  0.7863 -0.0729  0.0334
  101OSM   H11F10248   0.615   3.857   9.409  1.0009  0.5785  0.9796
  101OSM   H11G10249   0.530   3.941   9.279 -0.5023  1.1243  0.2081
  101OSM   C12F10250   0.397   3.834   9.407  0.8855  0.7679 -0.3286
  101OSM   H12F10251   0.380   3.818   9.516 -0.1612  0.2812 -0.5613
  101OSM   H12G10252   0.419   3.740   9.352  2.6983  0.7970  0.2674
  101OSM   C13F10253   0.265   3.887   9.341 -0.3614  0.4286  0.0395
  101OSM   H13F10254   0.236   3.981   9.393  1.9408  1.6196 -0.6575
  101OSM   H13G10255   0.186   3.810   9.349  2.2622 -2.7812 -2.3217
  101OSM   C14F10256   0.282   3.911   9.190  0.2153  0.1869  0.7665
  101OSM   H14F10257   0.353   3.835   9.151  0.8882  1.4764 -0.6211
  101OSM   H14G10258   0.325   4.010   9.166  0.8749  0.0213  1.2480
  101OSM   C15F10259   0.155   3.883   9.105  0.2511  0.1196 -0.0595
  101OSM   H15F10260   0.172   3.889   8.995  1.8654  0.4447  0.1894
  101OSM   H15G10261   0.086   3.964   9.135  2.2188  1.3186  1.4133
  101OSM   C16F10262   0.081   3.743   9.114  0.5973 -0.2076  0.9117
  101OSM   H16F10263   0.018   3.740   9.206 -0.5871  1.8586  0.2212
  101OSM   H16G10264   0.151   3.657   9.111  0.1561 -0.5728  1.0035
  101OSM   C17F10265  -0.020   3.727   9.000 -0.6476 -0.1045 -0.4700
  101OSM   H17F10266   0.047   3.719   8.911 -0.5467  1.1882 -0.5337
  101OSM   H17G10267  -0.079   3.821   9.002  0.7520  0.8043  0.9743
  101OSM   C18F10268  -0.105   3.594   9.006 -0.4027 -0.1438 -0.1826
  101OSM   H18F10269  -0.184   3.599   8.928 -1.4641  0.3191  0.8830
  101OSM   H18G10270  -0.142   3.574   9.109  0.4000  1.7623  0.5098
  101OSM   H18H10271  -0.040   3.506   8.989 -0.3435  0.0963 -1.2536
  102OSM      N10272   1.026   2.962  11.019 -0.1161 -0.7815  0.0364
  102OSM    C1510273   1.131   3.051  10.977 -0.3840 -0.1419 -0.1556
  102OSM   H15A10274   1.195   3.073  11.062 -0.8659 -1.3848  0.5617
  102OSM   H15B10275   1.102   3.147  10.937  2.8572  0.6303 -0.9591
  102OSM   H15C10276   1.204   3.011  10.908  1.9973  0.0618  2.0509
  102OSM    C1410277   1.086   2.864  11.118 -0.5452 -0.1301  0.3010
  102OSM   H14A10278   1.003   2.805  11.154 -0.0676 -1.4273 -0.6336
  102OSM   H14B10279   1.143   2.910  11.197 -0.3105 -0.6381  0.4301
  102OSM   H14C10280   1.153   2.801  11.060 -0.7793 -1.7493  1.7156
  102OSM    C1310281   0.936   3.055  11.097  0.0796  0.1755  0.8041
  102OSM   H13A10282   0.867   2.993  11.152  1.0680 -0.0157  1.8484
  102OSM   H13B10283   0.883   3.110  11.020  0.6948 -2.2053 -1.4630
  102OSM   H13C10284   0.986   3.117  11.170  0.1367 -1.7480  2.4844
  102OSM    C1210285   0.950   2.887  10.915 -0.8222  0.3655  0.5551
  102OSM   H12A10286   0.872   2.833  10.968  1.7438 -4.0217  0.3523
  102OSM   H12B10287   1.006   2.814  10.859 -1.0316  0.9717 -0.4711
  102OSM    C1110288   0.865   2.970  10.817 -0.3837  0.2358 -0.2989
  102OSM   H11A10289   0.883   2.928  10.715 -0.6016  1.5770 -0.9207
  102OSM   H11B10290   0.896   3.076  10.820 -1.8843  0.6727  0.6856
  102OSM      P10291   0.613   2.873  10.813 -0.1183  0.2730  0.0514
  102OSM    O1310292   0.626   2.726  10.828 -0.2357  0.7682 -0.0725
  102OSM    O1410293   0.489   2.928  10.879 -0.4564 -0.2068 -0.2009
  102OSM    O1110294   0.616   2.911  10.663  0.2379 -0.5204  0.4789
  102OSM    O1210295   0.733   2.953  10.866 -0.1627 -0.0022 -0.3945
  102OSM    C1S10296   0.487   2.934  10.591 -0.0324 -0.3680  0.2060
  102OSM    H1S10297   0.432   3.021  10.632  1.9491  0.6096  0.9253
  102OSM    H1T10298   0.416   2.848  10.600 -2.7278  1.5642 -1.1827
  102OSM     NF10299   0.373   2.967  10.380 -0.7826 -0.2628  0.6322
  102OSM    HNF10300   0.328   2.887  10.342 -0.7539 -0.1487  0.3569
  102OSM    C2S10301   0.499   2.943  10.437 -0.3226 -0.7675 -0.1687
  102OSM    H2S10302   0.558   3.032  10.409 -1.0816 -0.7824 -1.8724
  102OSM    C3S10303   0.583   2.830  10.369 -0.1806 -0.1352  0.4961
  102OSM    H3S10304   0.536   2.729  10.368 -0.0365 -0.2068 -0.5582
  102OSM     O310305   0.715   2.810  10.430 -0.0390  0.1156  0.5724
  102OSM    HO310306   0.729   2.857  10.512  1.0535 -0.2425  0.6130
  102OSM    C4S10307   0.601   2.859  10.222 -0.1264  0.4617 -0.5045
  102OSM    H4S10308   0.522   2.817  10.158 -0.5664  1.1495 -0.4198
  102OSM    C5S10309   0.703   2.911  10.166 -0.2092 -0.0103  0.2201
  102OSM    H5S10310   0.783   2.944  10.234 -0.6151  1.9384 -0.1725
  102OSM    C6S10311   0.718   2.956  10.020 -0.5856  0.3819  0.2246
  102OSM    H6S10312   0.820   2.933   9.984 -1.8036 -0.6940 -2.9157
  102OSM    H6T10313   0.708   3.066  10.031 -1.3228  0.2207  1.3249
  102OSM    C7S10314   0.628   2.902   9.914 -0.3842  0.5042  0.9318
  102OSM    H7S10315   0.530   2.951   9.931 -1.1846 -1.4340  2.3190
  102OSM    H7T10316   0.621   2.791   9.923 -1.0838  0.4094 -0.4680
  102OSM    C8S10317   0.679   2.935   9.765 -0.2603  0.4950 -0.3278
  102OSM    H8S10318   0.775   2.885   9.740  0.2464  1.0541  0.4445
  102OSM    H8T10319   0.712   3.041   9.770 -0.3396  0.5463 -0.8217
  102OSM    C9S10320   0.564   2.919   9.675  0.3884  0.3686 -0.1671
  102OSM    H9S10321   0.474   2.969   9.717 -0.9761 -1.9466 -0.1736
  102OSM    H9T10322   0.531   2.813   9.668 -2.9575  1.3778 -1.9696
  102OSM   C10S10323   0.591   2.973   9.531  0.4159 -0.0511  0.2077
  102OSM   H10S10324   0.687   2.931   9.493  0.3222  2.6040 -3.5643
  102OSM   H10T10325   0.608   3.082   9.537 -0.7329  0.1447  0.1523
  102OSM   C11S10326   0.467   2.958   9.443  0.6725  0.6774 -0.1481
  102OSM   H11S10327   0.479   3.028   9.358  1.6220  0.0704 -0.5248
  102OSM   H11T10328   0.380   2.996   9.501  0.8722  1.0023 -0.0561
  102OSM   C12S10329   0.454   2.815   9.390 -0.1207  0.7840  0.0454
  102OSM   H12S10330   0.434   2.741   9.470  2.3159  1.8068  1.7194
  102OSM   H12T10331   0.556   2.785   9.358  0.0159  1.4291 -0.1438
  102OSM   C13S10332   0.356   2.803   9.272  0.3363  0.1637 -0.0411
  102OSM   H13S10333   0.260   2.852   9.300 -0.4603 -0.8103 -1.0048
  102OSM   H13T10334   0.328   2.698   9.252  1.5988 -0.1731 -0.1290
  102OSM   C14S10335   0.400   2.865   9.138  0.2420 -0.5549 -0.5075
  102OSM   H14S10336   0.492   2.804   9.125 -0.2521 -1.4528  0.1036
  102OSM   H14T10337   0.437   2.970   9.133 -0.1931 -0.4741 -3.2288
  102OSM   C15S10338   0.304   2.839   9.022 -0.1420  0.3397  0.4207
  102OSM   H15S10339   0.213   2.902   9.024 -1.6009 -1.6916  0.4446
  102OSM   H15T10340   0.284   2.731   9.039  2.0581 -0.7666 -3.0597
  102OSM   C16S10341   0.377   2.864   8.894  0.7115  0.5071 -0.0415
  102OSM   H16S10342   0.456   2.939   8.916  0.9605  0.5760 -1.1215
  102OSM   H16T10343   0.316   2.904   8.811  0.6991 -1.2908 -0.9502
  102OSM   C17S10344   0.458   2.739   8.847  0.1439  0.0494  0.0698
  102OSM   H17S10345   0.396   2.647   8.841  0.0319  0.0364  1.2054
  102OSM   H17T10346   0.535   2.715   8.923 -0.6098 -0.1697  0.7743
  102OSM   C18S10347   0.529   2.780   8.720  0.0960 -0.3595 -0.3670
  102OSM   H18S10348   0.622   2.840   8.733 -0.2683 -0.2193  2.2842
  102OSM   H18T10349   0.452   2.835   8.662 -1.3142 -1.5306  0.3484
  102OSM   H18U10350   0.559   2.695   8.656  1.1353  0.2137 -0.6613
  102OSM    C1F10351   0.300   3.078  10.390 -0.4647  0.9132  0.0716
  102OSM     OF10352   0.345   3.166  10.458 -0.2435 -0.0334 -0.4387
  102OSM    C2F10353   0.166   3.071  10.322  0.1677 -0.1675 -1.5426
  102OSM    H2F10354   0.086   3.071  10.400  1.5930 -1.1103 -0.0153
  102OSM    H2G10355   0.163   2.979  10.260 -1.1588 -1.1906 -0.0581
  102OSM    C3F10356   0.147   3.199  10.235 -0.3766  0.1973 -0.0491
  102OSM    H3F10357   0.151   3.285  10.305 -2.3577 -0.5776  1.0892
  102OSM    H3G10358   0.048   3.194  10.186 -0.7785 -1.4183  0.8728
  102OSM    C4F10359   0.252   3.223  10.123  0.0309 -0.9916 -0.5477
  102OSM    H4F10360   0.254   3.132  10.060 -2.1234 -1.6938  0.3220
  102OSM    H4G10361   0.353   3.235  10.168  0.4369  1.7063 -2.0058
  102OSM    C5F10362   0.213   3.343  10.037 -0.3515  0.2871  0.0192
  102OSM    H5F10363   0.103   3.335  10.018 -0.0856 -1.1673 -1.1022
  102OSM    H5G10364   0.269   3.323   9.943 -1.2461 -1.2769 -0.2219
  102OSM    C6F10365   0.241   3.474  10.103  0.2041  0.0620  0.6956
  102OSM    H6F10366   0.335   3.478  10.162  1.4375  2.5159 -1.2144
  102OSM    H6G10367   0.157   3.510  10.166  1.0938 -0.7230  2.3642
  102OSM    C7F10368   0.255   3.587   9.999 -0.2661  0.8630 -0.3045
  102OSM    H7F10369   0.337   3.569   9.926  0.2182 -1.2528  0.6957
  102OSM    H7G10370   0.283   3.674  10.063 -0.3558 -1.8241  3.7069
  102OSM    C8F10371   0.128   3.610   9.927 -0.1645 -0.4297 -0.1859
  102OSM    H8F10372   0.066   3.655  10.008  0.9946  0.0887  0.4276
  102OSM    H8G10373   0.084   3.516   9.888  2.0560 -0.6600 -2.3130
  102OSM    C9F10374   0.147   3.723   9.826  0.2277  0.2697  0.2951
  102OSM    H9F10375   0.232   3.787   9.853 -0.5379  0.9106  1.2674
  102OSM   C10F10376   0.060   3.755   9.730 -0.0591  0.7711 -0.1195
  102OSM   H10F10377   0.063   3.851   9.677  0.4690  0.4062 -0.7714
  102OSM   C11F10378  -0.070   3.679   9.706  0.3434 -0.0297  0.2304
  102OSM   H11F10379  -0.148   3.758   9.704  0.1287 -0.2559 -0.5931
  102OSM   H11G10380  -0.080   3.610   9.793  0.5726  0.4421  0.6383
  102OSM   C12F10381  -0.052   3.604   9.571  0.2557 -0.5050 -0.0774
  102OSM   H12F10382   0.010   3.513   9.588  1.0850 -0.4417 -2.4481
  102OSM   H12G10383  -0.017   3.671   9.489 -0.1176 -1.0870 -0.7171
  102OSM   C13F10384  -0.185   3.556   9.528 -0.0358 -0.7332  0.0294
  102OSM   H13F10385  -0.257   3.525   9.607  0.3136 -1.3323  0.1209
  102OSM   H13G10386  -0.164   3.460   9.476 -0.6208 -1.8376  1.7337
  102OSM   C14F10387  -0.265   3.643   9.431  0.1426  0.6520 -0.0337
  102OSM   H14F10388  -0.207   3.661   9.338 -0.6126  1.2773 -0.3899
  102OSM   H14G10389  -0.274   3.743   9.478 -0.7361 -1.2669  4.3086
  102OSM   C15F10390  -0.399   3.588   9.402  0.2259 -0.4542  0.1522
  102OSM   H15F10391  -0.470   3.599   9.487  0.3305 -1.5911  0.4030
  102OSM   H15G10392  -0.396   3.477   9.398 -3.4594 -0.7334  1.4016
  102OSM   C16F10393  -0.456   3.647   9.264  0.3633  0.3157 -0.0708
  102OSM   H16F10394  -0.373   3.640   9.191  1.5899 -0.3576  1.3348
  102OSM   H16G10395  -0.486   3.754   9.272  0.9234  0.6004 -1.6064
  102OSM   C17F10396  -0.567   3.554   9.200 -0.7905 -0.1368 -0.4535
  102OSM   H17F10397  -0.654   3.554   9.268 -1.4080  2.4893 -1.1238
  102OSM   H17G10398  -0.526   3.451   9.197  1.7398  0.7891 -2.8837
  102OSM   C18F10399  -0.607   3.584   9.059  0.2793  0.2616  0.2615
  102OSM   H18F10400  -0.714   3.556   9.046  0.8022 -1.4659 -0.5648
  102OSM   H18G10401  -0.550   3.530   8.980  0.6040  1.1618 -0.1372
  102OSM   H18H10402  -0.611   3.694   9.045 -1.8932  0.4444  1.7624
  103OSM      N10403   2.685   4.876  11.273  0.3821 -0.1216 -0.8345
  103OSM    C1510404   2.715   4.731  11.235 -0.5547  0.0711  0.1760
  103OSM   H15A10405   2.631   4.663  11.232  0.4143 -1.2340  0.9958
  103OSM   H15B10406   2.792   4.689  11.299  0.8787  1.6475 -0.4222
  103OSM   H15C10407   2.771   4.734  11.142  0.5231  1.8319  0.8495
  103OSM    C1410408   2.595   4.878  11.398 -0.7893 -0.5742  0.7278
  103OSM   H14A10409   2.508   4.827  11.359  0.5680 -3.0120  0.6512
  103OSM   H14B10410   2.564   4.980  11.418  0.1547 -0.3976  1.3362
  103OSM   H14C10411   2.643   4.825  11.479 -1.0786 -1.4000  0.3747
  103OSM    C1310412   2.814   4.937  11.308 -0.2166  0.4013 -0.0776
  103OSM   H13A10413   2.873   4.876  11.375 -2.8547 -2.3478 -0.0618
  103OSM   H13B10414   2.806   5.029  11.364 -0.5464  1.2239 -1.4122
  103OSM   H13C10415   2.873   4.946  11.217  1.3019 -0.9542  0.7218
  103OSM    C1210416   2.622   4.950  11.160  0.8389 -0.3701  0.1471
  103OSM   H12A10417   2.686   4.948  11.074 -1.0467 -0.8870 -1.3037
  103OSM   H12B10418   2.611   5.054  11.184 -0.7859 -0.7449  1.2095
  103OSM    C1110419   2.481   4.890  11.108 -0.2501 -0.1299  0.2660
  103OSM   H11A10420   2.507   4.786  11.081 -1.2737 -0.8684  1.9525
  103OSM   H11B10421   2.446   4.926  11.009  0.4799  0.8583  0.3504
  103OSM      P10422   2.317   5.050  11.222 -0.2149 -0.6654 -0.2421
  103OSM    O1310423   2.207   5.041  11.319  0.5856  0.1549 -0.7406
  103OSM    O1410424   2.421   5.154  11.258 -0.5456  0.0977  0.2495
  103OSM    O1110425   2.257   5.083  11.089 -0.0083  0.2741  0.0391
  103OSM    O1210426   2.382   4.910  11.207  0.2587 -0.0808  0.2025
  103OSM    C1S10427   2.168   4.995  11.012 -0.0197 -0.1203 -0.4165
  103OSM    H1S10428   2.070   4.984  11.063  0.9160 -0.8266  1.2722
  103OSM    H1T10429   2.210   4.894  10.997 -0.9007 -1.0344  2.7502
  103OSM     NF10430   2.047   4.964  10.794 -0.7013 -0.2631  0.3949
  103OSM    HNF10431   2.093   4.922  10.717 -0.8841  0.0867  0.0922
  103OSM    C2S10432   2.133   5.056  10.875  0.4981  0.5261 -0.2185
  103OSM    H2S10433   2.067   5.144  10.890  0.3248  0.2930  0.4234
  103OSM    C3S10434   2.268   5.101  10.803  0.3003  0.3167 -0.2621
  103OSM    H3S10435   2.323   5.005  10.789  1.9283  0.7066  2.5895
  103OSM     O310436   2.348   5.188  10.882  0.7713 -0.6438 -0.4190
  103OSM    HO310437   2.326   5.170  10.974  1.0174 -0.7632 -0.3821
  103OSM    C4S10438   2.245   5.165  10.672  0.3432 -0.0669  0.1812
  103OSM    H4S10439   2.232   5.092  10.590 -1.6151 -0.1971  0.5552
  103OSM    C5S10440   2.249   5.297  10.639  0.0710 -0.0720 -0.4293
  103OSM    H5S10441   2.290   5.371  10.710  2.1081  0.5533 -2.1501
  103OSM    C6S10442   2.216   5.351  10.503 -0.5808 -0.6821 -0.1025
  103OSM    H6S10443   2.280   5.442  10.496  0.8572 -1.6596  0.0184
  103OSM    H6T10444   2.112   5.390  10.497 -0.1723  1.2948  3.1128
  103OSM    C7S10445   2.244   5.262  10.377  0.8325  0.4016 -0.2121
  103OSM    H7S10446   2.162   5.188  10.369 -0.8138  2.2189 -0.9592
  103OSM    H7T10447   2.340   5.207  10.389  0.5233 -0.3637 -1.1663
  103OSM    C8S10448   2.247   5.340  10.246  0.2734 -0.0330  0.2975
  103OSM    H8S10449   2.161   5.410  10.253 -0.0583 -0.5343  1.4253
  103OSM    H8T10450   2.244   5.265  10.164 -0.3603  0.8896 -0.5450
  103OSM    C9S10451   2.370   5.427  10.230  0.2278 -0.8252  0.2775
  103OSM    H9S10452   2.460   5.361  10.227  2.2194  1.5619  2.7602
  103OSM    H9T10453   2.392   5.482  10.324 -0.6359 -1.1994  0.7106
  103OSM   C10S10454   2.367   5.549  10.132 -0.4837 -0.5192 -0.4793
  103OSM   H10S10455   2.450   5.615  10.164 -0.0017 -0.8943 -0.9309
  103OSM   H10T10456   2.280   5.617  10.148  0.8233  1.2240 -0.4846
  103OSM   C11S10457   2.375   5.514   9.986 -0.8623 -0.5018 -0.2465
  103OSM   H11S10458   2.310   5.588   9.935 -0.0922 -0.0232 -0.5485
  103OSM   H11T10459   2.342   5.411   9.960 -1.5806 -0.0902 -1.0205
  103OSM   C12S10460   2.522   5.524   9.927  0.4544 -0.3683  0.6522
  103OSM   H12S10461   2.573   5.439   9.977  0.7358  0.4899  1.8887
  103OSM   H12T10462   2.570   5.619   9.959 -0.3842  0.6745 -1.0536
  103OSM   C13S10463   2.525   5.502   9.774  0.3487 -0.3030 -0.9136
  103OSM   H13S10464   2.479   5.403   9.756  1.8456 -1.2756  0.3573
  103OSM   H13T10465   2.629   5.497   9.735  1.2961 -0.2419  1.4191
  103OSM   C14S10466   2.440   5.609   9.703 -0.0861 -0.0263  0.1513
  103OSM   H14S10467   2.474   5.701   9.755 -0.2310  0.0804  0.0595
  103OSM   H14T10468   2.332   5.601   9.726 -0.3263 -1.3221 -1.2182
  103OSM   C15S10469   2.479   5.634   9.560 -0.2886  0.5288 -0.4506
  103OSM   H15S10470   2.581   5.592   9.548 -0.7139 -0.5585 -0.3634
  103OSM   H15T10471   2.478   5.739   9.525 -1.7120  0.6117 -0.2134
  103OSM   C16S10472   2.385   5.557   9.468 -0.7473  0.3960  0.0356
  103OSM   H16S10473   2.287   5.604   9.488  0.0702  0.5344  4.7475
  103OSM   H16T10474   2.382   5.447   9.480 -2.0080  0.5674  1.5401
  103OSM   C17S10475   2.426   5.568   9.320 -0.0238 -0.0298 -0.0008
  103OSM   H17S10476   2.528   5.526   9.308  0.3712  1.3871 -2.0570
  103OSM   H17T10477   2.431   5.678   9.302 -2.3713  0.2790  0.8817
  103OSM   C18S10478   2.334   5.509   9.219  0.4246  0.0483  0.1561
  103OSM   H18S10479   2.363   5.554   9.122 -2.4964 -1.1253 -1.3952
  103OSM   H18T10480   2.231   5.537   9.252  0.5640 -0.3243  0.9311
  103OSM   H18U10481   2.339   5.399   9.209 -1.7540  0.0111 -1.2559
  103OSM    C1F10482   1.928   4.935  10.830  0.0876  0.2003 -0.2494
  103OSM     OF10483   1.869   4.976  10.935 -0.1713 -0.1190 -0.0812
  103OSM    C2F10484   1.850   4.852  10.741 -0.3178 -0.0221  0.2412
  103OSM    H2F10485   1.918   4.802  10.668 -1.1456 -0.9313  0.0837
  103OSM    H2G10486   1.787   4.920  10.679  1.2312 -0.8466 -2.4242
  103OSM    C3F10487   1.770   4.746  10.819 -0.1259  0.1815  0.1924
  103OSM    H3F10488   1.687   4.787  10.881 -0.3954  1.6930 -1.1349
  103OSM    H3G10489   1.833   4.693  10.894 -1.2335 -0.7132  0.5227
  103OSM    C4F10490   1.711   4.632  10.730 -0.2778  0.3280 -1.3426
  103OSM    H4F10491   1.656   4.568  10.802 -0.4303  0.9990 -0.8470
  103OSM    H4G10492   1.793   4.575  10.682  1.0804  1.4479 -0.4044
  103OSM    C5F10493   1.612   4.675  10.624 -0.5457  0.2272 -0.1834
  103OSM    H5F10494   1.648   4.768  10.575  1.7427 -0.7301 -0.4418
  103OSM    H5G10495   1.508   4.689  10.661 -2.2405 -1.4213 -3.8113
  103OSM    C6F10496   1.585   4.566  10.512  0.3071 -0.2138 -0.1203
  103OSM    H6F10497   1.549   4.476  10.565 -0.6556 -0.0166 -0.4298
  103OSM    H6G10498   1.674   4.524  10.459 -0.3007 -1.3045 -0.2868
  103OSM    C7F10499   1.475   4.594  10.404  0.6726 -0.0832 -0.5448
  103OSM    H7F10500   1.511   4.673  10.335  1.3996 -0.5552 -0.7206
  103OSM    H7G10501   1.382   4.635  10.448  0.8323 -0.1382 -0.1492
  103OSM    C8F10502   1.441   4.469  10.323  0.6629 -0.8100 -0.1003
  103OSM    H8F10503   1.343   4.501  10.280  0.8260 -0.9467 -0.5778
  103OSM    H8G10504   1.417   4.387  10.395  1.6599 -0.9343  0.1079
  103OSM    C9F10505   1.540   4.425  10.221 -0.0045  0.1403 -0.2955
  103OSM    H9F10506   1.640   4.389  10.248  0.1133 -0.1878 -1.1362
  103OSM   C10F10507   1.524   4.431  10.090  0.3859  0.1686 -0.1581
  103OSM   H10F10508   1.601   4.386  10.025  1.0863  1.7289 -0.4595
  103OSM   C11F10509   1.402   4.483  10.017  0.0835 -0.1902  0.2742
  103OSM   H11F10510   1.341   4.544  10.087  0.2161 -2.3816  2.4278
  103OSM   H11G10511   1.342   4.393   9.993 -0.1269 -0.0683  0.3407
  103OSM   C12F10512   1.441   4.564   9.890 -0.3670 -0.1627 -0.0302
  103OSM   H12F10513   1.532   4.625   9.907 -0.0449 -1.2238  2.5079
  103OSM   H12G10514   1.362   4.637   9.862  0.4383 -0.0995 -2.2960
  103OSM   C13F10515   1.446   4.471   9.771  0.6157  0.5410  0.1017
  103OSM   H13F10516   1.519   4.392   9.799  1.5392  2.1571  2.6224
  103OSM   H13G10517   1.340   4.438   9.761 -0.0811  2.6988 -0.2870
  103OSM   C14F10518   1.483   4.533   9.641  0.1691 -0.1105  0.5236
  103OSM   H14F10519   1.592   4.552   9.648  0.1115 -0.4778  3.8493
  103OSM   H14G10520   1.431   4.631   9.639  1.4838  0.6053 -1.0234
  103OSM   C15F10521   1.456   4.451   9.519  0.4226  0.6255 -0.3627
  103OSM   H15F10522   1.346   4.453   9.505  0.5035 -1.1953 -1.6824
  103OSM   H15G10523   1.491   4.346   9.533 -1.3383 -0.1379 -1.3423
  103OSM   C16F10524   1.517   4.504   9.390 -0.3740  0.1858  0.0290
  103OSM   H16F10525   1.627   4.492   9.402 -0.4380 -0.2049  0.2153
  103OSM   H16G10526   1.490   4.611   9.382 -0.1035  0.4066  1.7380
  103OSM   C17F10527   1.479   4.418   9.268 -0.4618  0.7009 -0.8107
  103OSM   H17F10528   1.368   4.421   9.260 -0.9880 -2.1303  2.7074
  103OSM   H17G10529   1.504   4.313   9.297 -1.2932  0.7142  0.0034
  103OSM   C18F10530   1.552   4.454   9.139 -0.6866 -0.5847 -0.0859
  103OSM   H18F10531   1.661   4.446   9.160 -0.6375  1.6426  0.7530
  103OSM   H18G10532   1.531   4.559   9.110 -0.2389 -0.2365  0.8009
  103OSM   H18H10533   1.522   4.380   9.062 -0.6756 -2.5200  1.6701
  104OSM      N10534   5.561   0.275  11.070 -0.1089  0.5209  0.0972
  104OSM    C1510535   5.619   0.403  11.103  0.2880 -0.3708  0.2791
  104OSM   H15A10536   5.686   0.452  11.034 -0.4726 -1.2565 -1.1231
  104OSM   H15B10537   5.669   0.404  11.199 -2.0485  3.0937  1.6391
  104OSM   H15C10538   5.545   0.480  11.118 -0.8122 -1.3135 -0.1927
  104OSM    C1410539   5.682   0.187  11.048 -0.1797 -0.3921 -0.0674
  104OSM   H14A10540   5.741   0.223  10.965 -0.5258 -2.1101 -1.0995
  104OSM   H14B10541   5.653   0.088  11.017 -1.1164 -0.6587  1.5608
  104OSM   H14C10542   5.746   0.183  11.136 -0.9287  1.3935  0.6033
  104OSM    C1310543   5.490   0.221  11.190 -0.3948  0.2036 -0.2592
  104OSM   H13A10544   5.399   0.277  11.206 -0.3895  0.0789  0.2222
  104OSM   H13B10545   5.541   0.222  11.285 -1.2069 -0.8087  0.2102
  104OSM   H13C10546   5.461   0.117  11.185 -1.8562  0.6209 -1.0806
  104OSM    C1210547   5.467   0.274  10.949 -0.5733  0.4663 -0.0200
  104OSM   H12A10548   5.367   0.313  10.964 -0.1683  0.6630  2.7083
  104OSM   H12B10549   5.458   0.169  10.927 -0.7511  0.5111 -0.1686
  104OSM    C1110550   5.524   0.331  10.821  0.8140  0.4128 -0.0972
  104OSM   H11A10551   5.443   0.313  10.747  0.9911 -2.1178  0.2247
  104OSM   H11B10552   5.617   0.284  10.783  0.4363  0.6160 -1.3139
  104OSM      P10553   5.419   0.572  10.845 -0.1014 -0.0026 -0.1012
  104OSM    O1310554   5.346   0.533  10.965  0.1566  0.2022 -0.1413
  104OSM    O1410555   5.468   0.714  10.848 -0.3380  0.5944 -0.7759
  104OSM    O1110556   5.332   0.545  10.720  1.1583  0.6316 -0.4185
  104OSM    O1210557   5.539   0.477  10.829 -0.3794 -0.0302  0.5332
  104OSM    C1S10558   5.300   0.637  10.620  0.4336 -0.3139  0.5388
  104OSM    H1S10559   5.288   0.742  10.656  0.5632  0.3661 -1.2902
  104OSM    H1T10560   5.211   0.596  10.567  0.6458 -2.7476  1.9160
  104OSM     NF10561   5.342   0.747  10.399 -0.3288 -0.2055  0.1511
  104OSM    HNF10562   5.333   0.713  10.306 -1.7659  1.5956 -0.4264
  104OSM    C2S10563   5.400   0.655  10.499 -0.8392 -0.1527  0.9406
  104OSM    H2S10564   5.496   0.704  10.525 -0.9628  2.0035 -2.1202
  104OSM    C3S10565   5.433   0.522  10.430 -0.2589 -0.6967 -0.4341
  104OSM    H3S10566   5.338   0.469  10.410 -1.8524  1.8633 -0.2035
  104OSM     O310567   5.505   0.444  10.517 -0.1398  0.0698 -0.0619
  104OSM    HO310568   5.469   0.458  10.604 -0.0827  0.0525 -0.0359
  104OSM    C4S10569   5.508   0.535  10.301  0.0109 -0.0913 -0.2743
  104OSM    H4S10570   5.436   0.543  10.218 -0.0028  1.9238 -0.1177
  104OSM    C5S10571   5.640   0.546  10.277 -1.0707  0.0473 -0.1387
  104OSM    H5S10572   5.714   0.542  10.359 -1.1994  0.1925 -0.0150
  104OSM    C6S10573   5.705   0.543  10.133 -0.7685 -0.2225 -0.5653
  104OSM    H6S10574   5.742   0.448  10.091  0.7793  0.2106 -0.2438
  104OSM    H6T10575   5.801   0.599  10.142 -0.7042 -0.5249  0.8599
  104OSM    C7S10576   5.627   0.616  10.024  0.2164  0.1266  0.5926
  104OSM    H7S10577   5.586   0.716  10.048 -0.6160 -0.2884  0.9704
  104OSM    H7T10578   5.535   0.554  10.013 -0.7961  1.3544  1.7545
  104OSM    C8S10579   5.697   0.618   9.894 -0.2151  0.9292 -0.0038
  104OSM    H8S10580   5.742   0.518   9.875  1.5889  1.8486 -0.8589
  104OSM    H8T10581   5.780   0.692   9.896 -0.1264  0.8936 -1.4232
  104OSM    C9S10582   5.603   0.650   9.783 -0.4908  0.0114  0.6372
  104OSM    H9S10583   5.556   0.749   9.802  0.7214  0.5446  0.9441
  104OSM    H9T10584   5.525   0.570   9.784  0.7180 -1.2030  0.1084
  104OSM   C10S10585   5.658   0.639   9.641  0.2571  0.0985 -0.7057
  104OSM   H10S10586   5.734   0.558   9.643 -1.8031 -1.9101  0.0391
  104OSM   H10T10587   5.720   0.729   9.618  1.1066 -0.7355 -1.8101
  104OSM   C11S10588   5.553   0.621   9.529  0.3863  0.2265 -0.8021
  104OSM   H11S10589   5.470   0.691   9.552  0.4286 -0.8287  3.3546
  104OSM   H11T10590   5.511   0.518   9.541 -1.3316  0.7805 -1.7293
  104OSM   C12S10591   5.633   0.641   9.389  0.4984 -0.6054 -0.8865
  104OSM   H12S10592   5.712   0.563   9.400  2.6399  1.7691  3.0947
  104OSM   H12T10593   5.686   0.738   9.383 -1.9732  0.8846 -0.2872
  104OSM   C13S10594   5.552   0.608   9.268  0.3928  0.6814  0.2178
  104OSM   H13S10595   5.459   0.669   9.276 -0.0859 -0.2086  1.8341
  104OSM   H13T10596   5.511   0.505   9.262  0.2464  0.8208 -1.9649
  104OSM   C14S10597   5.616   0.641   9.126  0.1315  0.3955 -0.6506
  104OSM   H14S10598   5.682   0.558   9.093 -1.5872 -0.4612 -2.1260
  104OSM   H14T10599   5.673   0.735   9.140 -0.2651  0.6132 -0.5049
  104OSM   C15S10600   5.512   0.670   9.016 -0.3348 -0.1906 -0.4000
  104OSM   H15S10601   5.448   0.758   9.039 -1.1060 -0.4365 -1.4977
  104OSM   H15T10602   5.437   0.589   9.003 -1.1993  0.4615  0.3330
  104OSM   C16S10603   5.587   0.697   8.879 -0.1197  0.0759  0.6303
  104OSM   H16S10604   5.509   0.727   8.806 -0.7186 -1.5237  0.5745
  104OSM   H16T10605   5.639   0.601   8.860 -1.2634 -0.5440  0.5890
  104OSM   C17S10606   5.689   0.814   8.886  0.4340  0.0875 -0.1832
  104OSM   H17S10607   5.759   0.794   8.970 -0.8445 -0.3075  0.8437
  104OSM   H17T10608   5.627   0.904   8.906  0.4302  0.4988 -1.8879
  104OSM   C18S10609   5.763   0.838   8.755  0.2117  0.1709  0.2519
  104OSM   H18S10610   5.837   0.760   8.730  1.6524  1.7081 -0.4413
  104OSM   H18T10611   5.807   0.940   8.757  0.3017  0.1242  0.7290
  104OSM   H18U10612   5.687   0.841   8.673  0.8016 -1.3450 -0.3934
  104OSM    C1F10613   5.331   0.876  10.414 -0.3304 -0.1456  0.5058
  104OSM     OF10614   5.369   0.934  10.515 -0.4667 -0.0679 -0.3376
  104OSM    C2F10615   5.267   0.952  10.300 -0.4344 -0.0494  0.9642
  104OSM    H2F10616   5.206   1.037  10.339 -1.6399 -0.3570 -0.1791
  104OSM    H2G10617   5.191   0.889  10.250 -1.7214  1.1949  1.2826
  104OSM    C3F10618   5.376   1.006  10.211  0.3273 -0.2446  0.2006
  104OSM    H3F10619   5.443   0.926  10.173 -0.8726 -1.1455 -0.0660
  104OSM    H3G10620   5.436   1.080  10.268 -1.2734  0.2849  1.2922
  104OSM    C4F10621   5.317   1.071  10.085  0.2489  0.3268 -0.1466
  104OSM    H4F10622   5.291   1.179  10.098 -3.4007 -0.4942  0.5021
  104OSM    H4G10623   5.218   1.024  10.066  0.2339 -0.0110  0.7229
  104OSM    C5F10624   5.411   1.058   9.966  0.2588 -0.3689  0.0101
  104OSM    H5F10625   5.448   0.954   9.966 -0.1426 -0.5591  2.2607
  104OSM    H5G10626   5.491   1.133   9.980 -3.4499  5.0966 -3.6798
  104OSM    C6F10627   5.338   1.082   9.839 -0.6083  0.6703  0.2664
  104OSM    H6F10628   5.318   1.191   9.827  1.2529  0.9861 -0.2163
  104OSM    H6G10629   5.249   1.017   9.824 -0.3920  0.6068 -0.8263
  104OSM    C7F10630   5.418   1.050   9.710 -0.0508 -0.0835 -0.3607
  104OSM    H7F10631   5.438   0.943   9.690  0.3187  0.3058 -2.2617
  104OSM    H7G10632   5.524   1.086   9.716 -0.0759 -0.2166  4.5671
  104OSM    C8F10633   5.347   1.103   9.584 -0.2301 -0.4005  0.3995
  104OSM    H8F10634   5.346   1.214   9.584 -3.2106 -0.3387 -1.0138
  104OSM    H8G10635   5.247   1.058   9.565  0.8621 -1.9183 -2.2197
  104OSM    C9F10636   5.429   1.051   9.465  0.7352 -0.1635  0.4524
  104OSM    H9F10637   5.483   0.958   9.488  0.0266 -0.3787  1.3159
  104OSM   C10F10638   5.440   1.094   9.345 -0.1005 -0.4572 -0.1972
  104OSM   H10F10639   5.500   1.037   9.273 -1.7356 -0.3286 -1.7283
  104OSM   C11F10640   5.372   1.220   9.296 -0.3517 -0.0958  0.2738
  104OSM   H11F10641   5.453   1.288   9.263 -0.6964 -0.2014 -0.8180
  104OSM   H11G10642   5.321   1.280   9.375  0.1858  0.6120  0.0915
  104OSM   C12F10643   5.272   1.189   9.184  0.4322 -0.3839 -0.6285
  104OSM   H12F10644   5.199   1.269   9.157  0.0495 -1.0111 -1.5416
  104OSM   H12G10645   5.219   1.097   9.215  4.4766 -3.1108 -1.0875
  104OSM   C13F10646   5.332   1.150   9.044 -0.0344 -0.2221  0.6617
  104OSM   H13F10647   5.430   1.098   9.050  0.5434  0.5994 -0.9331
  104OSM   H13G10648   5.351   1.248   8.995 -1.4244 -0.1714  0.1821
  104OSM   C14F10649   5.227   1.082   8.955  0.0823  0.1201  0.3546
  104OSM   H14F10650   5.150   1.158   8.927  0.5780  0.3441 -0.4499
  104OSM   H14G10651   5.183   0.993   9.004  0.4639 -0.9112 -1.1093
  104OSM   C15F10652   5.301   1.048   8.823 -0.2222  0.5489  0.2228
  104OSM   H15F10653   5.401   1.002   8.839 -0.7308 -1.9084 -2.7266
  104OSM   H15G10654   5.331   1.143   8.774 -0.6040  0.0698 -0.9665
  104OSM   C16F10655   5.220   0.964   8.717 -0.5044 -0.1745 -1.1300
  104OSM   H16F10656   5.114   0.996   8.706 -1.4953 -1.9508  1.9393
  104OSM   H16G10657   5.224   0.861   8.758  1.1729  0.1702 -0.3634
  104OSM   C17F10658   5.286   0.957   8.586 -0.1327 -0.5499  0.4418
  104OSM   H17F10659   5.245   0.868   8.534  1.0895 -1.0500  0.3005
  104OSM   H17G10660   5.393   0.930   8.604 -0.4858 -1.5668  1.1085
  104OSM   C18F10661   5.275   1.079   8.488  0.2944 -0.9877 -0.2402
  104OSM   H18F10662   5.286   1.062   8.379  0.5352  1.1881 -0.5995
  104OSM   H18G10663   5.348   1.160   8.510 -0.2472 -0.3998 -0.5942
  104OSM   H18H10664   5.170   1.112   8.501  0.4351  0.3161 -2.0466
  105OSM      N10665   4.982   0.353  10.685 -0.3710  0.5117 -0.2948
  105OSM    C1510666   5.020   0.237  10.773  0.2276  0.2531 -0.2087
  105OSM   H15A10667   5.124   0.214  10.787  0.2008  0.4500  0.3376
  105OSM   H15B10668   4.987   0.141  10.736  0.6995  0.2337 -0.5875
  105OSM   H15C10669   4.981   0.267  10.869 -2.1378  1.3797 -1.4240
  105OSM    C1410670   5.034   0.473  10.746 -0.3702 -0.3645 -0.0862
  105OSM   H14A10671   4.987   0.494  10.841  1.2146  0.9058  0.4723
  105OSM   H14B10672   5.014   0.559  10.683 -1.0274 -1.5980 -1.6111
  105OSM   H14C10673   5.141   0.473  10.763 -0.0009 -0.5684 -2.1139
  105OSM    C1310674   5.056   0.329  10.557  0.2980  0.4741 -1.0206
  105OSM   H13A10675   5.028   0.236  10.510 -0.5068  0.5657 -0.7474
  105OSM   H13B10676   5.162   0.325  10.575 -0.2438 -0.1836  2.9833
  105OSM   H13C10677   5.033   0.407  10.487 -1.6815  1.5850  0.7357
  105OSM    C1210678   4.829   0.358  10.669  0.2143  0.2205 -0.1270
  105OSM   H12A10679   4.793   0.262  10.636  1.7069 -1.3766  2.5427
  105OSM   H12B10680   4.799   0.435  10.599  0.9549  1.1680  0.5654
  105OSM    C1110681   4.752   0.393  10.797 -0.7190 -0.0155  0.0528
  105OSM   H11A10682   4.645   0.419  10.781 -0.6885  0.2251  0.2305
  105OSM   H11B10683   4.795   0.489  10.835  2.4861 -0.7866 -1.2537
  105OSM      P10684   4.676   0.151  10.879  0.0119  0.2743 -0.0037
  105OSM    O1310685   4.760   0.037  10.844  0.0878 -0.3487 -0.1316
  105OSM    O1410686   4.615   0.137  11.011 -0.0218  0.3712 -0.1883
  105OSM    O1110687   4.572   0.175  10.768  0.4621 -0.2867  0.0584
  105OSM    O1210688   4.762   0.281  10.882 -0.3594  0.1575 -0.0940
  105OSM    C1S10689   4.581   0.123  10.636  0.0073  0.0339  0.0347
  105OSM    H1S10690   4.685   0.115  10.598 -0.4340  0.7683 -1.4117
  105OSM    H1T10691   4.534   0.190  10.562 -1.1636 -2.8633 -2.0311
  105OSM     NF10692   4.508  -0.042  10.468  0.2919 -1.1371 -0.3791
  105OSM    HNF10693   4.419  -0.022  10.426 -0.8002 -1.7898  1.4941
  105OSM    C2S10694   4.508  -0.009  10.610 -0.2503  0.5439  0.3647
  105OSM    H2S10695   4.563  -0.094  10.658  0.2310  0.3557 -0.4929
  105OSM    C3S10696   4.369  -0.005  10.671  0.3303 -0.4229 -0.8785
  105OSM    H3S10697   4.304   0.073  10.626 -0.0204 -0.8571 -1.1357
  105OSM     O310698   4.359   0.028  10.810 -0.4729  0.1927  0.1685
  105OSM    HO310699   4.452   0.041  10.828 -0.5528  1.5425 -0.2930
  105OSM    C4S10700   4.293  -0.135  10.641 -0.8439 -0.3743  0.4882
  105OSM    H4S10701   4.319  -0.222  10.703  0.6754 -0.0926  0.2897
  105OSM    C5S10702   4.187  -0.140  10.565 -0.5206  0.5080 -0.6177
  105OSM    H5S10703   4.150  -0.054  10.507 -0.1028  1.2656  0.2292
  105OSM    C6S10704   4.101  -0.257  10.543 -0.1095  0.6683  0.0705
  105OSM    H6S10705   4.000  -0.237  10.584 -0.9131  0.2060 -1.5638
  105OSM    H6T10706   4.122  -0.355  10.591 -4.7206  0.1853  1.5723
  105OSM    C7S10707   4.076  -0.292  10.397 -0.5304  0.0046  0.2515
  105OSM    H7S10708   4.177  -0.326  10.364 -0.0407  0.1169  1.5675
  105OSM    H7T10709   4.041  -0.214  10.326 -2.8831 -1.3398 -0.1575
  105OSM    C8S10710   3.983  -0.409  10.369  0.1749  0.0097  0.4121
  105OSM    H8S10711   3.875  -0.395  10.392 -0.5530 -3.5383 -0.2240
  105OSM    H8T10712   4.016  -0.497  10.428 -0.5800  0.1804  1.1208
  105OSM    C9S10713   3.983  -0.446  10.222 -0.0392 -0.1399  0.2976
  105OSM    H9S10714   4.080  -0.475  10.178 -0.9571 -1.0430 -1.2278
  105OSM    H9T10715   3.953  -0.363  10.154 -0.9497 -1.3242 -0.7877
  105OSM   C10S10716   3.890  -0.560  10.193 -0.2132 -0.0783 -0.5239
  105OSM   H10S10717   3.791  -0.510  10.202 -1.0942 -1.9485  0.8038
  105OSM   H10T10718   3.900  -0.637  10.272  1.4604 -0.8924 -1.4786
  105OSM   C11S10719   3.889  -0.622  10.055 -0.2552 -0.5507 -0.1459
  105OSM   H11S10720   3.798  -0.685  10.039  0.1241 -0.7901 -1.5034
  105OSM   H11T10721   3.969  -0.694  10.029  0.5851 -0.0331  0.9353
  105OSM   C12S10722   3.875  -0.518   9.943  0.2976  0.3992 -0.1885
  105OSM   H12S10723   3.960  -0.446   9.945  3.0068 -2.5854 -0.3073
  105OSM   H12T10724   3.780  -0.461   9.958  0.7876  0.5544  2.8541
  105OSM   C13S10725   3.861  -0.583   9.807  0.0856 -0.4311  0.0488
  105OSM   H13S10726   3.803  -0.678   9.815 -0.9114  0.0378 -1.2165
  105OSM   H13T10727   3.964  -0.608   9.774  1.2683  2.4766  1.2549
  105OSM   C14S10728   3.795  -0.489   9.708  0.2336  0.0881  0.1005
  105OSM   H14S10729   3.869  -0.409   9.691 -1.3145  1.7927  1.0349
  105OSM   H14T10730   3.705  -0.438   9.749 -0.4921 -1.3221  0.3336
  105OSM   C15S10731   3.769  -0.564   9.582 -0.7987  0.1466  0.1154
  105OSM   H15S10732   3.691  -0.636   9.616  1.3297 -1.8487  1.0400
  105OSM   H15T10733   3.852  -0.623   9.539 -2.8784 -0.1151 -3.9862
  105OSM   C16S10734   3.726  -0.465   9.475 -0.2558  0.1936 -0.4188
  105OSM   H16S10735   3.806  -0.387   9.475  1.6420 -1.6422  1.4568
  105OSM   H16T10736   3.625  -0.426   9.500 -0.3621 -0.5139  0.2863
  105OSM   C17S10737   3.712  -0.529   9.334 -0.0024  0.0806  0.7432
  105OSM   H17S10738   3.650  -0.621   9.338  0.6151 -0.3177  1.2911
  105OSM   H17T10739   3.810  -0.557   9.290 -0.3385 -0.0524  0.0673
  105OSM   C18S10740   3.642  -0.426   9.248  0.9086 -0.7783  0.0130
  105OSM   H18S10741   3.612  -0.466   9.149  0.2563  0.0974 -0.1548
  105OSM   H18T10742   3.702  -0.335   9.229  2.2547 -1.3628  1.2645
  105OSM   H18U10743   3.545  -0.400   9.295  1.1439  0.7486 -0.2936
  105OSM    C1F10744   4.622  -0.065  10.400  0.6462  0.1914 -0.2113
  105OSM     OF10745   4.723  -0.099  10.456 -0.7226  0.2233  0.2414
  105OSM    C2F10746   4.604  -0.058  10.251  0.6549 -0.1190 -0.6421
  105OSM    H2F10747   4.553   0.040  10.242 -0.3093 -0.0868  3.2915
  105OSM    H2G10748   4.535  -0.138  10.216 -1.2475  1.2427 -0.1595
  105OSM    C3F10749   4.744  -0.079  10.189 -0.1425  0.0995  0.2907
  105OSM    H3F10750   4.775  -0.183  10.210  1.4055 -0.2027 -2.8797
  105OSM    H3G10751   4.817  -0.007  10.232 -2.0425  0.5464  2.9765
  105OSM    C4F10752   4.737  -0.047  10.036  0.0152 -0.2521  0.5213
  105OSM    H4F10753   4.668  -0.125   9.996 -1.0922  0.3521  1.2166
  105OSM    H4G10754   4.834  -0.071   9.987  0.1910  1.6683 -0.1354
  105OSM    C5F10755   4.686   0.088  10.005  0.1141 -0.1630  0.6042
  105OSM    H5F10756   4.753   0.155  10.062 -1.6958  0.8746  1.5999
  105OSM    H5G10757   4.581   0.105  10.037 -0.1117  0.1644 -0.2853
  105OSM    C6F10758   4.707   0.120   9.852  0.2461 -0.0468  0.1007
  105OSM    H6F10759   4.661   0.033   9.800 -1.6261 -0.3530  2.0946
  105OSM    H6G10760   4.816   0.116   9.837  0.2816 -1.2996  0.5475
  105OSM    C7F10761   4.629   0.247   9.810 -0.5673 -0.2729  0.5036
  105OSM    H7F10762   4.686   0.330   9.856 -0.8276  0.7848 -0.9930
  105OSM    H7G10763   4.528   0.248   9.856  0.0620  1.9954  2.0024
  105OSM    C8F10764   4.624   0.271   9.655  0.0133  0.2611  0.1612
  105OSM    H8F10765   4.731   0.260   9.628  0.4872  0.7613  1.7327
  105OSM    H8G10766   4.602   0.377   9.634 -3.1519  0.2895  2.7833
  105OSM    C9F10767   4.539   0.177   9.571  0.0873 -0.9395  0.4901
  105OSM    H9F10768   4.502   0.082   9.611 -2.5266  0.3385  1.3133
  105OSM   C10F10769   4.510   0.211   9.445 -0.6044 -0.4524  0.0594
  105OSM   H10F10770   4.430   0.150   9.402 -0.3419  0.5641 -1.9646
  105OSM   C11F10771   4.560   0.324   9.357  0.4687  0.4288 -0.4464
  105OSM   H11F10772   4.656   0.361   9.400 -0.5282 -0.0056  2.3601
  105OSM   H11G10773   4.484   0.405   9.354 -1.4336 -1.1750  1.4879
  105OSM   C12F10774   4.575   0.274   9.210 -0.4290  0.2075  0.0971
  105OSM   H12F10775   4.608   0.168   9.210 -2.8830 -0.6363 -0.3934
  105OSM   H12G10776   4.652   0.328   9.151 -1.8694 -0.6995 -2.8213
  105OSM   C13F10777   4.439   0.259   9.134  0.4331  0.0520 -0.1246
  105OSM   H13F10778   4.403   0.364   9.128 -0.2062 -0.1843 -0.5834
  105OSM   H13G10779   4.363   0.209   9.199 -1.0397  0.4622 -1.4675
  105OSM   C14F10780   4.448   0.186   9.001  0.0651  0.1343 -0.6091
  105OSM   H14F10781   4.352   0.183   8.947 -0.5963 -2.4122  0.5636
  105OSM   H14G10782   4.472   0.078   9.011 -1.0438 -0.1025 -0.4201
  105OSM   C15F10783   4.548   0.248   8.896 -0.1785 -0.2971 -0.0049
  105OSM   H15F10784   4.644   0.269   8.948 -0.5482  2.0240 -0.1461
  105OSM   H15G10785   4.511   0.350   8.874 -0.3519  0.4610  3.3403
  105OSM   C16F10786   4.580   0.148   8.788  0.2035 -0.2723 -0.3206
  105OSM   H16F10787   4.489   0.122   8.730  0.1765 -1.4218  0.2104
  105OSM   H16G10788   4.598   0.044   8.823  0.9341 -0.1461 -0.3222
  105OSM   C17F10789   4.680   0.182   8.678 -0.1642 -0.6024 -1.3767
  105OSM   H17F10790   4.775   0.220   8.722 -1.3806  0.6261  0.3477
  105OSM   H17G10791   4.634   0.261   8.614 -0.1485 -0.4391 -1.1909
  105OSM   C18F10792   4.721   0.055   8.606  0.0385  0.5630 -0.1800
  105OSM   H18F10793   4.643   0.018   8.536 -0.2674  0.8499  0.0051
  105OSM   H18G10794   4.753  -0.025   8.676  1.1735  1.8715  0.8591
  105OSM   H18H10795   4.793   0.088   8.529 -2.0113  3.5538 -1.0135
  106OSM      N10796   5.672   3.423  10.646  0.0623  0.0460 -0.1538
  106OSM    C1510797   5.547   3.469  10.703 -0.7367  0.5049  0.2926
  106OSM   H15A10798   5.462   3.408  10.676 -0.7394 -0.5198  2.4089
  106OSM   H15B10799   5.515   3.565  10.666 -0.8202  0.8325  1.1795
  106OSM   H15C10800   5.558   3.469  10.811 -0.7603 -2.8829  0.3947
  106OSM    C1410801   5.705   3.289  10.705  0.4809  0.0946 -0.5825
  106OSM   H14A10802   5.612   3.234  10.707 -0.0045  0.9227  0.8689
  106OSM   H14B10803   5.740   3.310  10.805 -0.1902 -1.4819  0.0198
  106OSM   H14C10804   5.781   3.238  10.647 -0.3716 -1.5004 -0.3641
  106OSM    C1310805   5.636   3.410  10.504 -0.3440  0.1298  0.1998
  106OSM   H13A10806   5.559   3.335  10.487 -0.1567  0.0998 -0.5766
  106OSM   H13B10807   5.719   3.377  10.444  0.3388 -0.6950  1.5539
  106OSM   H13C10808   5.595   3.500  10.461  1.5627  1.3893  0.8944
  106OSM    C1210809   5.777   3.527  10.669  0.3645  0.0330 -0.1083
  106OSM   H12A10810   5.743   3.617  10.620 -0.2487  0.2314  0.6830
  106OSM   H12B10811   5.870   3.492  10.625  1.7075 -0.5547  2.9604
  106OSM    C1110812   5.799   3.566  10.817  0.0333  0.7021  0.1190
  106OSM   H11A10813   5.810   3.470  10.871 -1.4888  0.5801  0.2589
  106OSM   H11B10814   5.715   3.625  10.860 -0.9108  1.3516 -2.4839
  106OSM      P10815   6.064   3.617  10.805  0.4675 -0.1017  0.0238
  106OSM    O1310816   6.158   3.722  10.846 -0.2376 -0.4621  0.3484
  106OSM    O1410817   6.084   3.481  10.859 -0.2745 -0.4711  0.5975
  106OSM    O1110818   6.066   3.609  10.647 -0.4148  0.6857  0.0175
  106OSM    O1210819   5.910   3.655  10.830 -0.2770 -0.3113  0.2422
  106OSM    C1S10820   6.030   3.711  10.560  0.1218  0.2230 -0.2750
  106OSM    H1S10821   6.100   3.797  10.569  0.1466 -0.0409  3.0545
  106OSM    H1T10822   5.925   3.744  10.575 -0.1603 -0.9869  0.5385
  106OSM     NF10823   6.011   3.779  10.310  0.6917 -0.5090 -0.7033
  106OSM    HNF10824   5.931   3.788  10.251 -1.2059  2.1926  2.0067
  106OSM    C2S10825   6.039   3.670  10.405  0.0809  0.8350  0.1320
  106OSM    H2S10826   6.142   3.634  10.384  0.5881  2.5183 -0.4306
  106OSM    C3S10827   5.946   3.547  10.383 -0.0728  0.4568  0.4215
  106OSM    H3S10828   5.841   3.569  10.412  0.1280 -1.3220  2.7007
  106OSM     O310829   5.980   3.436  10.468  0.4398  0.1508 -0.2207
  106OSM    HO310830   6.037   3.480  10.530 -0.5271  0.2033  0.6504
  106OSM    C4S10831   5.940   3.502  10.239  0.0030 -0.1988  0.8069
  106OSM    H4S10832   5.850   3.534  10.183  0.1626 -0.6646  0.2757
  106OSM    C5S10833   6.029   3.431  10.164 -0.4669  0.0507  0.5098
  106OSM    H5S10834   6.122   3.397  10.213 -0.0578 -0.3008 -0.4883
  106OSM    C6S10835   6.021   3.386  10.025 -0.6394 -0.2374 -0.3893
  106OSM    H6S10836   5.940   3.309  10.023 -1.2244  0.1757  2.9952
  106OSM    H6T10837   6.110   3.324   9.997 -1.1155 -1.4284  0.6282
  106OSM    C7S10838   6.000   3.495   9.916 -0.2338  0.3233  0.0741
  106OSM    H7S10839   5.889   3.500   9.920 -0.2693 -0.6179  0.4281
  106OSM    H7T10840   6.021   3.457   9.814 -0.3648 -2.3586  0.9774
  106OSM    C8S10841   6.058   3.633   9.950  0.1309  0.1762 -0.2381
  106OSM    H8S10842   6.168   3.628   9.935  0.0292 -0.5656 -0.8034
  106OSM    H8T10843   6.035   3.658  10.055  0.0030 -0.2463 -0.1678
  106OSM    C9S10844   6.013   3.750   9.859 -0.1522 -0.2161 -0.5392
  106OSM    H9S10845   6.033   3.854   9.892 -1.3801  0.5637 -2.1208
  106OSM    H9T10846   5.905   3.735   9.839 -0.1324 -0.4640 -0.4536
  106OSM   C10S10847   6.079   3.747   9.720  0.1141 -0.1380 -1.1697
  106OSM   H10S10848   6.080   3.638   9.699  3.1608 -1.0624  2.6191
  106OSM   H10T10849   6.185   3.781   9.717  0.3034 -0.7364 -1.4036
  106OSM   C11S10850   5.986   3.825   9.627 -0.4319 -0.1830  0.3937
  106OSM   H11S10851   5.971   3.925   9.675  0.0334 -0.3712  0.9493
  106OSM   H11T10852   5.890   3.770   9.622 -1.0579  0.5157  3.0877
  106OSM   C12S10853   6.036   3.844   9.483 -0.5427  0.7868 -0.0480
  106OSM   H12S10854   6.064   3.750   9.431 -2.2830  0.8910 -1.2573
  106OSM   H12T10855   6.131   3.900   9.497 -1.3339  1.9983  0.6202
  106OSM   C13S10856   5.948   3.915   9.386 -0.4283  0.1282 -0.0582
  106OSM   H13S10857   5.930   4.020   9.417  0.4594  1.3023 -3.1876
  106OSM   H13T10858   5.851   3.862   9.376  0.1636 -0.5643 -3.0867
  106OSM   C14S10859   6.010   3.921   9.249  0.1981  0.0647  0.1377
  106OSM   H14S10860   6.044   3.823   9.209 -0.5667  1.1355 -3.4591
  106OSM   H14T10861   6.101   3.983   9.240  0.0120  0.7627  2.4108
  106OSM   C15S10862   5.916   3.981   9.146 -0.0270  0.4707 -0.0886
  106OSM   H15S10863   5.882   4.074   9.197 -0.6494  0.3036 -0.1884
  106OSM   H15T10864   5.827   3.917   9.128 -0.1478  1.0796 -1.8713
  106OSM   C16S10865   5.985   4.014   9.009  0.0621 -0.2353  0.2757
  106OSM   H16S10866   5.988   3.930   8.937  1.2745  1.0871 -1.2806
  106OSM   H16T10867   6.090   4.050   9.016  0.0420  0.0446 -0.7233
  106OSM   C17S10868   5.906   4.130   8.938 -0.4598 -0.2392 -1.0870
  106OSM   H17S10869   5.906   4.219   9.004 -1.2929 -0.8672 -0.2054
  106OSM   H17T10870   5.802   4.095   8.918 -0.6312 -0.6880  0.4237
  106OSM   C18S10871   5.972   4.166   8.799 -0.3682 -0.2338 -0.5055
  106OSM   H18S10872   5.941   4.263   8.754  1.7837  1.2143  0.9005
  106OSM   H18T10873   5.955   4.090   8.720 -2.5378  0.8824 -1.1859
  106OSM   H18U10874   6.083   4.169   8.810 -0.4638  0.9679  0.2801
  106OSM    C1F10875   6.096   3.882  10.300 -0.2559  0.0542 -0.3357
  106OSM     OF10876   6.210   3.874  10.349 -0.3006  0.0838 -0.7463
  106OSM    C2F10877   6.050   3.991  10.211  0.4036 -0.0736 -0.4731
  106OSM    H2F10878   5.952   4.025  10.249  0.1634  0.0011 -1.1425
  106OSM    H2G10879   6.040   3.950  10.108  0.4955 -0.1974 -0.4335
  106OSM    C3F10880   6.133   4.118  10.205  0.4263  0.2800 -0.4006
  106OSM    H3F10881   6.239   4.102  10.176  1.2501  0.7801  2.0801
  106OSM    H3G10882   6.137   4.144  10.313 -0.0809 -0.1099 -0.2807
  106OSM    C4F10883   6.066   4.227  10.116 -0.3272  0.0958  0.4636
  106OSM    H4F10884   6.119   4.324  10.114 -1.0839  0.5073 -0.8376
  106OSM    H4G10885   5.958   4.244  10.131 -0.9051 -1.5952 -1.2336
  106OSM    C5F10886   6.079   4.208   9.959  0.4385  0.0051 -0.3015
  106OSM    H5F10887   6.032   4.114   9.923  0.4699  0.1710 -0.7807
  106OSM    H5G10888   6.189   4.196   9.942  0.9573 -0.1208  2.5432
  106OSM    C6F10889   6.029   4.325   9.871  0.4565 -0.1127  0.9449
  106OSM    H6F10890   6.092   4.415   9.887 -0.8978  1.1225 -0.4150
  106OSM    H6G10891   5.926   4.347   9.904  0.5177  0.7154  0.5998
  106OSM    C7F10892   6.037   4.287   9.720 -0.2187  0.8361  0.2616
  106OSM    H7F10893   5.948   4.223   9.702 -0.4318  1.0977  0.3964
  106OSM    H7G10894   6.130   4.231   9.697 -0.0004  1.7831 -1.2929
  106OSM    C8F10895   6.044   4.396   9.618 -0.0066 -0.0682 -0.3566
  106OSM    H8F10896   6.065   4.349   9.520 -0.1142  0.2306 -0.5268
  106OSM    H8G10897   6.122   4.469   9.647 -0.7097  0.0581  1.3329
  106OSM    C9F10898   5.915   4.479   9.623  0.3736 -0.7131 -0.2633
  106OSM    H9F10899   5.907   4.541   9.713 -2.4591  1.8328 -2.0811
  106OSM   C10F10900   5.818   4.494   9.534 -0.1293  0.3899  0.4385
  106OSM   H10F10901   5.744   4.574   9.551 -1.4848 -0.7036 -0.0785
  106OSM   C11F10902   5.809   4.437   9.390 -0.1267  0.6409 -1.0466
  106OSM   H11F10903   5.702   4.412   9.369 -0.4182  0.0749  0.9047
  106OSM   H11G10904   5.865   4.342   9.385  0.8637  1.2110 -0.9618
  106OSM   C12F10905   5.864   4.524   9.271 -0.2290 -0.0501  0.0301
  106OSM   H12F10906   5.859   4.632   9.300  1.8842  0.9647 -2.9108
  106OSM   H12G10907   5.801   4.504   9.182 -1.0024  0.9712  0.3248
  106OSM   C13F10908   6.019   4.497   9.247 -0.9138  0.2998  0.2509
  106OSM   H13F10909   6.043   4.389   9.231  0.6739  0.5981  0.4606
  106OSM   H13G10910   6.070   4.523   9.342  0.2104 -1.7253  0.2508
  106OSM   C14F10911   6.078   4.598   9.141  0.5542 -0.3926  0.2123
  106OSM   H14F10912   6.188   4.609   9.155  0.8858 -3.0265  0.2229
  106OSM   H14G10913   6.032   4.695   9.170 -2.4775 -1.2259 -1.3695
  106OSM   C15F10914   6.046   4.566   8.997  0.1541  0.2287  0.3413
  106OSM   H15F10915   5.936   4.556   8.993  0.1463  0.6182 -0.7587
  106OSM   H15G10916   6.096   4.471   8.967 -2.3077 -0.6573 -1.2004
  106OSM   C16F10917   6.084   4.668   8.890 -0.3313  0.0044 -0.2173
  106OSM   H16F10918   6.193   4.689   8.887 -0.0096 -1.6285 -2.2192
  106OSM   H16G10919   6.026   4.760   8.914  0.3033  0.0277  1.3622
  106OSM   C17F10920   6.036   4.614   8.757  0.0773  0.4408  0.7175
  106OSM   H17F10921   5.930   4.647   8.753 -0.0206  0.0956  0.3490
  106OSM   H17G10922   6.046   4.503   8.750  0.5757  0.5402 -0.6166
  106OSM   C18F10923   6.110   4.685   8.646 -0.0391  0.6268  0.0711
  106OSM   H18F10924   6.093   4.795   8.648 -0.7929  0.5373 -0.7659
  106OSM   H18G10925   6.094   4.647   8.542  1.0665 -2.5838  0.9573
  106OSM   H18H10926   6.219   4.664   8.652 -0.3896 -2.5603 -2.1288
  107OSM      N10927   0.924   6.457  11.049 -0.3034  0.3615  0.0190
  107OSM    C1510928   0.990   6.452  10.912 -0.4749 -0.0890  0.5066
  107OSM   H15A10929   0.935   6.509  10.838  0.6791  1.2375  0.6317
  107OSM   H15B10930   0.995   6.350  10.875  0.3648  0.3434 -0.6314
  107OSM   H15C10931   1.091   6.486  10.926  0.4879 -2.0907 -1.0588
  107OSM    C1410932   0.987   6.360  11.137  0.4187 -0.1038 -0.1134
  107OSM   H14A10933   1.081   6.392  11.179  1.0983  1.1842 -2.4184
  107OSM   H14B10934   0.990   6.267  11.082  0.8114  1.0262 -2.1138
  107OSM   H14C10935   0.925   6.360  11.226  1.8653  2.8070  1.0244
  107OSM    C1310936   0.938   6.595  11.116  0.0300 -0.4317  0.2425
  107OSM   H13A10937   0.899   6.681  11.063 -0.2863  0.2987  1.6083
  107OSM   H13B10938   1.042   6.621  11.133 -0.0282 -0.9661  1.4775
  107OSM   H13C10939   0.898   6.597  11.216 -1.4418  2.4311 -0.3063
  107OSM    C1210940   0.774   6.429  11.048  0.2494 -0.2860 -0.3137
  107OSM   H12A10941   0.722   6.501  10.987  1.4309  0.9731  0.1219
  107OSM   H12B10942   0.729   6.432  11.147  0.7619  1.5108 -0.0951
  107OSM    C1110943   0.734   6.300  10.980  0.0582 -0.2874  0.6018
  107OSM   H11A10944   0.780   6.297  10.879  3.1773 -0.7604  1.9054
  107OSM   H11B10945   0.625   6.317  10.967  0.5518  2.4604 -0.5995
  107OSM      P10946   0.685   6.047  11.023 -0.0779  0.4088 -0.0078
  107OSM    O1310947   0.758   5.937  11.082  0.1658 -0.1921  0.4062
  107OSM    O1410948   0.549   6.058  11.075 -0.4006 -0.1783 -0.1478
  107OSM    O1110949   0.677   6.039  10.861 -0.8629  0.4528 -0.2175
  107OSM    O1210950   0.760   6.181  11.052  0.2883  0.1919  0.2374
  107OSM    C1S10951   0.795   6.014  10.780 -0.1283 -0.0263  0.4514
  107OSM    H1S10952   0.838   5.913  10.798 -2.7872 -1.4677 -0.6252
  107OSM    H1T10953   0.865   6.090  10.821 -2.0357  2.1137 -0.0270
  107OSM     NF10954   0.900   5.992  10.558  0.4162  0.0826  0.8256
  107OSM    HNF10955   0.961   6.067  10.532  2.6661 -0.5688  3.7130
  107OSM    C2S10956   0.777   6.028  10.623  1.0058 -0.5957 -0.6231
  107OSM    H2S10957   0.700   5.953  10.595 -0.6931  0.5479  0.7577
  107OSM    C3S10958   0.724   6.168  10.580  0.5810 -0.0227 -0.3717
  107OSM    H3S10959   0.781   6.257  10.614 -0.8589  0.8377 -0.1249
  107OSM     O310960   0.602   6.190  10.646  0.1220 -0.1242 -0.0541
  107OSM    HO310961   0.592   6.137  10.726  2.4981 -1.9734 -0.8521
  107OSM    C4S10962   0.707   6.180  10.429  0.5820  0.3893 -0.0139
  107OSM    H4S10963   0.789   6.239  10.384 -0.3318  0.5700 -1.5003
  107OSM    C5S10964   0.610   6.131  10.339  0.5161 -0.3356  0.0947
  107OSM    H5S10965   0.518   6.091  10.383 -0.4634 -0.5176 -2.0132
  107OSM    C6S10966   0.605   6.156  10.187  0.5961  0.0412  0.1399
  107OSM    H6S10967   0.685   6.096  10.138  0.7061  0.1634  0.1714
  107OSM    H6T10968   0.623   6.264  10.168 -3.0134  0.9398  1.0518
  107OSM    C7S10969   0.468   6.123  10.124  0.8965 -0.1986 -0.3114
  107OSM    H7S10970   0.400   6.198  10.171 -1.0138 -2.7030  1.2255
  107OSM    H7T10971   0.451   6.017  10.153  0.8183 -0.3727 -0.9874
  107OSM    C8S10972   0.453   6.133   9.971  0.1086 -0.6043 -0.3655
  107OSM    H8S10973   0.349   6.112   9.942  0.7060 -2.3003 -1.3732
  107OSM    H8T10974   0.525   6.065   9.920 -1.9326 -1.6022 -2.0363
  107OSM    C9S10975   0.491   6.276   9.920 -0.1871 -0.2400  0.4367
  107OSM    H9S10976   0.597   6.283   9.952 -0.1691 -3.0988  1.2397
  107OSM    H9T10977   0.435   6.360   9.967 -0.1704 -0.2197  0.4219
  107OSM   C10S10978   0.498   6.278   9.766  0.1618  0.0264 -0.2955
  107OSM   H10S10979   0.394   6.281   9.727  0.3798 -0.3234 -0.9172
  107OSM   H10T10980   0.523   6.172   9.741 -0.3791 -0.1356 -0.1788
  107OSM   C11S10981   0.586   6.380   9.694 -0.8166 -0.4936  0.7612
  107OSM   H11S10982   0.695   6.367   9.713 -0.6373  0.4282  0.4055
  107OSM   H11T10983   0.556   6.479   9.735  1.2136  1.4775 -2.0848
  107OSM   C12S10984   0.561   6.402   9.543  0.3037  0.1624  0.3751
  107OSM   H12S10985   0.619   6.480   9.491 -0.3461 -1.1374 -2.5016
  107OSM   H12T10986   0.452   6.417   9.528  0.2237 -0.7677 -0.0589
  107OSM   C13S10987   0.587   6.276   9.455  0.0359  0.8104 -0.2682
  107OSM   H13S10988   0.520   6.194   9.488  0.3887  0.6786  0.1311
  107OSM   H13T10989   0.678   6.229   9.496 -1.8736 -1.4076  1.6948
  107OSM   C14S10990   0.574   6.284   9.299  0.0326 -0.4352  0.5988
  107OSM   H14S10991   0.597   6.185   9.255  0.2086 -1.1795  2.3030
  107OSM   H14T10992   0.651   6.359   9.268 -0.6819  0.2917  0.5376
  107OSM   C15S10993   0.434   6.315   9.256 -0.5099 -0.1350 -0.2398
  107OSM   H15S10994   0.409   6.416   9.295 -2.9117 -0.7152 -0.1351
  107OSM   H15T10995   0.361   6.247   9.306  0.8366 -0.0830  1.8830
  107OSM   C16S10996   0.412   6.321   9.107  0.4904 -0.1959  0.7033
  107OSM   H16S10997   0.306   6.330   9.073 -0.1572 -0.5781  2.4782
  107OSM   H16T10998   0.454   6.232   9.057  1.2266  1.0325 -0.9498
  107OSM   C17S10999   0.470   6.449   9.048 -0.4083 -0.7586 -0.4019
  107OSM   H17S11000   0.578   6.456   9.075  0.0078  1.8623 -2.3172
  107OSM   H17T11001   0.426   6.535   9.103  0.2987  0.6785 -2.0027
  107OSM   C18S11002   0.446   6.474   8.904  0.3123 -0.7004 -0.5139
  107OSM   H18S11003   0.336   6.488   8.903  0.4884  0.9374 -0.0474
  107OSM   H18T11004   0.488   6.391   8.843 -1.4190 -1.7436 -0.3408
  107OSM   H18U11005   0.494   6.570   8.875  0.7852 -0.9025 -0.4152
  107OSM    C1F11006   0.949   5.871  10.561  0.2490  0.5764  0.3704
  107OSM     OF11007   0.888   5.778  10.621  0.6014 -0.1252 -0.1232
  107OSM    C2F11008   1.082   5.844  10.491 -0.1469 -0.1007 -0.8489
  107OSM    H2F11009   1.153   5.829  10.575 -1.5599 -1.1624  0.1915
  107OSM    H2G11010   1.114   5.935  10.436  3.3259  0.8865  2.3864
  107OSM    C3F11011   1.073   5.717  10.398  0.1389 -0.1678 -0.9248
  107OSM    H3F11012   1.063   5.627  10.463 -0.6753  1.4523  1.3617
  107OSM    H3G11013   1.177   5.723  10.360  0.6707  1.0913  0.5739
  107OSM    C4F11014   0.982   5.721  10.282  0.4198 -0.1194 -0.2116
  107OSM    H4F11015   0.881   5.743  10.324  0.1494 -1.0027 -0.3721
  107OSM    H4G11016   0.990   5.624  10.228  0.2065  0.2320 -0.8855
  107OSM    C5F11017   1.010   5.836  10.184 -0.1574 -0.2482  0.3290
  107OSM    H5F11018   1.117   5.856  10.164 -0.4049  0.9043  0.0617
  107OSM    H5G11019   0.968   5.925  10.235 -1.0392 -0.9037  0.7780
  107OSM    C6F11020   0.930   5.821  10.052 -0.3627 -0.0259  0.4124
  107OSM    H6F11021   0.825   5.799  10.081 -0.3798 -0.8504 -0.2138
  107OSM    H6G11022   0.965   5.731   9.996  1.2064  1.7216 -1.5703
  107OSM    C7F11023   0.932   5.950   9.969  0.4289 -0.1048  0.0896
  107OSM    H7F11024   1.038   5.971   9.944  0.7286 -0.7924  0.7436
  107OSM    H7G11025   0.903   6.031  10.039  1.7301  0.3999  0.0691
  107OSM    C8F11026   0.848   5.933   9.837  0.2807 -0.6957  0.3819
  107OSM    H8F11027   0.747   5.890   9.848 -0.2449  0.3994 -0.0014
  107OSM    H8G11028   0.915   5.868   9.776  1.9065  2.0883 -1.0273
  107OSM    C9F11029   0.829   6.068   9.764 -0.3673  0.3484 -0.0915
  107OSM    H9F11030   0.780   6.146   9.824 -1.6960 -0.3095 -0.2865
  107OSM   C10F11031   0.851   6.084   9.628  0.3508 -0.7103 -0.2299
  107OSM   H10F11032   0.842   6.191   9.601  1.9103  0.5073  3.4830
  107OSM   C11F11033   0.893   5.985   9.522  0.3514  0.1474  0.1413
  107OSM   H11F11034   0.893   5.882   9.564 -0.3612  0.5290  1.0796
  107OSM   H11G11035   1.000   6.001   9.497  0.5641 -0.3940  0.6913
  107OSM   C12F11036   0.814   5.997   9.385  0.0882  0.3058  0.2151
  107OSM   H12F11037   0.706   6.017   9.404 -0.9260 -4.1321  0.1872
  107OSM   H12G11038   0.831   5.898   9.338  1.0875  0.4329  0.2884
  107OSM   C13F11039   0.890   6.085   9.288 -0.5707  0.5021  0.3617
  107OSM   H13F11040   0.994   6.048   9.289 -0.9838 -1.0536 -2.3551
  107OSM   H13G11041   0.893   6.191   9.323 -0.6133  0.8525 -0.6427
  107OSM   C14F11042   0.849   6.077   9.134 -0.4876  0.6190 -0.2058
  107OSM   H14F11043   0.740   6.101   9.130 -1.1376 -1.4500  2.1886
  107OSM   H14G11044   0.855   5.972   9.097 -1.1219 -0.3708  2.2769
  107OSM   C15F11045   0.931   6.171   9.042  0.4816 -1.0443 -0.5777
  107OSM   H15F11046   1.040   6.151   9.041  0.6818 -0.0944  0.6423
  107OSM   H15G11047   0.929   6.274   9.084  1.9007  0.0721 -3.0091
  107OSM   C16F11048   0.875   6.170   8.901  0.3141 -0.0702 -0.2542
  107OSM   H16F11049   0.925   6.247   8.839 -0.8200 -0.6772 -1.9921
  107OSM   H16G11050   0.770   6.206   8.910  0.4112 -0.0583  1.0027
  107OSM   C17F11051   0.896   6.032   8.832  0.3294 -0.0239  0.1125
  107OSM   H17F11052   0.826   5.953   8.867  1.7367 -1.8214 -0.9154
  107OSM   H17G11053   0.994   5.997   8.870 -0.1600 -1.3928  0.1815
  107OSM   C18F11054   0.898   6.040   8.674  0.3107 -0.8162  0.2168
  107OSM   H18F11055   0.996   6.077   8.639  0.1658 -0.5749  0.0680
  107OSM   H18G11056   0.830   6.118   8.634  1.4239 -0.9541 -2.1154
  107OSM   H18H11057   0.877   5.943   8.624 -2.2883 -0.5862  0.7034
  108OSM      N11058   3.755   5.635  10.982  0.4902  0.6271  0.0428
  108OSM    C1511059   3.686   5.574  11.101 -0.2646 -0.1520 -0.1943
  108OSM   H15A11060   3.623   5.645  11.153 -0.0986 -1.1863  1.5292
  108OSM   H15B11061   3.755   5.541  11.178 -1.5030 -0.4560  0.8204
  108OSM   H15C11062   3.639   5.482  11.071  0.4571 -1.2543  1.8340
  108OSM    C1411063   3.835   5.523  10.922  0.3015  0.1156 -0.0228
  108OSM   H14A11064   3.911   5.487  10.990 -1.2378 -1.7181  0.8484
  108OSM   H14B11065   3.872   5.554  10.826 -0.5814  0.5831 -0.2193
  108OSM   H14C11066   3.774   5.436  10.900  0.6928 -0.5197  1.2832
  108OSM    C1311067   3.657   5.665  10.881 -0.1475 -0.1350  0.1205
  108OSM   H13A11068   3.584   5.587  10.869  0.4731 -1.0174  1.8265
  108OSM   H13B11069   3.703   5.708  10.793 -2.5364 -0.2118 -1.2567
  108OSM   H13C11070   3.599   5.745  10.926  2.1334  0.7816  1.6018
  108OSM    C1211071   3.844   5.749  11.019 -0.0653  0.8057  0.6208
  108OSM   H12A11072   3.882   5.793  10.928 -0.8127 -0.4079 -0.3227
  108OSM   H12B11073   3.935   5.721  11.070 -0.1582  1.0230  0.9029
  108OSM    C1111074   3.780   5.862  11.097  0.2437  0.0870  0.9322
  108OSM   H11A11075   3.861   5.938  11.109  2.2914 -1.3625 -2.3278
  108OSM   H11B11076   3.744   5.835  11.199 -2.5507 -2.7149 -0.6429
  108OSM      P11077   3.650   6.067  11.000  0.0250 -0.0757 -0.1426
  108OSM    O1311078   3.506   6.085  10.977 -0.2523  0.3027  0.1294
  108OSM    O1411079   3.716   6.136  11.114 -0.0024 -0.3546  0.2414
  108OSM    O1111080   3.732   6.088  10.871 -0.1434  0.1769 -0.0374
  108OSM    O1211081   3.668   5.917  11.022  0.5751 -0.0988 -0.6060
  108OSM    C1S11082   3.656   6.045  10.743 -0.1656  0.5431 -0.2442
  108OSM    H1S11083   3.587   6.129  10.724 -0.1540  0.8043  0.8074
  108OSM    H1T11084   3.598   5.950  10.744  1.9360 -0.8118  0.6354
  108OSM     NF11085   3.663   6.041  10.493  0.2035 -0.1079  0.7307
  108OSM    HNF11086   3.612   5.958  10.474  0.3481  0.2177 -1.3176
  108OSM    C2S11087   3.745   6.035  10.616  0.4890 -0.2361 -0.1436
  108OSM    H2S11088   3.819   6.117  10.606  0.7627 -0.4801 -0.1306
  108OSM    C3S11089   3.829   5.906  10.634  0.5267  0.3511  0.6032
  108OSM    H3S11090   3.752   5.831  10.663 -0.4675  2.0897  2.7492
  108OSM     O311091   3.925   5.911  10.738  0.0753 -0.4687  0.4605
  108OSM    HO311092   3.910   5.993  10.786 -1.2519  0.6838 -1.7846
  108OSM    C4S11093   3.915   5.874  10.511  0.2435  0.4790 -0.3476
  108OSM    H4S11094   3.998   5.943  10.490  1.0617 -0.1331  0.7785
  108OSM    C5S11095   3.898   5.768  10.428  0.3302 -0.4197  0.1229
  108OSM    H5S11096   3.819   5.697  10.458  0.7393 -0.7579  0.4142
  108OSM    C6S11097   3.968   5.740  10.293  0.2304 -0.1054  0.1252
  108OSM    H6S11098   3.993   5.632  10.287 -1.8075 -0.7987  2.2953
  108OSM    H6T11099   4.053   5.810  10.278 -2.2862  2.8750 -1.6582
  108OSM    C7S11100   3.888   5.777  10.163  0.2908 -0.7551  0.0655
  108OSM    H7S11101   3.847   5.880  10.170  1.1906 -0.2473 -1.6054
  108OSM    H7T11102   3.800   5.709  10.163  0.2095 -0.6689  0.9738
  108OSM    C8S11103   3.982   5.748  10.034 -0.4075 -0.2813  0.7688
  108OSM    H8S11104   4.038   5.656  10.060  0.3509  0.0381  0.3349
  108OSM    H8T11105   4.067   5.820  10.031  0.9205 -1.7523  1.6415
  108OSM    C9S11106   3.913   5.760   9.900  0.5652 -0.7637  0.1656
  108OSM    H9S11107   3.871   5.861   9.884  1.5308 -0.1984  1.0864
  108OSM    H9T11108   3.837   5.679   9.893  0.9081 -1.0685 -0.0975
  108OSM   C10S11109   4.005   5.723   9.778  0.1221 -0.5005  0.7283
  108OSM   H10S11110   4.046   5.621   9.794 -0.6701 -1.2842 -1.7248
  108OSM   H10T11111   4.093   5.791   9.786 -0.4651  0.3106  0.4379
  108OSM   C11S11112   3.946   5.728   9.632 -0.1090  0.1008  0.1534
  108OSM   H11S11113   4.036   5.736   9.566 -0.2421  0.6670  0.0346
  108OSM   H11T11114   3.891   5.824   9.618  1.2781  0.8184 -0.5558
  108OSM   C12S11115   3.854   5.612   9.608  0.1031  0.3827 -0.2482
  108OSM   H12S11116   3.759   5.627   9.665  0.3605  1.3628 -0.0644
  108OSM   H12T11117   3.910   5.523   9.645  1.9390  1.3399 -0.6089
  108OSM   C13S11118   3.800   5.596   9.465  0.3666  0.3997  0.3190
  108OSM   H13S11119   3.883   5.613   9.393 -0.1509  0.2533 -0.3234
  108OSM   H13T11120   3.732   5.677   9.431 -0.5655 -0.1260  0.8986
  108OSM   C14S11121   3.742   5.463   9.422  0.3632  0.8600  0.2071
  108OSM   H14S11122   3.638   5.431   9.446  0.2890 -0.5419 -1.6739
  108OSM   H14T11123   3.801   5.383   9.471 -1.6545 -1.9036 -1.5797
  108OSM   C15S11124   3.744   5.442   9.271 -0.3499  0.3478  0.0492
  108OSM   H15S11125   3.724   5.337   9.242 -2.0416  0.1384  1.7690
  108OSM   H15T11126   3.844   5.469   9.230 -0.9921  1.7694 -0.6211
  108OSM   C16S11127   3.642   5.527   9.196  0.2656  0.5676 -0.3972
  108OSM   H16S11128   3.669   5.634   9.203  0.9281  0.4201 -0.6073
  108OSM   H16T11129   3.542   5.504   9.239  0.7387 -1.4939 -0.2589
  108OSM   C17S11130   3.620   5.487   9.046  0.2200  0.5947 -0.2513
  108OSM   H17S11131   3.715   5.481   8.989  1.2502 -1.0995  1.5112
  108OSM   H17T11132   3.554   5.566   9.005 -2.0701 -0.7016  0.7528
  108OSM   C18S11133   3.554   5.350   9.026 -0.1301  0.1626  0.0244
  108OSM   H18S11134   3.515   5.349   8.922 -1.5023  1.4567  0.5029
  108OSM   H18T11135   3.474   5.330   9.101  1.1487  0.8038  1.6232
  108OSM   H18U11136   3.627   5.267   9.033 -1.5050 -1.1440 -0.5575
  108OSM    C1F11137   3.627   6.165  10.445  0.8039  0.0826 -0.4583
  108OSM     OF11138   3.691   6.255  10.483  0.1193 -0.6728  0.6779
  108OSM    C2F11139   3.498   6.179  10.361 -0.4771  0.4417 -0.1105
  108OSM    H2F11140   3.410   6.175  10.428 -0.0116 -0.7834  0.4590
  108OSM    H2G11141   3.497   6.080  10.311  0.8972  0.5681 -0.4361
  108OSM    C3F11142   3.498   6.302  10.269  0.4207  0.4723  0.8075
  108OSM    H3F11143   3.599   6.303  10.222  1.7924 -1.2712  3.4810
  108OSM    H3G11144   3.484   6.398  10.322 -0.3202  0.5994  0.3853
  108OSM    C4F11145   3.391   6.294  10.160 -0.7274  0.3602 -0.5557
  108OSM    H4F11146   3.404   6.216  10.082 -2.7042  0.4096 -0.9869
  108OSM    H4G11147   3.386   6.388  10.102  0.4631  1.3933  0.9367
  108OSM    C5F11148   3.256   6.257  10.220  0.2556  0.6597 -0.7685
  108OSM    H5F11149   3.239   6.321  10.310  0.4766  0.5371 -0.6380
  108OSM    H5G11150   3.262   6.152  10.255  0.4928  0.3299 -1.7780
  108OSM    C6F11151   3.142   6.285  10.124 -0.2645 -0.3219 -1.0061
  108OSM    H6F11152   3.137   6.392  10.096 -1.2122 -0.5052 -1.5905
  108OSM    H6G11153   3.053   6.257  10.184  1.2575 -0.5527  1.2871
  108OSM    C7F11154   3.141   6.203   9.998 -0.5841  1.4709  1.1505
  108OSM    H7F11155   3.175   6.100  10.021  3.6113  3.0233  2.7593
  108OSM    H7G11156   3.225   6.238   9.936 -0.9930  1.0968  0.3748
  108OSM    C8F11157   3.025   6.217   9.901 -0.0585  0.1870  0.3395
  108OSM    H8F11158   3.066   6.158   9.816 -1.5470  0.4660 -0.6132
  108OSM    H8G11159   3.013   6.323   9.871  1.2613  0.2530 -0.0434
  108OSM    C9F11160   2.908   6.157   9.966 -0.5746  0.0616  0.7024
  108OSM    H9F11161   2.900   6.153  10.076  0.2165  1.1398  0.8193
  108OSM   C10F11162   2.801   6.109   9.900  0.4725  0.4505  0.2544
  108OSM   H10F11163   2.728   6.049   9.956 -0.6757  1.7908  0.2613
  108OSM   C11F11164   2.780   6.107   9.753 -0.1340 -0.4530 -0.6474
  108OSM   H11F11165   2.881   6.124   9.712  0.6694  1.2980  1.8426
  108OSM   H11G11166   2.718   6.195   9.725  0.1201  0.0371  0.2916
  108OSM   C12F11167   2.718   5.975   9.710 -0.2476 -0.6372 -0.1710
  108OSM   H12F11168   2.640   5.941   9.781 -2.0398 -1.1782 -2.2715
  108OSM   H12G11169   2.799   5.900   9.719 -0.6716 -0.8268  3.9032
  108OSM   C13F11170   2.652   5.964   9.579 -0.7058  0.1625 -0.4323
  108OSM   H13F11171   2.570   6.039   9.589 -1.7960 -1.2846  2.4983
  108OSM   H13G11172   2.604   5.864   9.578 -1.4176  0.4931 -1.9542
  108OSM   C14F11173   2.743   5.977   9.461 -0.1347 -0.3993  0.4769
  108OSM   H14F11174   2.814   5.892   9.457  0.9021  0.4938 -0.6535
  108OSM   H14G11175   2.809   6.066   9.459  2.9119 -2.5311  0.5681
  108OSM   C15F11176   2.659   5.953   9.328 -0.6062  0.2361  0.1470
  108OSM   H15F11177   2.576   6.027   9.327 -0.7285  0.1339  1.1285
  108OSM   H15G11178   2.608   5.854   9.332 -0.9935  0.3831 -0.8655
  108OSM   C16F11179   2.747   5.957   9.199  0.4962 -0.2386 -0.2891
  108OSM   H16F11180   2.669   5.953   9.119  0.1988  1.7573 -0.1434
  108OSM   H16G11181   2.830   5.884   9.188  1.2032  0.6679 -1.2189
  108OSM   C17F11182   2.815   6.095   9.184 -0.3196 -0.4283 -0.4528
  108OSM   H17F11183   2.897   6.091   9.258  1.0529 -2.8825 -1.9941
  108OSM   H17G11184   2.746   6.180   9.206 -0.7670 -1.3707  2.1727
  108OSM   C18F11185   2.875   6.111   9.043 -0.4099  0.1157 -0.2335
  108OSM   H18F11186   2.808   6.070   8.965 -1.1654  0.4786  0.2185
  108OSM   H18G11187   2.961   6.040   9.036 -0.2188  0.1813  1.1769
  108OSM   H18H11188   2.909   6.213   9.013  2.0694  0.2931  2.6394
  109OSM      N11189   4.318   0.484  10.933 -0.5745 -0.4220 -0.3130
  109OSM    C1511190   4.335   0.337  10.942  0.4597 -0.5256 -0.3073
  109OSM   H15A11191   4.388   0.305  11.030  0.7509  0.3107 -0.1712
  109OSM   H15B11192   4.396   0.296  10.863  2.3749  2.9669 -0.8414
  109OSM   H15C11193   4.240   0.286  10.941  0.6564 -0.9164  0.4658
  109OSM    C1411194   4.209   0.513  11.021 -0.3540  0.7563  0.3861
  109OSM   H14A11195   4.121   0.454  10.997 -0.3925  1.1704 -0.5294
  109OSM   H14B11196   4.194   0.619  11.003  0.6011  1.1345  1.6624
  109OSM   H14C11197   4.239   0.504  11.124  0.8204  1.6323  0.1363
  109OSM    C1311198   4.454   0.545  10.961  0.4709  0.3216 -0.3178
  109OSM   H13A11199   4.457   0.651  10.940 -0.1116 -0.0930 -2.7356
  109OSM   H13B11200   4.528   0.494  10.902  3.6227  1.4233  2.3862
  109OSM   H13C11201   4.481   0.536  11.065  0.7951 -0.2309 -0.4498
  109OSM    C1211202   4.271   0.524  10.800 -0.2804 -0.1584  0.1420
  109OSM   H12A11203   4.258   0.631  10.803  1.3453  0.0642  0.1510
  109OSM   H12B11204   4.168   0.492  10.789 -0.8390  1.3915  0.5091
  109OSM    C1111205   4.349   0.489  10.668 -0.3365 -0.2013 -0.3581
  109OSM   H11A11206   4.288   0.520  10.580 -0.8773 -0.5418 -0.1018
  109OSM   H11B11207   4.361   0.379  10.668  3.1026  0.0305  1.7251
  109OSM      P11208   4.534   0.690  10.625  0.2368 -0.2299 -0.2045
  109OSM    O1311209   4.492   0.803  10.714  0.2082  0.1793  0.7745
  109OSM    O1411210   4.676   0.679  10.601  0.4494  0.0668 -0.1526
  109OSM    O1111211   4.450   0.708  10.494  0.0830 -0.2331 -0.1209
  109OSM    O1211212   4.478   0.548  10.668 -0.4377 -0.0380 -0.0535
  109OSM    C1S11213   4.518   0.744  10.369  0.2910  0.5638  0.2674
  109OSM    H1S11214   4.584   0.658  10.343 -1.1846 -0.8882  1.1177
  109OSM    H1T11215   4.573   0.840  10.380 -0.4312  0.9033  0.9536
  109OSM     NF11216   4.473   0.796  10.130  0.0096 -0.0362  0.3142
  109OSM    HNF11217   4.473   0.882  10.081  1.7636 -0.2129 -0.0414
  109OSM    C2S11218   4.414   0.775  10.260 -0.0823 -0.3729  0.2021
  109OSM    H2S11219   4.352   0.683  10.251 -2.0368  0.9575 -0.4327
  109OSM    C3S11220   4.313   0.898  10.293  0.6879  0.4992  0.2953
  109OSM    H3S11221   4.374   0.989  10.275 -0.0442  1.4062  2.0978
  109OSM     O311222   4.284   0.911  10.433 -0.2311  0.1563 -0.1710
  109OSM    HO311223   4.339   0.849  10.481  0.3243  2.1754  2.0204
  109OSM    C4S11224   4.187   0.895  10.222 -0.2843 -0.0061 -0.0691
  109OSM    H4S11225   4.202   0.951  10.129  1.4532  0.8931  0.7072
  109OSM    C5S11226   4.072   0.826  10.241  0.1232 -0.2804  0.2897
  109OSM    H5S11227   4.061   0.758  10.327 -0.1473 -1.3407 -0.5574
  109OSM    C6S11228   3.946   0.827  10.149  0.0246 -0.1039 -0.3724
  109OSM    H6S11229   3.857   0.878  10.192 -0.5442  0.3570 -2.0382
  109OSM    H6T11230   3.925   0.719  10.134  1.0447 -0.5241  0.9582
  109OSM    C7S11231   3.975   0.888  10.012  0.2794  0.3557  0.0819
  109OSM    H7S11232   4.057   0.821   9.977 -1.3294 -1.9026  0.4114
  109OSM    H7T11233   4.020   0.989  10.006 -2.4905  1.7251  1.0908
  109OSM    C8S11234   3.864   0.849   9.907  0.1565 -0.3985  0.2417
  109OSM    H8S11235   3.767   0.902   9.920  0.2879 -0.3872  1.2674
  109OSM    H8T11236   3.844   0.740   9.914 -0.3604 -0.4494 -1.5110
  109OSM    C9S11237   3.921   0.860   9.773  0.0984 -0.1053  0.4409
  109OSM    H9S11238   3.996   0.779   9.766 -0.0154 -0.0690 -2.1937
  109OSM    H9T11239   3.983   0.950   9.754  1.0682 -1.0625 -1.1058
  109OSM   C10S11240   3.814   0.854   9.655 -0.4470 -0.0885  0.1350
  109OSM   H10S11241   3.727   0.920   9.676 -0.5866 -0.8575  2.2220
  109OSM   H10T11242   3.754   0.760   9.657 -0.8922  0.1653 -0.8028
  109OSM   C11S11243   3.870   0.877   9.514  0.3275 -0.0468  0.1883
  109OSM   H11S11244   3.932   0.790   9.484 -1.7556 -1.5543  0.0152
  109OSM   H11T11245   3.929   0.971   9.511  0.8949 -0.3536  1.3018
  109OSM   C12S11246   3.768   0.887   9.394  0.5986 -0.7415 -0.4080
  109OSM   H12S11247   3.693   0.968   9.406  1.8202  0.3144  0.4054
  109OSM   H12T11248   3.701   0.799   9.384 -0.5857  0.2545 -1.5676
  109OSM   C13S11249   3.838   0.913   9.258  0.0192 -0.5362  0.5454
  109OSM   H13S11250   3.925   0.847   9.243  1.1987  0.6421  1.8694
  109OSM   H13T11251   3.867   1.020   9.263  0.2005 -0.1572 -4.0016
  109OSM   C14S11252   3.746   0.916   9.131  0.3653  0.3986  0.0936
  109OSM   H14S11253   3.647   0.963   9.151 -0.1982 -0.9070  0.5170
  109OSM   H14T11254   3.728   0.812   9.096  0.5717 -0.0176  1.1684
  109OSM   C15S11255   3.817   0.988   9.021 -0.2426  0.4013  0.9458
  109OSM   H15S11256   3.918   0.942   9.015 -0.7286 -0.6903  0.7293
  109OSM   H15T11257   3.838   1.094   9.045 -3.3706  1.0314  1.3675
  109OSM   C16S11258   3.770   0.972   8.871  0.3939  0.1910  0.4242
  109OSM   H16S11259   3.671   1.022   8.864 -0.2980 -0.5523  3.4159
  109OSM   H16T11260   3.752   0.864   8.852  1.7188  0.0646 -0.2734
  109OSM   C17S11261   3.870   1.038   8.771  1.1288  0.7863  0.3852
  109OSM   H17S11262   3.957   0.971   8.757  1.3893  1.1587  0.1960
  109OSM   H17T11263   3.909   1.122   8.833  1.6559  0.9105 -0.1024
  109OSM   C18S11264   3.810   1.075   8.632  0.5385 -0.3388 -0.0822
  109OSM   H18S11265   3.769   0.983   8.584 -1.9817  0.7642 -0.1735
  109OSM   H18T11266   3.899   1.117   8.580  0.6944 -1.2861 -0.6037
  109OSM   H18U11267   3.727   1.146   8.648 -1.9564 -3.0821 -0.0254
  109OSM    C1F11268   4.544   0.701  10.073  0.0027  0.2782  0.3327
  109OSM     OF11269   4.570   0.593  10.118 -0.0556  0.0803 -1.0700
  109OSM    C2F11270   4.595   0.736   9.935 -0.0853  0.4643 -0.2035
  109OSM    H2F11271   4.667   0.821   9.944 -0.5366  0.7667  0.6128
  109OSM    H2G11272   4.505   0.763   9.876  1.9193 -0.0596 -3.8155
  109OSM    C3F11273   4.674   0.626   9.857 -0.0796 -1.0190  0.0725
  109OSM    H3F11274   4.612   0.534   9.845 -1.2956 -0.4452  1.5698
  109OSM    H3G11275   4.772   0.609   9.905  0.2088  2.4093  0.9477
  109OSM    C4F11276   4.718   0.657   9.711  0.3596 -0.3943 -0.2836
  109OSM    H4F11277   4.757   0.558   9.680 -0.1078 -0.5559 -0.3646
  109OSM    H4G11278   4.798   0.734   9.713  0.6738 -0.7257  1.0092
  109OSM    C5F11279   4.608   0.691   9.611 -0.0857  0.0971 -0.2812
  109OSM    H5F11280   4.559   0.783   9.649 -0.4974 -0.8712  1.6649
  109OSM    H5G11281   4.528   0.615   9.596 -2.3234  2.1711  0.6177
  109OSM    C6F11282   4.662   0.707   9.469 -0.5769 -0.2238 -0.8170
  109OSM    H6F11283   4.680   0.611   9.415  1.8970 -0.4831  0.3130
  109OSM    H6G11284   4.759   0.760   9.478 -0.8421  0.4879 -1.9550
  109OSM    C7F11285   4.563   0.786   9.380  0.2886  0.5724  0.2462
  109OSM    H7F11286   4.572   0.890   9.420  3.3781  0.5805 -0.1862
  109OSM    H7G11287   4.463   0.747   9.406  0.3854 -1.0629 -1.5830
  109OSM    C8F11288   4.579   0.791   9.233 -0.2196 -0.1785 -0.4964
  109OSM    H8F11289   4.681   0.828   9.209  0.1340  1.6675  3.1480
  109OSM    H8G11290   4.523   0.880   9.198 -0.8534 -0.6422 -0.6915
  109OSM    C9F11291   4.529   0.674   9.153  0.5648  0.6201 -0.5125
  109OSM    H9F11292   4.436   0.627   9.187  0.5436  1.1617  0.2024
  109OSM   C10F11293   4.583   0.628   9.033 -0.0194 -0.1498  0.0872
  109OSM   H10F11294   4.527   0.556   8.972  1.0779  0.0121 -1.1453
  109OSM   C11F11295   4.698   0.694   8.966  0.5771 -0.2273 -0.2444
  109OSM   H11F11296   4.793   0.649   9.003  0.2878 -1.0850 -0.5108
  109OSM   H11G11297   4.693   0.802   8.990  0.4632 -0.2260 -0.2719
  109OSM   C12F11298   4.684   0.676   8.810 -0.4451  0.2974  0.1200
  109OSM   H12F11299   4.687   0.572   8.770  1.2150  0.4951 -0.3228
  109OSM   H12G11300   4.776   0.723   8.770 -1.7065  1.9587 -0.9487
  109OSM   C13F11301   4.565   0.761   8.766 -0.1905  0.2314  0.1776
  109OSM   H13F11302   4.583   0.864   8.803 -1.3993  0.5988 -0.1902
  109OSM   H13G11303   4.470   0.735   8.819 -0.0138 -1.0378 -0.1025
  109OSM   C14F11304   4.552   0.763   8.615  0.2706  0.1052 -0.2393
  109OSM   H14F11305   4.653   0.768   8.569  0.6859 -1.3493  0.4700
  109OSM   H14G11306   4.482   0.845   8.588  1.9367  2.1820  1.4717
  109OSM   C15F11307   4.477   0.630   8.569  0.6140  0.2753 -0.6310
  109OSM   H15F11308   4.379   0.631   8.620  1.9941 -0.6458  2.2698
  109OSM   H15G11309   4.534   0.544   8.611  0.3010 -0.4284 -1.6140
  109OSM   C16F11310   4.448   0.622   8.420  0.3531  0.6408  0.2099
  109OSM   H16F11311   4.552   0.614   8.381  0.4127 -2.2729  0.7044
  109OSM   H16G11312   4.413   0.723   8.389 -1.4322  0.5789  1.8865
  109OSM   C17F11313   4.375   0.491   8.382  0.4051 -0.3958  0.4017
  109OSM   H17F11314   4.271   0.498   8.421  0.7546  0.5365  1.2165
  109OSM   H17G11315   4.425   0.403   8.428  1.8475  1.1417  1.9037
  109OSM   C18F11316   4.383   0.470   8.230 -0.6781  0.0399 -0.0234
  109OSM   H18F11317   4.338   0.372   8.204 -2.2970  0.3232  1.4949
  109OSM   H18G11318   4.487   0.461   8.191 -0.1465  1.7317  0.8802
  109OSM   H18H11319   4.334   0.550   8.170  0.3306  0.5968 -0.1335
  110OSM      N11320   6.039   6.268  11.072  0.7446 -0.0760 -0.7664
  110OSM    C1511321   6.177   6.243  11.027 -0.5700 -0.7718 -0.2215
  110OSM   H15A11322   6.224   6.330  10.984 -0.9693  0.6141  2.0021
  110OSM   H15B11323   6.170   6.170  10.948 -2.2680 -0.6206 -0.2641
  110OSM   H15C11324   6.235   6.191  11.101 -1.4694 -0.1541  0.9512
  110OSM    C1411325   5.982   6.151  11.139  0.4405 -0.6797 -0.2660
  110OSM   H14A11326   6.037   6.125  11.229  0.9364  1.6193  0.1715
  110OSM   H14B11327   5.979   6.066  11.074 -2.4570 -1.0586  0.2342
  110OSM   H14C11328   5.884   6.180  11.172  1.5294  0.8679  1.9320
  110OSM    C1311329   6.035   6.387  11.171 -0.9107 -0.4164  1.0571
  110OSM   H13A11330   6.067   6.472  11.112 -1.3287  0.7776  2.4772
  110OSM   H13B11331   6.102   6.377  11.255  0.8731  2.6216  0.1719
  110OSM   H13C11332   5.940   6.414  11.215  0.0669  0.6161  2.6192
  110OSM    C1211333   5.952   6.301  10.953  0.1497  0.4351 -0.1109
  110OSM   H12A11334   5.855   6.333  10.988  0.6781  1.0460  0.8678
  110OSM   H12B11335   5.950   6.214  10.889 -0.1998 -0.4967  1.1145
  110OSM    C1111336   5.998   6.414  10.867  0.1763  0.9508  0.2374
  110OSM   H11A11337   5.961   6.392  10.765  0.4049 -1.6163  0.6411
  110OSM   H11B11338   6.109   6.420  10.863  0.1863  0.7208  0.1617
  110OSM      P11339   5.804   6.575  10.893 -0.0353 -0.0991 -0.1325
  110OSM    O1311340   5.727   6.452  10.894  0.2627  0.6492 -0.0773
  110OSM    O1411341   5.765   6.668  11.002 -0.3014  0.2756 -0.0889
  110OSM    O1111342   5.795   6.656  10.757 -0.3768  0.5397 -0.7495
  110OSM    O1211343   5.954   6.538  10.915  0.7409 -0.2556  0.4098
  110OSM    C1S11344   5.892   6.765  10.742  0.0989  0.0714  0.6026
  110OSM    H1S11345   5.997   6.732  10.761 -0.0411 -0.1190  1.0665
  110OSM    H1T11346   5.861   6.844  10.813 -0.4720  1.2708 -0.9475
  110OSM     NF11347   5.997   6.910  10.572  0.2437 -0.1726  0.3505
  110OSM    HNF11348   5.961   7.001  10.557 -2.6905 -1.6094 -2.5524
  110OSM    C2S11349   5.894   6.806  10.593 -0.1729  0.3080 -0.0235
  110OSM    H2S11350   5.935   6.722  10.532  3.3726  1.5926  0.3479
  110OSM    C3S11351   5.756   6.846  10.536 -0.0379  0.0515 -0.0160
  110OSM    H3S11352   5.712   6.926  10.600 -0.3609 -0.1971  0.0724
  110OSM     O311353   5.667   6.738  10.534 -0.4283  0.5618 -0.0033
  110OSM    HO311354   5.709   6.669  10.586 -0.7236  1.2307  1.1610
  110OSM    C4S11355   5.770   6.912  10.401 -1.3636 -0.2582 -0.2375
  110OSM    H4S11356   5.752   7.021  10.396 -1.3722 -0.2701 -0.4506
  110OSM    C5S11357   5.796   6.838  10.290 -0.7139 -0.7449 -0.0856
  110OSM    H5S11358   5.794   6.729  10.303 -0.7155 -1.0864 -2.4872
  110OSM    C6S11359   5.798   6.890  10.151 -0.3507  0.4065  0.4923
  110OSM    H6S11360   5.831   6.808  10.084 -2.1867 -1.2523  1.5229
  110OSM    H6T11361   5.868   6.977  10.149  1.7679 -1.2041  0.1187
  110OSM    C7S11362   5.670   6.934  10.094  0.1779  0.1176 -1.0715
  110OSM    H7S11363   5.629   7.015  10.159  0.8843  0.0637 -0.5571
  110OSM    H7T11364   5.598   6.850  10.102 -1.3036  1.5002  1.6955
  110OSM    C8S11365   5.696   6.986   9.950  0.8246  0.1511  0.1165
  110OSM    H8S11366   5.743   6.909   9.885 -1.5283  0.1680 -1.6994
  110OSM    H8T11367   5.771   7.068   9.957 -0.9882  1.8719  0.2871
  110OSM    C9S11368   5.557   7.019   9.894 -0.3371  0.1567  0.1531
  110OSM    H9S11369   5.507   7.096   9.956  1.1847  2.4483 -1.3043
  110OSM    H9T11370   5.502   6.928   9.925  2.9007 -1.9153  0.1913
  110OSM   C10S11371   5.545   7.038   9.735 -0.5826  0.6149 -0.0815
  110OSM   H10S11372   5.600   7.131   9.705 -2.1118  1.1469 -1.3735
  110OSM   H10T11373   5.444   7.079   9.715 -0.6221 -0.2059 -1.7111
  110OSM   C11S11374   5.595   6.913   9.656  0.2837 -1.1183  0.0910
  110OSM   H11S11375   5.537   6.822   9.682  0.3167 -0.2455  3.9507
  110OSM   H11T11376   5.703   6.901   9.683  0.2894  1.4489  1.5448
  110OSM   C12S11377   5.603   6.925   9.502 -0.2285  0.3828  0.5951
  110OSM   H12S11378   5.662   6.835   9.473  0.0345  0.4986  0.7651
  110OSM   H12T11379   5.659   7.016   9.470  2.2296 -0.9088  1.0259
  110OSM   C13S11380   5.461   6.910   9.439 -0.8240  0.5897  0.0608
  110OSM   H13S11381   5.390   6.966   9.505 -1.3405 -1.5206  1.3952
  110OSM   H13T11382   5.430   6.806   9.461 -0.2172  0.7763  2.0345
  110OSM   C14S11383   5.459   6.976   9.297  0.1034  0.3376  0.7728
  110OSM   H14S11384   5.500   7.079   9.308 -0.9241  1.0535 -1.5352
  110OSM   H14T11385   5.355   6.993   9.262  0.9710 -1.1808 -3.0365
  110OSM   C15S11386   5.542   6.902   9.197  0.4459  1.1241  0.1588
  110OSM   H15S11387   5.500   6.799   9.191  1.8413  0.5384 -5.3367
  110OSM   H15T11388   5.649   6.896   9.226 -0.2799  0.4105  2.9411
  110OSM   C16S11389   5.526   6.970   9.064 -0.0576 -0.5400  0.0289
  110OSM   H16S11390   5.586   7.062   9.084 -0.8320  0.1612 -0.8253
  110OSM   H16T11391   5.420   7.000   9.050 -0.0732 -1.1849 -1.4492
  110OSM   C17S11392   5.570   6.900   8.937  0.3263 -0.1533  0.4957
  110OSM   H17S11393   5.518   6.802   8.932  0.3292 -0.1165 -3.7502
  110OSM   H17T11394   5.680   6.884   8.932  0.1139 -1.4137 -0.7053
  110OSM   C18S11395   5.533   6.984   8.811 -0.3158  0.1689 -0.2697
  110OSM   H18S11396   5.428   7.015   8.827 -0.4352 -0.3925  0.0466
  110OSM   H18T11397   5.534   6.924   8.717 -1.5044  0.6759 -0.6331
  110OSM   H18U11398   5.594   7.077   8.811 -0.3473  0.1940 -0.6287
  110OSM    C1F11399   6.128   6.896  10.596 -0.5399  0.1206  0.1541
  110OSM     OF11400   6.184   6.797  10.639 -0.8434  0.3699 -0.0269
  110OSM    C2F11401   6.204   7.022  10.564 -0.4712 -0.4717  0.0114
  110OSM    H2F11402   6.222   7.079  10.658 -0.4646  2.0244 -1.4282
  110OSM    H2G11403   6.155   7.084  10.486 -1.5718 -1.9940 -0.5567
  110OSM    C3F11404   6.341   6.977  10.504 -0.4225 -0.0354 -0.3802
  110OSM    H3F11405   6.379   6.896  10.570 -1.0427  0.1356  0.1991
  110OSM    H3G11406   6.402   7.069  10.507  0.0765 -0.3875  1.2653
  110OSM    C4F11407   6.326   6.922  10.362  0.0898 -0.2796 -0.8490
  110OSM    H4F11408   6.238   6.856  10.344 -0.4606  0.8589 -2.6493
  110OSM    H4G11409   6.413   6.854  10.350 -0.5945 -2.0863  2.9272
  110OSM    C5F11410   6.302   7.033  10.261  0.3694 -0.1954 -0.8176
  110OSM    H5F11411   6.389   7.102  10.267  2.3856 -2.3688 -2.9187
  110OSM    H5G11412   6.200   7.076  10.276 -0.4879 -2.0032 -1.2244
  110OSM    C6F11413   6.299   6.967  10.118 -0.1261 -0.5121 -0.1187
  110OSM    H6F11414   6.224   6.885  10.117  0.4039 -1.0332  0.9363
  110OSM    H6G11415   6.403   6.928  10.111  0.0091 -0.0572 -0.6905
  110OSM    C7F11416   6.268   7.075  10.011  0.1605 -0.4731  0.3216
  110OSM    H7F11417   6.364   7.131  10.005 -0.7676  1.2174  0.7152
  110OSM    H7G11418   6.174   7.126  10.039  0.3653 -0.3882  0.8637
  110OSM    C8F11419   6.239   7.015   9.874  0.2146  0.5452 -0.1919
  110OSM    H8F11420   6.336   6.967   9.848  0.3946 -0.3262  1.9101
  110OSM    H8G11421   6.225   7.097   9.800 -3.6852 -0.2838 -0.5636
  110OSM    C9F11422   6.120   6.921   9.861 -0.1889 -0.7694  0.2495
  110OSM    H9F11423   6.119   6.848   9.943 -1.6108 -1.7499 -0.6010
  110OSM   C10F11424   6.028   6.932   9.758  0.1248 -0.2847  0.5436
  110OSM   H10F11425   5.947   6.857   9.754 -0.7531  0.6242  0.7163
  110OSM   C11F11426   6.038   7.022   9.635 -0.0687  0.6624  0.2231
  110OSM   H11F11427   6.143   7.058   9.623 -0.1391  1.4515  1.6840
  110OSM   H11G11428   5.965   7.105   9.649  0.7013  1.1744  1.4691
  110OSM   C12F11429   5.996   6.951   9.503 -0.6878 -0.5911 -0.1720
  110OSM   H12F11430   5.915   6.877   9.521 -1.7359  0.6448  0.3462
  110OSM   H12G11431   6.086   6.898   9.466 -1.3283  0.2101 -3.1208
  110OSM   C13F11432   5.964   7.044   9.393  0.1861 -0.0681  0.2549
  110OSM   H13F11433   6.023   7.138   9.393  1.4151 -0.8292  0.2817
  110OSM   H13G11434   5.855   7.065   9.406  0.3860  1.3503 -0.1093
  110OSM   C14F11435   5.988   6.988   9.253  0.5485 -0.4416  0.6029
  110OSM   H14F11436   5.918   6.901   9.247 -0.6094  0.4757  0.4259
  110OSM   H14G11437   6.093   6.954   9.241  0.8339  0.8080 -0.7118
  110OSM   C15F11438   5.945   7.080   9.139 -0.4285 -0.2505  0.3181
  110OSM   H15F11439   6.005   7.172   9.153 -1.0312  0.0244  1.1191
  110OSM   H15G11440   5.837   7.099   9.154  0.0637  1.6530  1.9336
  110OSM   C16F11441   5.976   7.011   9.008 -0.0941  0.2233  0.0233
  110OSM   H16F11442   5.916   6.918   9.025 -1.3461  0.8567 -0.7288
  110OSM   H16G11443   6.082   6.979   9.003  0.0488 -0.0966  3.2429
  110OSM   C17F11444   5.920   7.079   8.888  0.9938 -0.2991 -0.2414
  110OSM   H17F11445   5.808   7.078   8.886  0.9942 -0.4781 -0.1393
  110OSM   H17G11446   5.953   7.033   8.793  1.2359  0.1235 -0.3624
  110OSM   C18F11447   5.969   7.217   8.887  0.4056 -0.9469 -0.2897
  110OSM   H18F11448   5.931   7.273   8.976 -0.4058  1.1282 -1.8601
  110OSM   H18G11449   5.956   7.256   8.784 -1.8313 -1.0770 -0.1098
  110OSM   H18H11450   6.080   7.211   8.893  0.3473 -0.9885  1.1166
  111OSM      N11451   1.146   0.455  11.014 -0.7242  0.0864 -0.0724
  111OSM    C1511452   1.134   0.600  10.992 -0.9782 -0.2458  0.1744
  111OSM   H15A11453   1.161   0.653  11.082 -0.2437 -1.4293  0.6811
  111OSM   H15B11454   1.032   0.617  10.958 -1.4271 -0.6748  1.2527
  111OSM   H15C11455   1.198   0.637  10.914 -0.5168  1.2842  1.2320
  111OSM    C1411456   1.290   0.418  11.056  0.4176 -0.3819 -0.2669
  111OSM   H14A11457   1.298   0.314  11.084  1.4674 -0.5317 -1.0465
  111OSM   H14B11458   1.335   0.471  11.138  1.4597 -2.2489  0.4172
  111OSM   H14C11459   1.365   0.423  10.978  2.3094  2.2355  1.5376
  111OSM    C1311460   1.059   0.408  11.127  0.1092  0.2843 -0.2144
  111OSM   H13A11461   1.104   0.435  11.221  0.0296 -1.0533  0.2310
  111OSM   H13B11462   1.051   0.301  11.139 -1.4086  0.6055  2.4454
  111OSM   H13C11463   0.961   0.450  11.112  0.2723  0.9919  0.6411
  111OSM    C1211464   1.106   0.381  10.885 -1.1436  0.5475  0.0249
  111OSM   H12A11465   1.011   0.424  10.854 -3.0852 -0.7530  3.5910
  111OSM   H12B11466   1.080   0.277  10.890  2.0217 -0.3648 -0.5440
  111OSM    C1111467   1.195   0.375  10.761 -0.6358 -0.0452  0.9031
  111OSM   H11A11468   1.149   0.319  10.678  0.7772  1.5512 -1.0594
  111OSM   H11B11469   1.290   0.324  10.788 -1.4759 -1.4818  1.2000
  111OSM      P11470   1.360   0.573  10.684 -0.2262  0.2940  0.2695
  111OSM    O1311471   1.347   0.721  10.670 -0.4451  0.0693 -0.2058
  111OSM    O1411472   1.446   0.529  10.791 -0.2912  0.3017 -0.3052
  111OSM    O1111473   1.406   0.498  10.547  0.0293 -0.3966 -0.4586
  111OSM    O1211474   1.215   0.509  10.704 -0.0805  0.0573  0.0964
  111OSM    C1S11475   1.452   0.366  10.541 -0.4774 -0.3537 -0.5422
  111OSM    H1S11476   1.376   0.291  10.571 -0.3135 -0.7061 -0.9902
  111OSM    H1T11477   1.553   0.358  10.587 -0.7933 -0.5544  0.1295
  111OSM     NF11478   1.522   0.188  10.395  0.6057 -0.5117  0.0487
  111OSM    HNF11479   1.616   0.160  10.375  0.4889 -1.3509  0.6215
  111OSM    C2S11480   1.478   0.326  10.394 -0.2984 -0.1272  0.7672
  111OSM    H2S11481   1.380   0.333  10.342  0.3733 -0.7094 -0.6114
  111OSM    C3S11482   1.567   0.421  10.314 -0.4908  0.0085  0.3273
  111OSM    H3S11483   1.662   0.434  10.369 -0.2157 -0.4810 -0.0259
  111OSM     O311484   1.518   0.556  10.306 -0.2437  0.2868 -0.2568
  111OSM    HO311485   1.462   0.566  10.383  0.5552 -2.3450  0.7756
  111OSM    C4S11486   1.596   0.369  10.177  0.3234  0.0468  0.1128
  111OSM    H4S11487   1.689   0.309  10.174  0.1420 -0.3178  1.3131
  111OSM    C5S11488   1.526   0.392  10.066  0.3217 -0.3314 -0.6489
  111OSM    H5S11489   1.433   0.450  10.079  0.8002  0.2170  0.5086
  111OSM    C6S11490   1.557   0.342   9.923 -0.4605  0.1441 -0.1480
  111OSM    H6S11491   1.538   0.420   9.846  0.7742 -1.3834 -2.0791
  111OSM    H6T11492   1.490   0.255   9.908  2.1176 -1.7630 -1.3689
  111OSM    C7S11493   1.700   0.287   9.909  0.6454 -1.0783 -0.7401
  111OSM    H7S11494   1.713   0.191   9.964  1.7280 -2.0244 -2.5363
  111OSM    H7T11495   1.769   0.358   9.958 -1.5441  1.1648 -0.6972
  111OSM    C8S11496   1.740   0.268   9.759  0.4295  0.4993  0.1392
  111OSM    H8S11497   1.740   0.371   9.716  1.3754  0.7156  0.6304
  111OSM    H8T11498   1.665   0.202   9.710  0.5346 -0.8600  1.7409
  111OSM    C9S11499   1.869   0.197   9.742 -0.0250 -0.3083 -0.1273
  111OSM    H9S11500   1.846   0.091   9.768  1.7789 -0.0493  3.1775
  111OSM    H9T11501   1.954   0.226   9.808  0.7399 -1.4068 -0.5826
  111OSM   C10S11502   1.915   0.221   9.602 -0.1026  0.3970  0.6411
  111OSM   H10S11503   1.989   0.143   9.574  0.6008  1.7612 -1.5738
  111OSM   H10T11504   1.962   0.320   9.583  1.7563 -0.1517  2.0922
  111OSM   C11S11505   1.805   0.213   9.491 -0.5808 -0.0047 -0.1589
  111OSM   H11S11506   1.741   0.304   9.481 -2.6285 -1.4152 -0.5752
  111OSM   H11T11507   1.731   0.134   9.517  0.6675 -1.2432 -0.2812
  111OSM   C12S11508   1.853   0.174   9.346 -0.3337 -0.0906 -0.1866
  111OSM   H12S11509   1.786   0.092   9.312 -0.6052 -0.3504  0.9445
  111OSM   H12T11510   1.954   0.129   9.363 -1.2435 -1.9692  0.5551
  111OSM   C13S11511   1.846   0.284   9.242  0.1740  0.0544  0.0635
  111OSM   H13S11512   1.898   0.375   9.278  1.5818 -1.2323  1.4669
  111OSM   H13T11513   1.740   0.315   9.240  0.3442  0.5938 -0.8106
  111OSM   C14S11514   1.903   0.248   9.098  0.5439 -0.6661 -0.0398
  111OSM   H14S11515   1.933   0.328   9.027  2.3549 -0.9313  0.3649
  111OSM   H14T11516   1.822   0.189   9.051 -0.9028  1.7709 -0.7673
  111OSM   C15S11517   2.037   0.164   9.095 -0.0727 -0.0407 -0.3767
  111OSM   H15S11518   2.016   0.079   9.163  1.0892  1.8865  2.5735
  111OSM   H15T11519   2.120   0.220   9.143 -1.1321  0.1442  1.3107
  111OSM   C16S11520   2.071   0.108   8.955 -0.1019 -0.2958  0.0504
  111OSM   H16S11521   2.093   0.200   8.898 -1.6389  0.6227  0.8709
  111OSM   H16T11522   1.979   0.072   8.905 -0.9545 -0.0911  1.4259
  111OSM   C17S11523   2.184  -0.003   8.940 -0.3614  0.5785 -0.4490
  111OSM   H17S11524   2.136  -0.094   8.981 -0.0905  0.2803 -0.7821
  111OSM   H17T11525   2.277   0.021   8.996 -0.6848 -1.0034  0.8518
  111OSM   C18S11526   2.217  -0.023   8.794 -0.1450 -0.0787 -0.3148
  111OSM   H18S11527   2.231   0.075   8.743 -0.2195  0.4250  0.6245
  111OSM   H18T11528   2.141  -0.086   8.741 -0.8692  0.0162  0.5808
  111OSM   H18U11529   2.319  -0.066   8.798  0.3209  0.9970 -0.3837
  111OSM    C1F11530   1.432   0.086  10.416  0.3382  0.4120  0.6475
  111OSM     OF11531   1.317   0.107  10.447 -0.2078  0.3260  0.1947
  111OSM    C2F11532   1.483  -0.052  10.391  0.2249  0.1337  0.6730
  111OSM    H2F11533   1.403  -0.127  10.373 -0.3988  0.6340  1.3089
  111OSM    H2G11534   1.526  -0.084  10.489  0.5495  0.9649  0.8118
  111OSM    C3F11535   1.589  -0.059  10.279 -0.0811 -0.1639  0.0691
  111OSM    H3F11536   1.631  -0.162  10.269 -0.2152 -0.0817 -1.5558
  111OSM    H3G11537   1.685  -0.003  10.292  0.2895 -0.4966 -1.1316
  111OSM    C4F11538   1.523  -0.024  10.138 -0.2618 -0.3892 -0.5165
  111OSM    H4F11539   1.537   0.083  10.110  0.8126 -0.7289 -1.3406
  111OSM    H4G11540   1.415  -0.037  10.157 -0.1825 -0.2332  0.0802
  111OSM    C5F11541   1.574  -0.117  10.030 -0.2924  0.3481 -0.4193
  111OSM    H5F11542   1.540  -0.219  10.055 -0.2292 -0.7077 -4.1087
  111OSM    H5G11543   1.685  -0.109  10.028 -0.0561 -0.8854  2.5413
  111OSM    C6F11544   1.530  -0.066   9.890 -0.4291  1.2603 -0.1868
  111OSM    H6F11545   1.581   0.031   9.875 -1.5258  1.7975 -0.5438
  111OSM    H6G11546   1.420  -0.060   9.877 -0.6834  0.2286  1.2089
  111OSM    C7F11547   1.583  -0.165   9.780 -0.5280 -1.7043  1.3239
  111OSM    H7F11548   1.532  -0.262   9.797 -1.0524 -2.4513 -3.3411
  111OSM    H7G11549   1.692  -0.166   9.804 -0.0756  1.3786 -0.1252
  111OSM    C8F11550   1.568  -0.130   9.630 -1.0812 -0.1007  0.0132
  111OSM    H8F11551   1.606  -0.027   9.615  1.4444 -0.6707  1.8796
  111OSM    H8G11552   1.463  -0.118   9.594 -0.9550  1.9731  0.1832
  111OSM    C9F11553   1.642  -0.223   9.540  0.2323  0.0330 -0.2199
  111OSM    H9F11554   1.748  -0.243   9.566  0.7199 -1.2810 -2.8828
  111OSM   C10F11555   1.602  -0.281   9.422  0.9037 -0.0269 -0.0962
  111OSM   H10F11556   1.663  -0.341   9.353 -0.1150 -2.6485  1.1344
  111OSM   C11F11557   1.463  -0.257   9.357 -0.0609  0.3828  0.3660
  111OSM   H11F11558   1.392  -0.203   9.423  1.2420  1.1822  1.1551
  111OSM   H11G11559   1.426  -0.360   9.337  1.3694  0.2157 -1.7698
  111OSM   C12F11560   1.465  -0.187   9.220 -0.1019 -0.3750  0.4677
  111OSM   H12F11561   1.360  -0.183   9.183 -0.8086  1.8041  2.4013
  111OSM   H12G11562   1.528  -0.242   9.147  3.3958  2.0969  1.3449
  111OSM   C13F11563   1.517  -0.042   9.223  0.1930  0.1599 -0.6411
  111OSM   H13F11564   1.611  -0.048   9.281 -1.0271  2.6924  1.8255
  111OSM   H13G11565   1.446   0.021   9.280 -0.4642  0.8359 -2.1542
  111OSM   C14F11566   1.542   0.027   9.085 -0.1090  0.5194  0.2836
  111OSM   H14F11567   1.634  -0.021   9.045 -1.2731 -0.5143 -1.3183
  111OSM   H14G11568   1.569   0.133   9.102  0.6094  0.5249 -0.7684
  111OSM   C15F11569   1.418   0.009   8.996 -0.9047  0.1530  0.2461
  111OSM   H15F11570   1.340   0.062   9.054  0.6168  2.5396  0.2685
  111OSM   H15G11571   1.389  -0.098   8.986 -0.8264 -0.0065  1.5574
  111OSM   C16F11572   1.441   0.082   8.863  0.3181  1.0005  0.8912
  111OSM   H16F11573   1.520   0.036   8.799  1.2975  2.4700  1.0039
  111OSM   H16G11574   1.477   0.184   8.889  2.0363  0.8629 -0.7317
  111OSM   C17F11575   1.315   0.074   8.771 -0.6954 -0.1763 -0.2898
  111OSM   H17F11576   1.248   0.134   8.836 -0.8112  1.6628 -2.0066
  111OSM   H17G11577   1.273  -0.029   8.766 -0.5053 -0.2874  0.3713
  111OSM   C18F11578   1.329   0.131   8.628  0.6859 -0.7404 -0.3228
  111OSM   H18F11579   1.227   0.142   8.585  1.0154  5.6416 -0.5004
  111OSM   H18G11580   1.400   0.073   8.565  1.1523  0.9622 -1.4380
  111OSM   H18H11581   1.370   0.235   8.634  0.4173 -0.7255  1.9658
  112OSM      N11582   0.066   1.168  11.153  0.0447 -0.0325  0.4813
  112OSM    C1511583   0.027   1.197  11.007 -0.2967 -0.0931  0.8027
  112OSM   H15A11584  -0.013   1.115  10.950  0.2812 -0.1770  0.5024
  112OSM   H15B11585   0.106   1.241  10.947 -1.6341  0.9864 -0.2448
  112OSM   H15C11586  -0.053   1.269  11.010  0.6777  1.0326  0.6788
  112OSM    C1411587   0.139   1.287  11.195 -0.0146  0.3511  0.6468
  112OSM   H14A11588   0.225   1.306  11.133 -1.7091 -1.1207 -2.3571
  112OSM   H14B11589   0.156   1.277  11.301 -1.3846 -2.0043  0.7207
  112OSM   H14C11590   0.071   1.370  11.188 -2.1084 -1.2983  0.4620
  112OSM    C1311591  -0.056   1.155  11.234 -0.3162 -0.4436  0.1626
  112OSM   H13A11592  -0.033   1.131  11.337 -0.9562 -0.1135  0.3859
  112OSM   H13B11593  -0.117   1.070  11.207 -0.4044  0.5310 -3.1228
  112OSM   H13C11594  -0.116   1.245  11.230 -1.2525 -1.1011 -1.8210
  112OSM    C1211595   0.146   1.035  11.158  0.4349  0.6170 -0.0454
  112OSM   H12A11596   0.152   1.011  11.263 -0.9598  1.0348  0.1561
  112OSM   H12B11597   0.242   1.064  11.119  0.7044  0.5754  0.5718
  112OSM    C1111598   0.091   0.913  11.088 -0.4458  0.6249 -0.0504
  112OSM   H11A11599   0.155   0.822  11.095  1.3365  1.5165 -2.8916
  112OSM   H11B11600   0.099   0.933  10.979 -0.5545 -0.0303 -0.1831
  112OSM      P11601  -0.124   0.759  11.109  0.1602  0.2972  0.1268
  112OSM    O1311602  -0.042   0.643  11.141 -0.2753 -0.6040  0.7829
  112OSM    O1411603  -0.254   0.773  11.175  0.1608  0.0611 -0.1859
  112OSM    O1111604  -0.156   0.753  10.951 -0.1634 -0.1250  0.4411
  112OSM    O1211605  -0.042   0.890  11.130  0.0067 -0.7189  0.6166
  112OSM    C1S11606  -0.056   0.717  10.856  0.0789 -0.2733 -0.8003
  112OSM    H1S11607  -0.053   0.606  10.856 -1.1601 -0.3254 -0.9444
  112OSM    H1T11608   0.047   0.745  10.885 -1.1814  0.8788  3.1004
  112OSM     NF11609  -0.041   0.691  10.604 -0.4582 -0.1880 -0.2915
  112OSM    HNF11610   0.055   0.698  10.581 -0.4884 -1.0121 -0.6993
  112OSM    C2S11611  -0.086   0.775  10.713 -0.3091  0.2201 -0.7556
  112OSM    H2S11612  -0.197   0.763  10.710 -0.1274 -3.0170  1.0128
  112OSM    C3S11613  -0.054   0.925  10.709 -0.7317 -0.4092 -0.0365
  112OSM    H3S11614   0.057   0.923  10.716 -0.7483 -3.8207  0.9679
  112OSM     O311615  -0.097   1.002  10.817  0.0520  0.2414  0.3929
  112OSM    HO311616  -0.141   0.937  10.872 -0.5897 -0.0337 -0.4243
  112OSM    C4S11617  -0.103   0.980  10.575 -0.1031 -0.3129 -0.7932
  112OSM    H4S11618  -0.032   0.982  10.490  0.3739 -1.4372 -0.4405
  112OSM    C5S11619  -0.221   1.049  10.555  0.5596  0.3665  0.0920
  112OSM    H5S11620  -0.285   1.067  10.643 -2.5353 -4.5826 -0.7622
  112OSM    C6S11621  -0.269   1.114  10.430 -0.0676  0.2604 -0.1231
  112OSM    H6S11622  -0.287   1.223  10.445  0.7890  0.1517  1.9265
  112OSM    H6T11623  -0.378   1.092  10.421 -0.3412  1.3094  0.4474
  112OSM    C7S11624  -0.189   1.092  10.300  0.6260  0.1625  0.0423
  112OSM    H7S11625  -0.197   0.989  10.259 -1.0994  0.7283 -1.1839
  112OSM    H7T11626  -0.081   1.105  10.322  0.5006 -0.0392  0.7976
  112OSM    C8S11627  -0.240   1.180  10.189 -0.1336  0.2003 -0.1864
  112OSM    H8S11628  -0.211   1.287  10.200  0.0225  0.0634  0.8675
  112OSM    H8T11629  -0.347   1.164  10.166  0.0861  0.8128 -1.7661
  112OSM    C9S11630  -0.178   1.136  10.055  0.0195 -0.7932 -0.5343
  112OSM    H9S11631  -0.161   1.026  10.059  0.5601 -0.6828  0.8313
  112OSM    H9T11632  -0.079   1.179  10.026 -0.1174 -1.5680 -2.3309
  112OSM   C10S11633  -0.257   1.179   9.927 -0.2076 -0.1121 -0.5878
  112OSM   H10S11634  -0.243   1.289   9.921 -1.9373  0.2203  0.6718
  112OSM   H10T11635  -0.362   1.144   9.942 -0.6104  1.9369  2.2488
  112OSM   C11S11636  -0.199   1.109   9.802 -0.0395  0.4381 -0.2999
  112OSM   H11S11637  -0.201   0.999   9.820 -0.3579  0.5327  0.2465
  112OSM   H11T11638  -0.092   1.139   9.799  0.1039  0.5214  2.7729
  112OSM   C12S11639  -0.276   1.136   9.675 -0.2573 -0.1374 -0.1063
  112OSM   H12S11640  -0.281   1.246   9.668 -0.3065  0.0767  2.5998
  112OSM   H12T11641  -0.381   1.106   9.693  0.2592 -1.4707  0.8330
  112OSM   C13S11642  -0.218   1.062   9.546  0.6249  0.3727  0.4656
  112OSM   H13S11643  -0.228   0.952   9.561 -0.1911  0.3881  0.0837
  112OSM   H13T11644  -0.109   1.084   9.539  0.5968  0.4844  0.3650
  112OSM   C14S11645  -0.275   1.099   9.409 -1.3646 -1.1749  0.4335
  112OSM   H14S11646  -0.301   1.206   9.419 -2.9847 -1.7106  2.7328
  112OSM   H14T11647  -0.375   1.052   9.399 -1.3052 -0.9906 -1.2504
  112OSM   C15S11648  -0.178   1.088   9.290  0.3461  0.2643  0.3365
  112OSM   H15S11649  -0.118   0.995   9.296 -0.0913  0.0398  1.6199
  112OSM   H15T11650  -0.109   1.174   9.281  0.4268  0.1163 -0.5484
  112OSM   C16S11651  -0.261   1.091   9.162  0.6441  0.1894  0.5732
  112OSM   H16S11652  -0.325   1.182   9.153 -2.2250 -1.4730  2.5503
  112OSM   H16T11653  -0.326   1.002   9.173  1.9835 -0.9229 -0.2378
  112OSM   C17S11654  -0.183   1.058   9.035 -0.2672 -0.1197 -0.3974
  112OSM   H17S11655  -0.255   1.037   8.953 -0.9464  0.2328  0.0946
  112OSM   H17T11656  -0.120   0.966   9.044  1.3415  1.0491  1.0505
  112OSM   C18S11657  -0.094   1.175   8.988  0.3647  0.6164 -0.5530
  112OSM   H18S11658  -0.072   1.167   8.880 -0.4776  0.7790 -0.7451
  112OSM   H18T11659   0.002   1.170   9.043  0.4354 -0.1680 -0.7365
  112OSM   H18U11660  -0.151   1.270   8.998 -2.2653 -0.7901 -1.1720
  112OSM    C1F11661  -0.096   0.574  10.584  0.8790  0.1605 -0.0056
  112OSM     OF11662  -0.212   0.555  10.621  0.7872  0.0037  0.2190
  112OSM    C2F11663  -0.005   0.464  10.530 -0.6748  0.1965  0.0595
  112OSM    H2F11664   0.027   0.402  10.617 -0.3642 -0.0458 -0.2262
  112OSM    H2G11665   0.085   0.505  10.479  0.2363  0.5336  1.8296
  112OSM    C3F11666  -0.063   0.372  10.422  0.1952  0.3067  0.8374
  112OSM    H3F11667  -0.097   0.438  10.339  0.8987 -1.3794 -0.8752
  112OSM    H3G11668  -0.150   0.315  10.461  1.5037 -4.2785 -2.1196
  112OSM    C4F11669   0.034   0.266  10.361 -0.3587 -0.4510 -0.5010
  112OSM    H4F11670   0.055   0.185  10.433 -0.5857  0.2377  0.3498
  112OSM    H4G11671   0.133   0.298  10.323  0.6234 -2.6825 -0.0064
  112OSM    C5F11672  -0.039   0.186  10.244  0.6477  0.1342  0.4887
  112OSM    H5F11673  -0.145   0.171  10.274 -0.3889  1.4785 -2.1651
  112OSM    H5G11674  -0.003   0.081  10.249 -0.7835 -0.3234  2.2030
  112OSM    C6F11675  -0.039   0.265  10.109  0.0181 -0.1823 -0.9227
  112OSM    H6F11676   0.068   0.293  10.100  0.1416  0.0291  0.8119
  112OSM    H6G11677  -0.099   0.356  10.129  2.4046  1.5028 -0.9072
  112OSM    C7F11678  -0.094   0.179   9.998 -0.1968 -0.2431 -0.3331
  112OSM    H7F11679  -0.198   0.144  10.016 -0.3810 -0.6655 -2.0539
  112OSM    H7G11680  -0.033   0.087   9.986 -0.5425 -0.5748  0.3736
  112OSM    C8F11681  -0.083   0.256   9.866 -0.0827  0.1028 -0.4779
  112OSM    H8F11682  -0.060   0.177   9.791  1.3398  0.3823 -0.3700
  112OSM    H8G11683   0.011   0.316   9.869  0.0939 -0.2158  0.4960
  112OSM    C9F11684  -0.198   0.331   9.821  0.1676  0.2493  0.3534
  112OSM    H9F11685  -0.235   0.410   9.889 -1.9880  0.0973 -0.5495
  112OSM   C10F11686  -0.249   0.337   9.692  0.1244 -0.1845 -0.3876
  112OSM   H10F11687  -0.327   0.410   9.667  0.3290  1.1486  2.4392
  112OSM   C11F11688  -0.207   0.259   9.571 -0.2205  0.3152  0.4916
  112OSM   H11F11689  -0.199   0.154   9.609 -0.5100  1.0799  2.8536
  112OSM   H11G11690  -0.110   0.296   9.532 -1.4791  1.3259 -1.8940
  112OSM   C12F11691  -0.310   0.247   9.452 -0.1859 -0.2533  0.4053
  112OSM   H12F11692  -0.344   0.348   9.419 -1.2816 -0.5974  0.4529
  112OSM   H12G11693  -0.399   0.187   9.480  1.0231 -1.1736  2.5638
  112OSM   C13F11694  -0.234   0.184   9.335 -0.0069  0.1971  0.0498
  112OSM   H13F11695  -0.192   0.083   9.354 -0.6710  0.0895  1.0370
  112OSM   H13G11696  -0.147   0.251   9.321 -0.3298  0.4685 -0.7183
  112OSM   C14F11697  -0.311   0.185   9.205  0.3138  0.1724  0.0625
  112OSM   H14F11698  -0.344   0.290   9.192 -0.8880  0.1776  2.5617
  112OSM   H14G11699  -0.407   0.129   9.210 -0.1887  0.5054 -3.4294
  112OSM   C15F11700  -0.230   0.128   9.081  0.2660  0.6619 -0.8199
  112OSM   H15F11701  -0.211   0.027   9.122 -0.7787  1.5253  2.0236
  112OSM   H15G11702  -0.138   0.190   9.089  0.5624  0.0458  1.0835
  112OSM   C16F11703  -0.312   0.136   8.951  0.1753  0.3801  0.1074
  112OSM   H16F11704  -0.352   0.239   8.942 -1.2604 -0.2697 -1.5739
  112OSM   H16G11705  -0.401   0.070   8.955  0.4848  0.0208  2.5362
  112OSM   C17F11706  -0.225   0.110   8.830 -0.1586 -0.3938  0.6593
  112OSM   H17F11707  -0.180   0.009   8.837 -0.1307 -1.0027 -4.3292
  112OSM   H17G11708  -0.154   0.194   8.846 -1.3373  0.5357  1.1409
  112OSM   C18F11709  -0.280   0.136   8.688 -0.4101  0.5659 -0.3897
  112OSM   H18F11710  -0.194   0.164   8.624 -0.7367  0.2184 -0.9852
  112OSM   H18G11711  -0.364   0.210   8.681  1.3319  2.5818 -0.9712
  112OSM   H18H11712  -0.327   0.044   8.647 -0.4206  0.0590  0.7134
  113OSM      N11713   4.603   4.876  11.101 -0.2180  0.0802 -0.3737
  113OSM    C1511714   4.462   4.908  11.138 -0.2532 -0.3955  0.0523
  113OSM   H15A11715   4.448   4.911  11.245 -1.2623  0.5873 -0.0896
  113OSM   H15B11716   4.392   4.841  11.089  1.2673 -0.7274 -1.8023
  113OSM   H15C11717   4.435   5.001  11.091  1.6669 -0.3067 -1.0005
  113OSM    C1411718   4.692   4.956  11.201 -0.8647  0.2991 -0.2496
  113OSM   H14A11719   4.797   4.935  11.193 -0.9500 -0.5630  0.6940
  113OSM   H14B11720   4.665   4.926  11.301  2.0449 -0.2483  0.4749
  113OSM   H14C11721   4.683   5.063  11.196  2.9414  0.7551 -0.4321
  113OSM    C1311722   4.632   4.732  11.116 -1.0369  0.2548 -1.2953
  113OSM   H13A11723   4.738   4.731  11.096 -0.6653 -0.0363  0.4715
  113OSM   H13B11724   4.569   4.664  11.062 -0.9753 -0.9758  0.1379
  113OSM   H13C11725   4.623   4.688  11.214 -1.3208  1.3185 -0.8320
  113OSM    C1211726   4.637   4.906  10.961  0.8212 -0.4951 -0.0766
  113OSM   H12A11727   4.594   4.826  10.903 -0.1648  0.3856 -0.5908
  113OSM   H12B11728   4.743   4.898  10.944  0.9901  1.0712  0.0756
  113OSM    C1111729   4.581   5.040  10.902 -0.8003 -0.3922 -0.0837
  113OSM   H11A11730   4.632   5.052  10.804  1.5497  0.2884  1.1488
  113OSM   H11B11731   4.615   5.123  10.967  0.4092 -1.6458  0.9363
  113OSM      P11732   4.338   5.156  10.888 -0.0174  0.1833 -0.2590
  113OSM    O1311733   4.224   5.129  10.802  0.7377 -0.0796 -0.0179
  113OSM    O1411734   4.299   5.175  11.030  0.1562 -0.0198 -0.0859
  113OSM    O1111735   4.428   5.282  10.848 -0.6014  0.4578 -0.4721
  113OSM    O1211736   4.441   5.035  10.882 -0.3149 -0.0069 -0.0484
  113OSM    C1S11737   4.477   5.282  10.714  0.7069 -0.4831  0.6340
  113OSM    H1S11738   4.460   5.190  10.655  1.0921  1.6984 -3.1850
  113OSM    H1T11739   4.586   5.305  10.717  0.7689 -0.7960  0.8429
  113OSM     NF11740   4.452   5.374  10.486 -0.6784  0.3994 -0.2198
  113OSM    HNF11741   4.538   5.415  10.457 -2.4418  1.5926 -4.5354
  113OSM    C2S11742   4.413   5.394  10.624  0.3762 -0.2294  0.9883
  113OSM    H2S11743   4.303   5.397  10.634  0.1804 -1.0034 -0.5879
  113OSM    C3S11744   4.462   5.530  10.675 -0.3887  0.2787  0.6185
  113OSM    H3S11745   4.573   5.531  10.661 -0.2415  2.0027  1.6016
  113OSM     O311746   4.445   5.560  10.807 -0.3236 -0.3361 -0.2111
  113OSM    HO311747   4.427   5.472  10.841 -0.1414 -0.1842  0.2871
  113OSM    C4S11748   4.409   5.643  10.589 -0.5892 -0.6371  0.2704
  113OSM    H4S11749   4.299   5.644  10.588 -0.5886 -1.0816 -0.1158
  113OSM    C5S11750   4.481   5.734  10.523  0.0728  0.0171 -0.0146
  113OSM    H5S11751   4.590   5.747  10.525  0.2832 -0.4454 -3.1920
  113OSM    C6S11752   4.413   5.846  10.445 -0.5524 -0.3012  0.4623
  113OSM    H6S11753   4.448   5.948  10.469  0.9716 -0.1870 -1.9697
  113OSM    H6T11754   4.303   5.847  10.461 -0.5844  1.4764  0.3241
  113OSM    C7S11755   4.443   5.837  10.297  0.0228 -0.9798 -0.7043
  113OSM    H7S11756   4.543   5.884  10.290  0.0517 -0.9797 -0.3322
  113OSM    H7T11757   4.370   5.905  10.248  1.9990  1.7959 -0.0273
  113OSM    C8S11758   4.432   5.699  10.230 -0.5231  0.7767  0.9341
  113OSM    H8S11759   4.346   5.640  10.270 -0.3078 -2.5514 -2.8791
  113OSM    H8T11760   4.527   5.641  10.237  1.0113  2.8382 -1.3567
  113OSM    C9S11761   4.411   5.716  10.076 -0.3633  0.0452 -0.3892
  113OSM    H9S11762   4.497   5.774  10.035  0.1084 -0.1157  0.3442
  113OSM    H9T11763   4.321   5.778  10.057 -1.2138 -1.1758 -0.4774
  113OSM   C10S11764   4.416   5.576  10.005  0.2574 -0.5666  0.2426
  113OSM   H10S11765   4.350   5.512  10.067 -0.4060 -0.3432 -0.2234
  113OSM   H10T11766   4.521   5.541  10.015  0.4640  0.2756  1.1666
  113OSM   C11S11767   4.388   5.581   9.852  0.2883 -0.1895 -0.2998
  113OSM   H11S11768   4.465   5.639   9.797 -1.3624  1.6289 -0.8203
  113OSM   H11T11769   4.300   5.649   9.849  0.0245 -0.5336 -0.4628
  113OSM   C12S11770   4.361   5.450   9.778  0.0283  0.1449 -0.4776
  113OSM   H12S11771   4.297   5.379   9.834 -0.2967  0.7428 -0.0777
  113OSM   H12T11772   4.455   5.391   9.781  0.1748  0.4290  1.2787
  113OSM   C13S11773   4.309   5.474   9.639 -0.3376 -0.5729 -0.1483
  113OSM   H13S11774   4.373   5.551   9.592  0.8964 -2.2259 -1.2914
  113OSM   H13T11775   4.201   5.501   9.638 -0.1156  0.5987  1.5440
  113OSM   C14S11776   4.329   5.360   9.545 -0.1162 -0.0506  0.0163
  113OSM   H14S11777   4.265   5.272   9.568 -1.8673  0.6008 -2.0372
  113OSM   H14T11778   4.434   5.331   9.564 -0.6211 -1.1091  1.3524
  113OSM   C15S11779   4.312   5.404   9.403 -0.1829 -0.2042  0.1643
  113OSM   H15S11780   4.327   5.315   9.338  0.3420  1.2299 -1.7682
  113OSM   H15T11781   4.388   5.483   9.385 -1.2601  0.9018  0.3876
  113OSM   C16S11782   4.168   5.458   9.363 -0.1807  0.0292 -0.3198
  113OSM   H16S11783   4.147   5.551   9.420 -3.7802 -0.7722 -0.1364
  113OSM   H16T11784   4.088   5.388   9.396 -1.6748  0.7153 -2.2907
  113OSM   C17S11785   4.155   5.482   9.213  0.2010 -0.5051 -0.3831
  113OSM   H17S11786   4.055   5.528   9.201 -0.5103 -2.2604 -1.5688
  113OSM   H17T11787   4.165   5.385   9.159  0.2213 -0.6087 -0.1966
  113OSM   C18S11788   4.253   5.585   9.158 -0.0959  0.5964 -0.7087
  113OSM   H18S11789   4.216   5.632   9.065  2.0722 -0.2783 -2.0909
  113OSM   H18T11790   4.352   5.537   9.141  0.6528  0.5248  2.9078
  113OSM   H18U11791   4.271   5.670   9.227 -0.9981 -0.0065  0.3056
  113OSM    C1F11792   4.386   5.289  10.408 -0.1767 -0.1445  0.2109
  113OSM     OF11793   4.274   5.244  10.439  0.2301  0.3240 -0.4769
  113OSM    C2F11794   4.447   5.256  10.276 -0.7705 -0.2011  0.0228
  113OSM    H2F11795   4.554   5.235  10.294 -0.4863 -0.4513 -1.7457
  113OSM    H2G11796   4.450   5.342  10.206 -1.6371 -0.6186 -0.5585
  113OSM    C3F11797   4.379   5.148  10.196 -0.1261  1.1461  0.1071
  113OSM    H3F11798   4.268   5.151  10.190 -0.2780  2.6341  2.4245
  113OSM    H3G11799   4.405   5.054  10.249 -1.4916  0.4655 -0.3899
  113OSM    C4F11800   4.429   5.143  10.057 -0.8142  0.2857 -0.2510
  113OSM    H4F11801   4.538   5.123  10.055 -0.5695  0.7995  2.6714
  113OSM    H4G11802   4.434   5.246  10.018  0.9045  0.9667  1.6062
  113OSM    C5F11803   4.342   5.067   9.954 -0.2351  0.2765 -0.7090
  113OSM    H5F11804   4.248   5.124   9.936 -1.8263 -2.4737 -1.7603
  113OSM    H5G11805   4.316   4.966   9.990  1.2053  0.0630 -0.2039
  113OSM    C6F11806   4.407   5.065   9.815 -0.7094  0.5644 -0.4063
  113OSM    H6F11807   4.515   5.041   9.822 -0.3466  2.0455 -0.5770
  113OSM    H6G11808   4.402   5.168   9.773  0.3784  0.2361 -1.3945
  113OSM    C7F11809   4.322   4.981   9.724  0.1329  0.5881 -0.0092
  113OSM    H7F11810   4.228   5.038   9.706 -0.4647 -0.6694 -1.0344
  113OSM    H7G11811   4.310   4.875   9.753  2.2765 -0.3325 -2.1414
  113OSM    C8F11812   4.396   4.965   9.591  0.5013 -1.2221  0.3599
  113OSM    H8F11813   4.498   4.922   9.600  1.4869  0.9476  0.0773
  113OSM    H8G11814   4.400   5.072   9.560 -2.0373 -0.3594  2.6287
  113OSM    C9F11815   4.320   4.899   9.486 -0.4173 -0.0169 -0.7819
  113OSM    H9F11816   4.233   4.958   9.452 -0.2429 -0.1017 -1.3878
  113OSM   C10F11817   4.355   4.797   9.410 -0.1068 -0.4000  0.4346
  113OSM   H10F11818   4.279   4.765   9.338 -0.5622 -0.0766  0.7689
  113OSM   C11F11819   4.478   4.718   9.417 -0.0885  0.5139 -0.0850
  113OSM   H11F11820   4.445   4.632   9.479 -1.8173  0.2673 -1.2711
  113OSM   H11G11821   4.557   4.776   9.468 -1.1544  1.8022  0.1508
  113OSM   C12F11822   4.534   4.664   9.274 -0.6821  0.4671  0.4472
  113OSM   H12F11823   4.466   4.587   9.231  2.7487 -2.1609 -0.6560
  113OSM   H12G11824   4.632   4.616   9.297 -0.8432 -1.5500 -2.5352
  113OSM   C13F11825   4.573   4.775   9.173  0.1953  0.2792 -0.1585
  113OSM   H13F11826   4.674   4.817   9.194  0.3524 -0.5832  0.9427
  113OSM   H13G11827   4.501   4.859   9.184  0.9160  0.9797 -0.6915
  113OSM   C14F11828   4.573   4.724   9.023 -0.3946  0.0357 -0.8970
  113OSM   H14F11829   4.606   4.809   8.959 -1.4784  1.3534  0.2108
  113OSM   H14G11830   4.466   4.711   8.995 -0.7070  2.8363 -1.3215
  113OSM   C15F11831   4.667   4.605   8.993  0.2980  0.2684 -0.1125
  113OSM   H15F11832   4.634   4.518   9.054  0.7349  1.8567  2.5340
  113OSM   H15G11833   4.765   4.631   9.039  0.5939 -1.6529  0.4173
  113OSM   C16F11834   4.682   4.568   8.841  0.0516  0.0916 -0.7647
  113OSM   H16F11835   4.742   4.644   8.786 -0.3459  0.9697 -0.0173
  113OSM   H16G11836   4.580   4.555   8.801 -1.7802  1.5471  2.9486
  113OSM   C17F11837   4.749   4.427   8.823 -0.0089  0.5154  0.2406
  113OSM   H17F11838   4.693   4.362   8.894 -1.2671  0.7641 -0.4838
  113OSM   H17G11839   4.856   4.430   8.854 -0.4172  1.4798  1.6967
  113OSM   C18F11840   4.730   4.383   8.680  0.7953 -0.1158 -0.2382
  113OSM   H18F11841   4.766   4.467   8.616 -0.6753 -0.7299 -1.9405
  113OSM   H18G11842   4.625   4.368   8.649  0.5258 -2.3916  1.5584
  113OSM   H18H11843   4.801   4.302   8.650 -2.0039 -1.6395 -3.3594
  114OSM      N11844   4.892   6.669  11.153 -0.1688  0.5862  0.1187
  114OSM    C1511845   4.777   6.756  11.212 -0.3609  0.6336  0.1211
  114OSM   H15A11846   4.809   6.836  11.277 -0.0246  0.6222 -0.0299
  114OSM   H15B11847   4.701   6.700  11.265 -1.2882  3.0330  1.4935
  114OSM   H15C11848   4.722   6.810  11.135 -0.9985  0.2238  0.2815
  114OSM    C1411849   4.977   6.609  11.269  0.0489 -0.2665 -0.3021
  114OSM   H14A11850   4.921   6.541  11.333  2.5904 -0.9973  1.3129
  114OSM   H14B11851   5.016   6.685  11.335  1.2019 -0.9746 -0.1366
  114OSM   H14C11852   5.051   6.544  11.225 -1.0229 -0.7768 -1.4063
  114OSM    C1311853   4.816   6.552  11.094 -0.5851  0.1283 -0.2506
  114OSM   H13A11854   4.751   6.503  11.165 -0.7933  0.9131  0.1088
  114OSM   H13B11855   4.886   6.479  11.057  1.9170  1.5732  1.3723
  114OSM   H13C11856   4.754   6.582  11.010  0.6454  0.3386 -1.1082
  114OSM    C1211857   4.971   6.744  11.049 -0.0092  0.5036  0.0819
  114OSM   H12A11858   5.033   6.813  11.104 -0.2352  1.4321 -0.7931
  114OSM   H12B11859   4.900   6.792  10.984 -0.2609 -0.1272 -0.1137
  114OSM    C1111860   5.068   6.661  10.960 -0.1188 -0.4449 -0.6352
  114OSM   H11A11861   5.123   6.749  10.920  0.5761  0.6794  2.5224
  114OSM   H11B11862   5.016   6.600  10.882  1.5187 -2.3809 -0.3126
  114OSM      P11863   5.289   6.638  11.099  0.5634 -0.2668 -0.2779
  114OSM    O1311864   5.264   6.746  11.189 -0.4287 -0.2914  0.2033
  114OSM    O1411865   5.374   6.524  11.148  0.4437 -0.1617 -0.1380
  114OSM    O1111866   5.351   6.711  10.973  0.3037  0.3076 -0.2311
  114OSM    O1211867   5.159   6.580  11.040  0.3957  0.5181  1.0998
  114OSM    C1S11868   5.421   6.629  10.876  0.7575  0.5084  0.6874
  114OSM    H1S11869   5.420   6.518  10.882  0.6006  0.4794  0.2184
  114OSM    H1T11870   5.522   6.674  10.868  0.8746  0.0644 -0.6442
  114OSM     NF11871   5.428   6.577  10.638 -0.0576  0.0620 -0.2816
  114OSM    HNF11872   5.503   6.616  10.585 -2.2023  1.5309 -2.3889
  114OSM    C2S11873   5.357   6.653  10.736 -0.4996 -0.2265  0.7765
  114OSM    H2S11874   5.249   6.626  10.729 -0.6191  0.4460 -4.5061
  114OSM    C3S11875   5.364   6.806  10.698 -0.2484 -0.1038 -0.0916
  114OSM    H3S11876   5.468   6.843  10.708 -0.0928 -0.4677 -0.3019
  114OSM     O311877   5.292   6.894  10.784 -0.1234 -0.4288  0.4353
  114OSM    HO311878   5.299   6.843  10.865 -1.6225  0.6660  1.2881
  114OSM    C4S11879   5.317   6.820  10.560  0.1626  0.4112  0.5779
  114OSM    H4S11880   5.220   6.769  10.557  0.4260 -0.0468 -0.7354
  114OSM    C5S11881   5.376   6.889  10.455  0.3616 -0.1003 -0.2817
  114OSM    H5S11882   5.456   6.964  10.468  1.1444 -1.1333  1.0250
  114OSM    C6S11883   5.319   6.907  10.317  0.3642  0.3943 -0.5892
  114OSM    H6S11884   5.402   6.905  10.243  0.8200 -0.4794 -0.0698
  114OSM    H6T11885   5.285   7.013  10.324  0.6109  0.4011  0.6755
  114OSM    C7S11886   5.187   6.828  10.282 -0.6422  0.5558 -0.0045
  114OSM    H7S11887   5.114   6.855  10.362  0.9548 -1.4628  2.2755
  114OSM    H7T11888   5.215   6.722  10.298 -0.5702  0.5396 -0.2430
  114OSM    C8S11889   5.113   6.854  10.159  0.8454 -0.4851 -0.6105
  114OSM    H8S11890   5.088   6.960  10.134 -0.3989 -1.0532 -1.9263
  114OSM    H8T11891   5.021   6.792  10.167  0.8240 -0.3478  0.2626
  114OSM    C9S11892   5.192   6.801  10.034 -0.7223  0.3370  0.1766
  114OSM    H9S11893   5.205   6.691  10.048  2.8755  0.6965  0.5577
  114OSM    H9T11894   5.294   6.843  10.041 -0.5927 -0.1160  1.2809
  114OSM   C10S11895   5.115   6.825   9.900 -0.3758 -0.0111 -0.4454
  114OSM   H10S11896   5.133   6.926   9.857 -1.9944 -0.2794 -1.8864
  114OSM   H10T11897   5.007   6.829   9.926 -0.1177  0.5656  0.6149
  114OSM   C11S11898   5.146   6.723   9.791  0.0316  0.3295 -0.0832
  114OSM   H11S11899   5.117   6.618   9.814 -0.4090  0.4881  0.0961
  114OSM   H11T11900   5.255   6.711   9.772  0.5411  2.7394  0.9193
  114OSM   C12S11901   5.067   6.757   9.660 -0.1212 -0.2628  0.1734
  114OSM   H12S11902   5.108   6.857   9.633 -2.0314  1.2510  2.3928
  114OSM   H12T11903   4.957   6.753   9.674  0.0183 -1.0624  1.1899
  114OSM   C13S11904   5.106   6.672   9.537  0.1846 -1.1132 -0.4327
  114OSM   H13S11905   5.051   6.576   9.532  0.3038 -1.1470 -1.2028
  114OSM   H13T11906   5.205   6.624   9.551  0.4762 -1.0999 -2.1801
  114OSM   C14S11907   5.087   6.753   9.411  0.5529 -0.1212 -0.3637
  114OSM   H14S11908   5.140   6.697   9.330  1.9960  0.9316 -0.2001
  114OSM   H14T11909   5.117   6.860   9.421 -2.1934  0.9901 -2.6648
  114OSM   C15S11910   4.939   6.738   9.373 -0.2096 -0.3351 -0.4575
  114OSM   H15S11911   4.879   6.768   9.461  0.3129  0.4143 -0.3489
  114OSM   H15T11912   4.921   6.630   9.353 -2.7679 -0.1214  0.3244
  114OSM   C16S11913   4.887   6.833   9.267  0.1296 -0.3422  0.3299
  114OSM   H16S11914   4.878   6.935   9.310  0.2997  1.4070 -3.4057
  114OSM   H16T11915   4.785   6.798   9.242  0.6313 -0.6221 -1.4134
  114OSM   C17S11916   4.962   6.827   9.133 -0.7294  0.6225 -0.2791
  114OSM   H17S11917   4.979   6.722   9.100  0.1842  1.4203 -2.4741
  114OSM   H17T11918   5.062   6.857   9.170 -0.6223 -3.0912  3.2309
  114OSM   C18S11919   4.899   6.916   9.029 -0.0243  0.2773 -0.1131
  114OSM   H18S11920   4.961   6.914   8.937 -0.3074 -0.6450 -0.3002
  114OSM   H18T11921   4.904   7.017   9.074  0.0922  0.2666 -0.0995
  114OSM   H18U11922   4.795   6.885   9.008  0.2811 -0.1013 -1.1388
  114OSM    C1F11923   5.423   6.448  10.613 -0.2200  0.1163  0.0608
  114OSM     OF11924   5.332   6.377  10.656 -0.1152  0.0196  0.1469
  114OSM    C2F11925   5.527   6.398  10.518  0.0369  0.4802  0.8341
  114OSM    H2F11926   5.536   6.288  10.532  0.2603  0.1517 -1.4534
  114OSM    H2G11927   5.629   6.438  10.536  0.3036  0.2099 -0.0303
  114OSM    C3F11928   5.491   6.405  10.366 -0.1957 -0.0075  0.3990
  114OSM    H3F11929   5.403   6.339  10.351  0.1800 -0.3741 -0.2621
  114OSM    H3G11930   5.579   6.359  10.315  1.3899  0.1790  2.8129
  114OSM    C4F11931   5.450   6.551  10.313 -0.0689 -0.0985 -0.8628
  114OSM    H4F11932   5.528   6.623  10.347 -0.3803  0.0098 -0.3538
  114OSM    H4G11933   5.356   6.586  10.360 -0.1448 -1.7712  0.3313
  114OSM    C5F11934   5.444   6.558  10.158  0.1421 -0.1444 -0.3942
  114OSM    H5F11935   5.433   6.667  10.138  0.4488  0.1654  1.0316
  114OSM    H5G11936   5.349   6.515  10.119 -2.0502  3.3538  0.6415
  114OSM    C6F11937   5.550   6.507  10.054  0.2548  1.0121 -0.2627
  114OSM    H6F11938   5.536   6.397  10.046  2.1136  0.7139 -0.0193
  114OSM    H6G11939   5.652   6.518  10.098  1.5090 -2.9497 -1.6870
  114OSM    C7F11940   5.540   6.573   9.913  0.1332 -0.4950  0.6195
  114OSM    H7F11941   5.648   6.598   9.899  0.4748  0.2676  3.8192
  114OSM    H7G11942   5.489   6.671   9.901  0.5725 -0.4654 -1.3987
  114OSM    C8F11943   5.508   6.469   9.805 -0.1180  0.0669  0.3628
  114OSM    H8F11944   5.408   6.430   9.830 -0.1484  0.0748  0.2555
  114OSM    H8G11945   5.578   6.383   9.802 -0.8807 -0.5677  0.6980
  114OSM    C9F11946   5.498   6.536   9.667  0.6765 -1.1103 -0.3335
  114OSM    H9F11947   5.542   6.635   9.648 -3.3183  0.7812 -0.6413
  114OSM   C10F11948   5.430   6.486   9.564 -0.4252  0.4338  0.5836
  114OSM   H10F11949   5.444   6.534   9.467 -1.8220 -1.7273 -0.7808
  114OSM   C11F11950   5.369   6.347   9.558 -0.4680 -0.1369  0.1441
  114OSM   H11F11951   5.376   6.297   9.658  1.9162 -1.0203 -0.3899
  114OSM   H11G11952   5.426   6.285   9.486 -1.8861 -0.1789 -0.9855
  114OSM   C12F11953   5.224   6.349   9.506  0.2753 -0.5147 -0.5943
  114OSM   H12F11954   5.171   6.413   9.579  1.2196  0.2354 -0.5501
  114OSM   H12G11955   5.183   6.247   9.525  1.4877 -0.7846  0.8672
  114OSM   C13F11956   5.211   6.391   9.360  0.2379 -0.6595  0.6163
  114OSM   H13F11957   5.279   6.327   9.301  0.3627  0.2334 -0.2254
  114OSM   H13G11958   5.240   6.497   9.345  2.3290 -1.3529 -0.7300
  114OSM   C14F11959   5.073   6.361   9.302  0.4927 -0.0635 -0.5070
  114OSM   H14F11960   5.002   6.420   9.363 -2.6707 -1.4506 -2.5820
  114OSM   H14G11961   5.033   6.257   9.305 -1.1926  0.5080 -1.8779
  114OSM   C15F11962   5.062   6.401   9.154 -0.5732  0.6677 -0.3138
  114OSM   H15F11963   5.126   6.329   9.100  1.1709  0.0488  2.3693
  114OSM   H15G11964   5.105   6.503   9.157 -0.4416  0.6148 -0.4519
  114OSM   C16F11965   4.921   6.409   9.103  0.6926 -0.0199  0.3933
  114OSM   H16F11966   4.869   6.481   9.170  1.1577  1.3313 -0.6515
  114OSM   H16G11967   4.875   6.308   9.114  2.0908 -0.7418 -0.1394
  114OSM   C17F11968   4.906   6.462   8.953  0.2903  0.3686 -0.5114
  114OSM   H17F11969   4.966   6.401   8.881  1.0727  0.5344 -0.0174
  114OSM   H17G11970   4.954   6.562   8.955  2.1613 -0.4945  0.1433
  114OSM   C18F11971   4.760   6.486   8.910 -0.3203  0.1712 -0.0426
  114OSM   H18F11972   4.695   6.399   8.932  1.9725 -0.9108  3.1462
  114OSM   H18G11973   4.765   6.523   8.805  2.1985  0.7498  0.2142
  114OSM   H18H11974   4.714   6.561   8.977 -1.0675 -0.8455  0.6033
  115OSM      N11975   2.299   6.773  10.774  0.5551  0.7093 -0.9087
  115OSM    C1511976   2.196   6.762  10.663  0.7239  0.0566 -0.3614
  115OSM   H15A11977   2.204   6.665  10.616 -4.1021 -1.3256  1.0905
  115OSM   H15B11978   2.200   6.830  10.579 -2.3803 -0.9084 -1.4038
  115OSM   H15C11979   2.101   6.783  10.710  0.6956  0.5962 -0.6603
  115OSM    C1411980   2.276   6.910  10.844 -0.2409 -0.6320  0.0397
  115OSM   H14A11981   2.178   6.917  10.889  0.3066 -0.6657  1.2898
  115OSM   H14B11982   2.302   6.985  10.771  2.0720 -1.6197 -0.2256
  115OSM   H14C11983   2.348   6.923  10.923 -0.3706 -0.0444  0.0650
  115OSM    C1311984   2.276   6.661  10.867  0.6797 -0.0263 -0.3966
  115OSM   H13A11985   2.174   6.670  10.899 -0.2307 -0.2711 -3.0008
  115OSM   H13B11986   2.346   6.649  10.949 -1.4885  0.8833  1.6919
  115OSM   H13C11987   2.275   6.566  10.815 -0.3683 -2.2156  3.2269
  115OSM    C1211988   2.436   6.777  10.725 -1.0308 -0.5823  0.6304
  115OSM   H12A11989   2.442   6.859  10.655 -2.1716 -0.2243  0.9280
  115OSM   H12B11990   2.458   6.689  10.666  2.0397  0.7607 -0.3939
  115OSM    C1111991   2.565   6.789  10.814  0.0253 -0.4882 -0.2285
  115OSM   H11A11992   2.575   6.882  10.875  0.2578 -0.0969 -0.8406
  115OSM   H11B11993   2.654   6.798  10.747  2.4347 -1.7974  2.5805
  115OSM      P11994   2.630   6.548  10.860 -0.2553  0.3635  0.1224
  115OSM    O1311995   2.779   6.549  10.893 -0.1907  0.1339  0.9862
  115OSM    O1411996   2.546   6.441  10.914  0.0593 -0.2783 -0.4129
  115OSM    O1111997   2.620   6.551  10.700 -0.5428 -0.3986 -0.3187
  115OSM    O1211998   2.573   6.679  10.899  0.8146  0.0486  0.1950
  115OSM    C1S11999   2.628   6.440  10.618  0.2795  0.0242 -0.7649
  115OSM    H1S12000   2.539   6.375  10.634  0.2290  0.3611  0.3874
  115OSM    H1T12001   2.719   6.381  10.637  0.6122  0.9797  0.7557
  115OSM     NF12002   2.633   6.363  10.378 -0.0377 -0.1885 -0.5470
  115OSM    HNF12003   2.718   6.355  10.326 -0.0135  1.7635 -0.8850
  115OSM    C2S12004   2.632   6.478  10.471  0.2419  0.2058  0.5134
  115OSM    H2S12005   2.537   6.532  10.451 -0.2896 -1.4881 -1.9676
  115OSM    C3S12006   2.752   6.579  10.459 -0.5648 -0.2436  0.1371
  115OSM    H3S12007   2.849   6.539  10.494 -0.9859  0.9326  2.8861
  115OSM     O312008   2.734   6.707  10.517  0.5497 -0.0972  0.3140
  115OSM    HO312009   2.681   6.685  10.594 -2.2099 -0.9727 -1.6663
  115OSM    C4S12010   2.766   6.622  10.313  0.1386  0.5359  0.4771
  115OSM    H4S12011   2.681   6.689  10.291  1.1817  1.4718 -0.8309
  115OSM    C5S12012   2.868   6.593  10.229  0.4881 -0.5344  0.3301
  115OSM    H5S12013   2.941   6.518  10.262 -0.8142 -1.9509  0.1204
  115OSM    C6S12014   2.871   6.636  10.081 -0.8754  0.7407 -0.4977
  115OSM    H6S12015   2.974   6.659  10.045 -0.5383  0.7551  0.4309
  115OSM    H6T12016   2.812   6.728  10.065 -1.2331  0.2241 -2.3325
  115OSM    C7S12017   2.804   6.527   9.989 -0.1410 -0.1746  0.6006
  115OSM    H7S12018   2.696   6.523  10.015  0.4533 -1.9072  3.2774
  115OSM    H7T12019   2.855   6.431  10.010 -0.3881 -0.6584 -0.8736
  115OSM    C8S12020   2.825   6.578   9.840 -0.3230 -0.3414  0.0895
  115OSM    H8S12021   2.934   6.595   9.822 -0.6830  2.6186  0.2986
  115OSM    H8T12022   2.790   6.683   9.830 -2.3171 -1.1370 -1.9224
  115OSM    C9S12023   2.784   6.483   9.731 -0.2480 -0.0916  0.4733
  115OSM    H9S12024   2.844   6.390   9.731 -0.1634 -0.1269 -2.3659
  115OSM    H9T12025   2.807   6.541   9.639 -1.3182 -0.7165 -0.2110
  115OSM   C10S12026   2.635   6.443   9.730  0.0464 -0.1563 -0.3721
  115OSM   H10S12027   2.588   6.530   9.781  2.5739  0.5069  1.0045
  115OSM   H10T12028   2.621   6.358   9.801 -1.0981  0.0077 -0.3822
  115OSM   C11S12029   2.578   6.405   9.599 -0.6155 -0.2359 -0.2379
  115OSM   H11S12030   2.468   6.390   9.605 -0.8184  1.4857  1.0609
  115OSM   H11T12031   2.623   6.310   9.563 -0.9138 -1.3256  2.1180
  115OSM   C12S12032   2.604   6.515   9.496 -0.7182  0.1341 -0.0225
  115OSM   H12S12033   2.704   6.504   9.449  0.1849 -0.4813  1.9418
  115OSM   H12T12034   2.609   6.606   9.560 -2.3712 -1.2600  2.2452
  115OSM   C13S12035   2.499   6.529   9.389 -0.3670 -0.0764  0.6113
  115OSM   H13S12036   2.527   6.624   9.338 -0.1860 -0.4029  0.0899
  115OSM   H13T12037   2.401   6.549   9.437 -0.2500 -0.5405  1.0541
  115OSM   C14S12038   2.509   6.410   9.300  0.6265  0.2553  0.1050
  115OSM   H14S12039   2.488   6.314   9.352  2.2035  0.1669  0.6196
  115OSM   H14T12040   2.617   6.397   9.277  1.4136 -0.0454  3.3913
  115OSM   C15S12041   2.423   6.424   9.176 -0.2726  0.4765 -1.4111
  115OSM   H15S12042   2.439   6.530   9.144 -0.2859  1.4263  1.4609
  115OSM   H15T12043   2.316   6.422   9.206 -0.1889 -0.8887 -1.1736
  115OSM   C16S12044   2.471   6.337   9.066 -0.2254 -0.1239 -0.2393
  115OSM   H16S12045   2.462   6.236   9.112 -3.7606  0.9857  1.8805
  115OSM   H16T12046   2.577   6.362   9.048 -0.4144  0.7741 -0.1216
  115OSM   C17S12047   2.398   6.339   8.938  0.2970 -0.5370 -0.0735
  115OSM   H17S12048   2.403   6.440   8.892 -2.1340 -0.2437  0.1361
  115OSM   H17T12049   2.290   6.332   8.964  0.2907  0.4903  0.2064
  115OSM   C18S12050   2.426   6.212   8.851 -0.0707 -0.9727 -0.8058
  115OSM   H18S12051   2.400   6.116   8.901 -1.0355 -0.8432 -1.0367
  115OSM   H18T12052   2.532   6.198   8.821  0.6138  0.3319  0.8190
  115OSM   H18U12053   2.366   6.209   8.758  0.6308 -1.4725 -1.2517
  115OSM    C1F12054   2.516   6.296  10.343 -0.6620 -0.0588  0.1670
  115OSM     OF12055   2.410   6.315  10.405 -0.1139  0.1559  0.4266
  115OSM    C2F12056   2.527   6.213  10.222 -1.2710  0.0256 -0.5092
  115OSM    H2F12057   2.525   6.108  10.256  3.4674 -0.0042  0.3890
  115OSM    H2G12058   2.630   6.222  10.182  0.2845 -0.3330  3.0085
  115OSM    C3F12059   2.422   6.239  10.109 -0.1759  0.4736 -0.7886
  115OSM    H3F12060   2.416   6.349  10.104  0.2590  0.6406  1.4423
  115OSM    H3G12061   2.321   6.213  10.147  0.6686  1.3488  2.3700
  115OSM    C4F12062   2.453   6.177   9.975  0.3159  0.4238 -1.0962
  115OSM    H4F12063   2.481   6.070   9.984  0.1541  0.5527  2.8140
  115OSM    H4G12064   2.537   6.236   9.934 -0.3571  1.5943 -0.8236
  115OSM    C5F12065   2.327   6.185   9.882  0.5943 -0.4071  0.6967
  115OSM    H5F12066   2.288   6.289   9.873  0.5062 -0.6431 -3.8067
  115OSM    H5G12067   2.252   6.126   9.939  0.4916 -1.4786 -0.5128
  115OSM    C6F12068   2.357   6.131   9.738  0.1142  0.4410 -0.7376
  115OSM    H6F12069   2.375   6.022   9.752  0.0903  0.1936 -2.4268
  115OSM    H6G12070   2.456   6.178   9.718 -0.0619  0.9761 -0.3788
  115OSM    C7F12071   2.245   6.150   9.632  0.0501 -0.3713 -0.2096
  115OSM    H7F12072   2.235   6.260   9.621 -0.5366 -0.0981  2.4386
  115OSM    H7G12073   2.159   6.100   9.682  1.4062 -0.7512  1.8852
  115OSM    C8F12074   2.280   6.088   9.500  0.1619  0.1780  0.2828
  115OSM    H8F12075   2.299   5.981   9.523  0.9998  0.4988  1.1159
  115OSM    H8G12076   2.374   6.134   9.464  1.4129 -0.8952  2.0217
  115OSM    C9F12077   2.171   6.096   9.396  0.2133  0.6830  0.3444
  115OSM    H9F12078   2.104   6.181   9.415  1.2882  1.3512  1.2816
  115OSM   C10F12079   2.148   6.015   9.294 -0.5714  0.8566 -0.4804
  115OSM   H10F12080   2.068   6.038   9.223  0.6944  1.8738 -1.6194
  115OSM   C11F12081   2.236   5.897   9.269  0.6780  0.4237  0.5971
  115OSM   H11F12082   2.163   5.816   9.247  0.7323  0.2709  0.9681
  115OSM   H11G12083   2.308   5.865   9.348 -0.0933 -1.1007  0.7127
  115OSM   C12F12084   2.319   5.899   9.138 -0.6118  0.0074 -1.0114
  115OSM   H12F12085   2.389   5.814   9.150 -0.2618  0.5350  1.0111
  115OSM   H12G12086   2.381   5.990   9.145 -3.0381  1.6443  0.7868
  115OSM   C13F12087   2.246   5.889   9.011 -0.1969 -0.8887  0.5126
  115OSM   H13F12088   2.316   5.918   8.929 -0.9311 -0.6281 -0.0338
  115OSM   H13G12089   2.166   5.964   8.996  1.1831  0.3023 -1.4774
  115OSM   C14F12090   2.201   5.749   8.968  0.0712 -0.0623 -0.0209
  115OSM   H14F12091   2.136   5.702   9.044 -1.5649  2.9600  0.6437
  115OSM   H14G12092   2.295   5.692   8.951  0.2298  0.4287 -0.8682
  115OSM   C15F12093   2.131   5.746   8.831 -0.4748 -0.0226 -0.1095
  115OSM   H15F12094   2.107   5.644   8.796 -1.3164  0.0067  0.3655
  115OSM   H15G12095   2.189   5.807   8.758 -2.9381  1.8603 -0.6270
  115OSM   C16F12096   1.990   5.817   8.839 -0.0310  0.2965 -0.4591
  115OSM   H16F12097   2.001   5.917   8.793  3.2021  0.4152  0.3660
  115OSM   H16G12098   1.966   5.823   8.947 -1.5306 -0.5472 -0.7111
  115OSM   C17F12099   1.890   5.733   8.763 -0.4088  0.2503  0.0989
  115OSM   H17F12100   1.891   5.630   8.805  0.6227 -0.1072 -0.7609
  115OSM   H17G12101   1.913   5.718   8.656 -0.8010 -1.7055  0.2395
  115OSM   C18F12102   1.742   5.786   8.777 -0.8209 -0.2793 -0.1136
  115OSM   H18F12103   1.707   5.776   8.882  1.1155 -0.7728  0.5317
  115OSM   H18G12104   1.680   5.716   8.717 -2.2882 -0.0467  1.0889
  115OSM   H18H12105   1.733   5.890   8.739 -0.1754 -0.0529  0.3361
  116OSM      N12106   0.971   1.178  11.028  0.2897  0.1263 -0.2226
  116OSM    C1512107   0.887   1.178  11.149  0.3728  0.2083  0.1477
  116OSM   H15A12108   0.832   1.270  11.157 -0.6576 -0.3942  0.0768
  116OSM   H15B12109   0.940   1.156  11.240 -2.5564 -2.0453  1.4703
  116OSM   H15C12110   0.806   1.107  11.145 -0.0311  0.6987 -2.6353
  116OSM    C1412111   1.051   1.305  11.023  0.0376 -0.0222 -0.0022
  116OSM   H14A12112   1.112   1.319  11.111 -1.5442  1.1664  0.9474
  116OSM   H14B12113   0.988   1.392  11.013 -0.3109 -0.4426 -1.8407
  116OSM   H14C12114   1.116   1.308  10.936 -0.4544 -1.1090 -0.4285
  116OSM    C1312115   1.067   1.064  11.037 -0.6595  0.4929 -0.3411
  116OSM   H13A12116   1.136   1.058  10.955  0.1127  0.5317  0.2907
  116OSM   H13B12117   1.012   0.971  11.033 -0.2196  0.2211 -0.1473
  116OSM   H13C12118   1.122   1.078  11.129 -0.7439  1.2575 -0.3976
  116OSM    C1212119   0.883   1.176  10.902 -0.1572 -0.1808  0.2513
  116OSM   H12A12120   0.837   1.078  10.900  0.1854 -0.3330 -0.4444
  116OSM   H12B12121   0.940   1.183  10.810 -0.4979  0.9642  0.1177
  116OSM    C1112122   0.773   1.287  10.901  0.3577  0.2602  0.0210
  116OSM   H11A12123   0.698   1.265  10.980  0.7352 -2.7707 -0.3246
  116OSM   H11B12124   0.715   1.281  10.807  1.0669  2.4410 -0.6104
  116OSM      P12125   0.721   1.538  10.941 -0.0036  0.4085 -0.1116
  116OSM    O1312126   0.640   1.515  11.065 -0.0597 -0.0324  0.0870
  116OSM    O1412127   0.801   1.658  10.944 -0.4228  0.1634  0.2963
  116OSM    O1112128   0.618   1.544  10.823 -0.2832  0.1696  0.3691
  116OSM    O1212129   0.821   1.423  10.912 -0.4692  0.4480 -0.0737
  116OSM    C1S12130   0.669   1.535  10.688  0.5526  0.3389 -0.5244
  116OSM    H1S12131   0.748   1.458  10.676 -0.0726 -0.4056  0.0688
  116OSM    H1T12132   0.718   1.633  10.666 -0.9514  1.1607 -0.3576
  116OSM     NF12133   0.611   1.506  10.449  0.3896  0.4918  0.5601
  116OSM    HNF12134   0.580   1.567  10.376  0.8258  1.6053  1.2962
  116OSM    C2S12135   0.558   1.514  10.578 -0.2294 -0.1704 -0.2829
  116OSM    H2S12136   0.520   1.411  10.598  1.0034 -0.4903  0.5010
  116OSM    C3S12137   0.444   1.612  10.589  0.0823  0.4061 -0.1022
  116OSM    H3S12138   0.477   1.715  10.566  1.2773  0.0970  0.1877
  116OSM     O312139   0.389   1.618  10.720  0.3235  0.2036  0.5663
  116OSM    HO312140   0.457   1.570  10.767 -2.0568 -0.7273  3.3229
  116OSM    C4S12141   0.338   1.577  10.483  0.2706  0.0043 -0.6079
  116OSM    H4S12142   0.337   1.637  10.391  0.2693  1.0744  0.0756
  116OSM    C5S12143   0.247   1.473  10.490 -0.0124 -0.6807  0.2907
  116OSM    H5S12144   0.235   1.408  10.578 -1.7248 -0.7383  0.0511
  116OSM    C6S12145   0.144   1.443  10.378  0.0919  0.5293 -0.5706
  116OSM    H6S12146   0.053   1.504  10.395 -0.3763 -0.2893 -0.0819
  116OSM    H6T12147   0.094   1.344  10.380  0.2982  0.4253 -0.5160
  116OSM    C7S12148   0.201   1.464  10.239  0.1846  0.5652 -0.6632
  116OSM    H7S12149   0.300   1.414  10.245 -0.0728  0.0929 -0.3323
  116OSM    H7T12150   0.212   1.573  10.222 -0.3819  0.7799  0.2474
  116OSM    C8S12151   0.121   1.401  10.127  0.1512 -0.5924 -0.5487
  116OSM    H8S12152   0.012   1.424  10.121  0.0149 -0.7607  0.9827
  116OSM    H8T12153   0.116   1.292  10.143  0.6080 -0.7669 -1.5540
  116OSM    C9S12154   0.184   1.413   9.986 -0.0179 -0.5547  0.5555
  116OSM    H9S12155   0.294   1.413   9.996  0.5089  1.5207 -3.4442
  116OSM    H9T12156   0.142   1.506   9.943 -0.6702 -1.5526 -1.0689
  116OSM   C10S12157   0.152   1.303   9.891 -0.1644 -0.3753  0.2956
  116OSM   H10S12158   0.046   1.325   9.867  0.4092  2.8703  0.2386
  116OSM   H10T12159   0.164   1.212   9.953  0.3559 -0.8930 -0.5582
  116OSM   C11S12160   0.241   1.291   9.763  0.1333 -0.6764 -0.1562
  116OSM   H11S12161   0.348   1.269   9.780  0.2504 -0.1130 -0.1543
  116OSM   H11T12162   0.237   1.386   9.706  1.1688  1.0914  2.4922
  116OSM   C12S12163   0.186   1.177   9.679 -0.0519  0.7023  0.1418
  116OSM   H12S12164   0.080   1.202   9.659 -0.5351  0.2071  1.9419
  116OSM   H12T12165   0.200   1.092   9.749  0.0313  0.1312 -0.5548
  116OSM   C13S12166   0.263   1.162   9.543 -0.4880  0.5612  0.1972
  116OSM   H13S12167   0.368   1.135   9.568  0.2684 -0.4108 -3.4257
  116OSM   H13T12168   0.275   1.266   9.506  3.2866  0.6701  1.3111
  116OSM   C14S12169   0.196   1.064   9.442  0.2822 -0.0521 -0.0167
  116OSM   H14S12170   0.098   1.110   9.419 -0.4489 -1.8164 -0.6084
  116OSM   H14T12171   0.175   0.968   9.494  0.2835 -1.5489 -2.5927
  116OSM   C15S12172   0.276   1.032   9.315 -0.0364  0.9863 -0.1019
  116OSM   H15S12173   0.365   0.970   9.341 -1.6396 -0.1343  3.2490
  116OSM   H15T12174   0.309   1.125   9.265  0.3466  0.1683 -1.4274
  116OSM   C16S12175   0.195   0.945   9.215 -0.3708 -0.5200  0.5132
  116OSM   H16S12176   0.127   1.008   9.155  0.6966 -1.3323 -1.6478
  116OSM   H16T12177   0.136   0.868   9.270 -0.1924 -0.4221  0.8407
  116OSM   C17S12178   0.289   0.876   9.112  0.2931  0.2015 -0.6045
  116OSM   H17S12179   0.226   0.795   9.070 -0.7377 -0.9851  2.8682
  116OSM   H17T12180   0.375   0.821   9.155  1.7171  0.2306 -3.2403
  116OSM   C18S12181   0.336   0.980   9.009 -0.2666  0.7119  0.8940
  116OSM   H18S12182   0.251   1.034   8.962  0.2311  2.3288  1.7949
  116OSM   H18T12183   0.407   0.939   8.934 -3.1386 -2.8394 -0.2129
  116OSM   H18U12184   0.390   1.052   9.073  1.3643  0.5091 -0.1944
  116OSM    C1F12185   0.704   1.412  10.422  0.0106  0.7068  0.3858
  116OSM     OF12186   0.707   1.308  10.488  0.2871 -1.0724  0.0966
  116OSM    C2F12187   0.791   1.436  10.300 -0.0864 -0.4237 -0.3857
  116OSM    H2F12188   0.812   1.545  10.294 -1.8291 -0.1346 -2.0374
  116OSM    H2G12189   0.729   1.415  10.211  0.9527 -0.4533 -1.1121
  116OSM    C3F12190   0.914   1.354  10.306 -0.6720 -0.3671 -0.0739
  116OSM    H3F12191   0.890   1.246  10.314 -1.3493 -0.2282 -0.1868
  116OSM    H3G12192   0.984   1.376  10.390  3.1455  0.7570 -3.2386
  116OSM    C4F12193   1.009   1.388  10.194 -0.7718 -0.3882  0.5572
  116OSM    H4F12194   1.103   1.329  10.204  0.5626  1.3792 -0.8598
  116OSM    H4G12195   1.048   1.492  10.194  1.5136 -1.1903  0.4875
  116OSM    C5F12196   0.935   1.382  10.056 -0.5660  0.0229  0.0360
  116OSM    H5F12197   0.856   1.459  10.041  0.4668  0.9122 -0.9277
  116OSM    H5G12198   0.884   1.283  10.057  1.9216 -1.3422  0.7217
  116OSM    C6F12199   1.037   1.383   9.937 -0.5263  0.5735 -0.1840
  116OSM    H6F12200   0.984   1.336   9.851 -0.0315 -1.0333  0.3433
  116OSM    H6G12201   1.119   1.313   9.966 -1.8773 -0.1709  2.0568
  116OSM    C7F12202   1.072   1.522   9.894 -0.1561  0.0017  0.1065
  116OSM    H7F12203   1.141   1.579   9.959  1.6732  2.0297 -3.3128
  116OSM    H7G12204   0.977   1.579   9.884  0.9964  1.5955 -4.8666
  116OSM    C8F12205   1.163   1.519   9.770 -0.1381 -0.0368  0.2807
  116OSM    H8F12206   1.266   1.496   9.804  1.0373  2.9675 -0.9074
  116OSM    H8G12207   1.171   1.622   9.729 -0.1996  0.3991  1.3421
  116OSM    C9F12208   1.123   1.420   9.670  0.0827  0.1498  0.2008
  116OSM    H9F12209   1.167   1.320   9.680  1.0650  0.6279  0.7389
  116OSM   C10F12210   1.028   1.437   9.571  0.3142 -0.2361 -0.6997
  116OSM   H10F12211   1.004   1.349   9.510  1.5267 -0.6181 -0.6483
  116OSM   C11F12212   0.953   1.565   9.538 -0.6138 -0.0392 -0.3188
  116OSM   H11F12213   0.974   1.654   9.601 -1.5792  2.2397 -3.0248
  116OSM   H11G12214   0.842   1.557   9.544 -0.5927  0.4253  1.2364
  116OSM   C12F12215   0.990   1.609   9.388  0.4280 -0.8433  0.8730
  116OSM   H12F12216   1.090   1.656   9.384  0.1579 -0.2551  0.8982
  116OSM   H12G12217   0.911   1.685   9.368  1.2770 -0.8152 -3.2829
  116OSM   C13F12218   0.977   1.498   9.284  0.1198 -0.0013  0.6541
  116OSM   H13F12219   0.878   1.447   9.278 -0.1720  0.7044 -2.0476
  116OSM   H13G12220   1.053   1.421   9.309  0.6293  0.8264  1.7277
  116OSM   C14F12221   1.004   1.545   9.146  0.0214  0.4282  0.7326
  116OSM   H14F12222   1.100   1.599   9.162  0.3735 -0.3114  1.2064
  116OSM   H14G12223   0.924   1.617   9.119 -1.2804 -0.7267  1.4022
  116OSM   C15F12224   1.016   1.425   9.051 -0.3480  0.2249  0.3132
  116OSM   H15F12225   0.916   1.397   9.014 -0.0837  0.3922 -0.5424
  116OSM   H15G12226   1.051   1.346   9.121  0.0798  1.1684  1.1995
  116OSM   C16F12227   1.109   1.443   8.926  0.7541 -0.0489 -1.6263
  116OSM   H16F12228   1.206   1.488   8.955 -0.6883  1.9340  0.4366
  116OSM   H16G12229   1.054   1.524   8.875 -1.4364  1.4986  2.7308
  116OSM   C17F12230   1.118   1.314   8.843  0.2904  0.1659 -0.2525
  116OSM   H17F12231   1.015   1.277   8.826  0.2851 -0.7221  1.4638
  116OSM   H17G12232   1.178   1.232   8.887  0.8669  1.4823  1.5540
  116OSM   C18F12233   1.179   1.354   8.708 -0.4369  0.4399 -0.2407
  116OSM   H18F12234   1.128   1.435   8.652 -0.6958  0.4822  0.0503
  116OSM   H18G12235   1.176   1.261   8.647  1.3124 -0.9923  1.6921
  116OSM   H18H12236   1.285   1.387   8.717 -0.3931  0.5602 -1.1505
  117OSM      N12237   4.048   4.736  10.777  0.1069  0.8339  0.4956
  117OSM    C1512238   4.005   4.648  10.894  0.3418 -1.0842 -0.1490
  117OSM   H15A12239   4.038   4.700  10.983 -3.0546  0.7477  0.2140
  117OSM   H15B12240   4.047   4.549  10.903 -0.7744 -1.6869 -1.2873
  117OSM   H15C12241   3.899   4.646  10.916 -0.0550  1.0158 -1.5902
  117OSM    C1412242   3.977   4.677  10.656  0.3406  0.1256  0.2072
  117OSM   H14A12243   4.010   4.577  10.632  0.7581  0.6228 -1.4148
  117OSM   H14B12244   3.998   4.735  10.567 -1.2090  0.5953  0.1127
  117OSM   H14C12245   3.869   4.684  10.666  0.4195  1.9975  0.2088
  117OSM    C1312246   3.999   4.872  10.799 -0.1934 -0.4194  0.6937
  117OSM   H13A12247   4.017   4.924  10.706 -0.5508  0.8760  1.3248
  117OSM   H13B12248   4.069   4.917  10.868  2.2962 -1.1699 -1.1464
  117OSM   H13C12249   3.896   4.895  10.818  0.2947  3.0692 -0.1591
  117OSM    C1212250   4.195   4.736  10.763 -0.1279  0.5364  0.4970
  117OSM   H12A12251   4.205   4.806  10.681  1.2896 -0.1758  0.0261
  117OSM   H12B12252   4.232   4.642  10.724 -1.3178 -0.6842  2.1813
  117OSM    C1112253   4.271   4.774  10.890  0.2966 -0.6463  0.2190
  117OSM   H11A12254   4.237   4.872  10.930  0.4536  0.0233 -1.2459
  117OSM   H11B12255   4.376   4.802  10.870  0.0980 -0.0815 -0.0420
  117OSM      P12256   4.337   4.535  10.964 -0.0190  0.2237 -0.1664
  117OSM    O1312257   4.441   4.524  11.065 -0.0917  0.2921 -0.3275
  117OSM    O1412258   4.235   4.421  10.970 -0.4694 -0.2558 -0.3297
  117OSM    O1112259   4.410   4.542  10.822 -0.1875 -0.1737  0.0151
  117OSM    O1212260   4.267   4.671  10.983 -0.1999 -0.3413 -0.8094
  117OSM    C1S12261   4.442   4.419  10.751  0.3276 -0.2586 -0.4731
  117OSM    H1S12262   4.348   4.368  10.721  0.8653 -0.5660 -1.6978
  117OSM    H1T12263   4.495   4.351  10.821 -0.2243  0.6894  0.9034
  117OSM     NF12264   4.561   4.325  10.554  0.3336 -0.6583 -0.1129
  117OSM    HNF12265   4.654   4.298  10.534 -0.2355 -1.3337 -2.0152
  117OSM    C2S12266   4.525   4.446  10.626 -0.3765 -1.0427 -0.0234
  117OSM    H2S12267   4.469   4.509  10.554  0.6689  1.9331  1.5972
  117OSM    C3S12268   4.651   4.531  10.665 -0.3745 -0.4926  0.2392
  117OSM    H3S12269   4.721   4.466  10.721 -0.6091 -1.1633 -0.2319
  117OSM     O312270   4.630   4.649  10.743 -0.2315 -0.2899  0.3401
  117OSM    HO312271   4.556   4.623  10.798 -0.7917 -0.0457 -0.2907
  117OSM    C4S12272   4.727   4.572  10.540  0.1157  0.5698  0.7994
  117OSM    H4S12273   4.808   4.500  10.521  1.5169  2.5526 -1.2921
  117OSM    C5S12274   4.718   4.686  10.459  0.1997 -0.2203 -0.1186
  117OSM    H5S12275   4.641   4.762  10.479  1.0359  0.4824  0.4911
  117OSM    C6S12276   4.815   4.706  10.339 -0.3280  0.5811 -0.3317
  117OSM    H6S12277   4.885   4.620  10.330  0.0751  0.6033  2.0091
  117OSM    H6T12278   4.871   4.799  10.363 -1.8231  1.5796 -0.5959
  117OSM    C7S12279   4.741   4.734  10.209 -0.2126  0.6312 -0.6399
  117OSM    H7S12280   4.671   4.819  10.224 -0.5345  0.9134 -3.2123
  117OSM    H7T12281   4.661   4.658  10.192 -0.9271  0.6609  2.1330
  117OSM    C8S12282   4.832   4.762  10.090 -0.0040  0.6098 -0.7740
  117OSM    H8S12283   4.888   4.668  10.068 -0.0720  0.0307  1.3241
  117OSM    H8T12284   4.913   4.832  10.118  0.3807 -1.0040  2.7186
  117OSM    C9S12285   4.748   4.807   9.965 -0.0133 -0.4082 -0.2559
  117OSM    H9S12286   4.685   4.891  10.001  0.2743 -0.5640  0.6386
  117OSM    H9T12287   4.699   4.713   9.932  1.9289 -0.9710 -1.7407
  117OSM   C10S12288   4.834   4.863   9.858 -0.2433  0.2453 -0.3828
  117OSM   H10S12289   4.895   4.953   9.884 -1.9456  1.2413  0.3168
  117OSM   H10T12290   4.767   4.883   9.771 -2.3721  0.7056  1.2825
  117OSM   C11S12291   4.945   4.762   9.799  0.2644 -0.5587  0.5431
  117OSM   H11S12292   4.883   4.672   9.776 -0.9605  0.9412 -2.6282
  117OSM   H11T12293   5.023   4.742   9.875 -0.1464 -2.8111  0.4316
  117OSM   C12S12294   5.017   4.812   9.671  0.0919 -0.0974 -0.1915
  117OSM   H12S12295   5.094   4.738   9.640 -1.4524 -1.4831 -0.9009
  117OSM   H12T12296   5.054   4.912   9.700 -0.2432  0.5642 -1.9873
  117OSM   C13S12297   4.924   4.838   9.554 -0.2158 -0.0346 -0.0889
  117OSM   H13S12298   4.849   4.916   9.580  1.5309  0.7719  2.9990
  117OSM   H13T12299   4.869   4.746   9.524 -0.3907 -0.7414  2.2267
  117OSM   C14S12300   4.990   4.900   9.427  0.0378  0.4606 -0.3035
  117OSM   H14S12301   5.089   4.851   9.411 -0.9254 -2.0021  0.7653
  117OSM   H14T12302   5.015   5.006   9.450 -0.9551  0.5320  0.4781
  117OSM   C15S12303   4.911   4.883   9.304 -0.0424  0.0080 -0.7869
  117OSM   H15S12304   4.813   4.935   9.310  0.1715  0.5461 -1.8176
  117OSM   H15T12305   4.898   4.774   9.285  0.6551  0.0695 -1.6972
  117OSM   C16S12306   4.991   4.932   9.185 -0.7926  0.0972  1.0929
  117OSM   H16S12307   4.931   4.906   9.095 -0.2268  0.5284  0.5853
  117OSM   H16T12308   5.092   4.887   9.189 -1.0084 -0.3080  3.2642
  117OSM   C17S12309   5.021   5.087   9.180 -0.6197  0.1660 -0.5951
  117OSM   H17S12310   5.032   5.116   9.287 -2.8091  1.7672 -0.7422
  117OSM   H17T12311   4.935   5.141   9.136 -0.1063  1.9443  0.4901
  117OSM   C18S12312   5.144   5.131   9.102 -0.2529  0.3194  0.0009
  117OSM   H18S12313   5.154   5.241   9.114 -1.1495  0.3247  0.8083
  117OSM   H18T12314   5.145   5.104   8.994  1.1908  1.6359 -0.3559
  117OSM   H18U12315   5.232   5.075   9.141 -1.1699 -1.0791  0.1144
  117OSM    C1F12316   4.461   4.245  10.506 -0.5112  0.2978 -0.4649
  117OSM     OF12317   4.341   4.273  10.510  0.5785 -0.3721 -0.8003
  117OSM    C2F12318   4.511   4.122  10.437 -0.0233 -0.4993 -0.6575
  117OSM    H2F12319   4.428   4.056  10.404  1.1815 -2.0288 -0.7321
  117OSM    H2G12320   4.570   4.060  10.508  2.3962  1.7594 -0.5166
  117OSM    C3F12321   4.600   4.151  10.306  0.3224  0.6472 -0.0877
  117OSM    H3F12322   4.662   4.066  10.270  0.7192  1.3886 -1.2298
  117OSM    H3G12323   4.677   4.223  10.338  0.3778  0.5708 -0.0509
  117OSM    C4F12324   4.507   4.206  10.193 -0.3609  0.1886  0.7049
  117OSM    H4F12325   4.459   4.299  10.229 -0.7986 -0.5741  2.1875
  117OSM    H4G12326   4.424   4.134  10.181 -1.4061  1.5889 -0.8277
  117OSM    C5F12327   4.578   4.226  10.054 -0.0099 -0.0493 -0.2534
  117OSM    H5F12328   4.499   4.230   9.976 -0.7726 -0.2733  0.4902
  117OSM    H5G12329   4.645   4.142  10.023  0.6171  1.0327 -1.9431
  117OSM    C6F12330   4.655   4.352  10.035 -0.0834  0.0378 -0.6645
  117OSM    H6F12331   4.737   4.347  10.111 -0.6077 -0.5567 -0.1226
  117OSM    H6G12332   4.593   4.442  10.056  0.4369  0.5715 -1.3939
  117OSM    C7F12333   4.708   4.381   9.894 -0.3575 -0.2941 -0.1815
  117OSM    H7F12334   4.767   4.298   9.849 -1.0559 -0.7192 -0.3208
  117OSM    H7G12335   4.777   4.467   9.904 -0.9307  0.1503 -0.0245
  117OSM    C8F12336   4.599   4.428   9.796  0.2944  0.2677 -0.0410
  117OSM    H8F12337   4.531   4.504   9.842  1.7372  2.0011 -0.6634
  117OSM    H8G12338   4.537   4.336   9.791  1.9891 -1.1018  2.2824
  117OSM    C9F12339   4.650   4.475   9.660  0.9127  1.0237  0.1387
  117OSM    H9F12340   4.691   4.577   9.655  0.3699  1.2008 -1.0687
  117OSM   C10F12341   4.640   4.398   9.550  0.0372  0.0592 -0.4640
  117OSM   H10F12342   4.671   4.440   9.453  1.5060 -2.2373 -1.0726
  117OSM   C11F12343   4.592   4.255   9.534  0.1946 -0.4268  0.2583
  117OSM   H11F12344   4.519   4.222   9.610  0.6823 -0.8314  0.5604
  117OSM   H11G12345   4.680   4.187   9.536  0.3434 -0.3175 -1.2138
  117OSM   C12F12346   4.533   4.229   9.395 -0.8201 -0.9280 -1.1247
  117OSM   H12F12347   4.454   4.307   9.386  1.2162  1.5040  0.6150
  117OSM   H12G12348   4.500   4.124   9.384  0.9788 -1.5783 -0.5227
  117OSM   C13F12349   4.636   4.248   9.274  0.1124 -0.5304  0.0852
  117OSM   H13F12350   4.709   4.165   9.276 -3.0927 -3.5893  0.9817
  117OSM   H13G12351   4.686   4.347   9.285 -4.3641  2.0170  0.1793
  117OSM   C14F12352   4.554   4.240   9.138 -0.4708 -0.1820  0.8507
  117OSM   H14F12353   4.634   4.260   9.064  0.7848 -1.6184  1.7496
  117OSM   H14G12354   4.477   4.320   9.139 -0.9161 -0.6018  1.5726
  117OSM   C15F12355   4.489   4.106   9.107  0.3434  0.6102  0.2360
  117OSM   H15F12356   4.420   4.083   9.192  2.3181 -0.6564  1.5788
  117OSM   H15G12357   4.560   4.021   9.115 -1.0796 -0.6175  0.3204
  117OSM   C16F12358   4.409   4.101   8.969 -0.6567 -0.3703 -0.2199
  117OSM   H16F12359   4.355   4.196   8.951 -0.8422 -0.3899  0.2251
  117OSM   H16G12360   4.327   4.027   8.979 -1.0883  0.1276 -0.0289
  117OSM   C17F12361   4.501   4.065   8.850 -0.0194  0.2909  0.4926
  117OSM   H17F12362   4.543   3.964   8.873  1.2081  0.9378  1.2252
  117OSM   H17G12363   4.593   4.122   8.827  1.4099 -1.5447  1.3410
  117OSM   C18F12364   4.402   4.050   8.726 -0.1440  0.3070  0.6251
  117OSM   H18F12365   4.453   4.012   8.635  0.9368  0.5590  1.1117
  117OSM   H18G12366   4.355   4.149   8.709  1.8443  1.3302  0.8290
  117OSM   H18H12367   4.321   3.976   8.748 -1.1988  1.0661 -0.6019
  118OSM      N12368   4.365   5.948  10.949 -0.6549  0.1198  0.1008
  118OSM    C1512369   4.304   5.920  11.075 -0.0415 -0.4432 -0.1997
  118OSM   H15A12370   4.229   5.995  11.095 -0.4238 -1.2595  1.7391
  118OSM   H15B12371   4.378   5.922  11.153 -0.8368  0.8089  0.5634
  118OSM   H15C12372   4.256   5.823  11.070 -1.7546  0.3325  0.1603
  118OSM    C1412373   4.482   5.857  10.943  0.0165 -0.0140 -0.4227
  118OSM   H14A12374   4.564   5.891  11.004  0.8705 -3.0855  0.3424
  118OSM   H14B12375   4.524   5.849  10.844  1.0312 -0.1297  0.0106
  118OSM   H14C12376   4.454   5.759  10.978  0.0808 -1.1629 -3.3072
  118OSM    C1312377   4.281   5.896  10.843  0.0805 -0.4076  0.2077
  118OSM   H13A12378   4.334   5.907  10.750  0.4175 -0.3605  0.4057
  118OSM   H13B12379   4.186   5.948  10.840 -0.3768 -1.1950 -2.6712
  118OSM   H13C12380   4.267   5.790  10.850  0.7337 -0.4057  1.8433
  118OSM    C1212381   4.398   6.094  10.938  1.0061 -0.2369 -0.9128
  118OSM   H12A12382   4.303   6.144  10.943  1.5685  0.7876 -0.2334
  118OSM   H12B12383   4.419   6.127  10.837  0.9486 -1.7049 -1.4324
  118OSM    C1112384   4.503   6.151  11.043  1.1958 -0.0994  0.4023
  118OSM   H11A12385   4.479   6.136  11.151  3.8712  0.0885  1.1041
  118OSM   H11B12386   4.503   6.261  11.025  0.3916  0.0002  0.9570
  118OSM      P12387   4.753   6.170  10.980  0.2770 -0.1183  0.4023
  118OSM    O1312388   4.801   6.241  11.102 -0.3703  0.6281  0.5181
  118OSM    O1412389   4.843   6.068  10.920  0.0011  0.1577  0.1392
  118OSM    O1112390   4.694   6.261  10.870  0.4883 -0.5314  0.3158
  118OSM    O1212391   4.627   6.086  11.025  0.1382 -0.1138 -0.7235
  118OSM    C1S12392   4.775   6.354  10.798 -0.4923 -0.4686  0.1634
  118OSM    H1S12393   4.882   6.340  10.824 -0.0438  0.0171 -1.3432
  118OSM    H1T12394   4.750   6.458  10.829 -0.2603  0.2183 -1.8429
  118OSM     NF12395   4.821   6.417  10.571 -0.0727  0.2375 -0.3605
  118OSM    HNF12396   4.782   6.505  10.545 -3.1661 -0.5116  1.2059
  118OSM    C2S12397   4.728   6.344  10.651 -0.7858  0.3130  0.2837
  118OSM    H2S12398   4.734   6.237  10.621 -3.1848 -0.1846  1.3672
  118OSM    C3S12399   4.576   6.385  10.626  0.0875 -0.7121  0.4425
  118OSM    H3S12400   4.558   6.492  10.648  1.7553 -0.2408 -0.3128
  118OSM     O312401   4.482   6.320  10.719  0.6765  0.1850  0.5456
  118OSM    HO312402   4.537   6.293  10.793 -0.3869 -1.1370  0.9035
  118OSM    C4S12403   4.540   6.361  10.488 -1.1827 -0.6276 -0.3086
  118OSM    H4S12404   4.553   6.451  10.426 -0.5902  0.9195  1.9457
  118OSM    C5S12405   4.499   6.251  10.433  0.0890 -0.3381  0.5346
  118OSM    H5S12406   4.477   6.164  10.498 -1.7823  0.2823  0.7767
  118OSM    C6S12407   4.475   6.231  10.289 -0.9227  0.2181  0.2538
  118OSM    H6S12408   4.374   6.192  10.263  0.9552 -2.8475 -3.2920
  118OSM    H6T12409   4.548   6.156  10.252  1.6946  1.5491  2.3101
  118OSM    C7S12410   4.486   6.349  10.192 -0.5232 -0.3029  0.1889
  118OSM    H7S12411   4.558   6.430  10.219 -0.2224 -0.8045  0.9265
  118OSM    H7T12412   4.386   6.398  10.188 -0.4461 -0.1649 -0.0604
  118OSM    C8S12413   4.528   6.290  10.054 -0.6244  0.7819 -0.1545
  118OSM    H8S12414   4.628   6.241  10.054 -0.9870  0.0367 -0.0877
  118OSM    H8T12415   4.531   6.378   9.986 -1.2672  1.6741  0.9406
  118OSM    C9S12416   4.423   6.198   9.992  0.4139  0.3441 -0.1424
  118OSM    H9S12417   4.326   6.252   9.991  0.7170  0.9210 -2.1657
  118OSM    H9T12418   4.419   6.106  10.053 -0.2716  0.2998 -0.2470
  118OSM   C10S12419   4.464   6.156   9.852  0.2318  0.7686  0.4839
  118OSM   H10S12420   4.573   6.132   9.854  0.1836  0.5749  1.0582
  118OSM   H10T12421   4.452   6.245   9.786  2.0801  0.4942 -0.2817
  118OSM   C11S12422   4.392   6.033   9.790 -0.1121 -0.1311 -0.2552
  118OSM   H11S12423   4.283   6.049   9.800  0.2934  2.9310  0.2769
  118OSM   H11T12424   4.426   5.953   9.860  1.4745  0.4152 -0.3441
  118OSM   C12S12425   4.429   6.007   9.646 -0.2619 -0.7178  0.7148
  118OSM   H12S12426   4.443   5.898   9.632 -0.1712 -0.3573 -3.0170
  118OSM   H12T12427   4.527   6.052   9.619 -1.1268  0.7125 -0.2303
  118OSM   C13S12428   4.337   6.063   9.531 -0.4081  0.2572 -0.0365
  118OSM   H13S12429   4.345   6.174   9.523  1.2441  0.1002 -0.8572
  118OSM   H13T12430   4.235   6.039   9.568 -1.0348  1.2697 -1.0308
  118OSM   C14S12431   4.361   6.007   9.393 -0.3210 -0.2205  0.8343
  118OSM   H14S12432   4.457   5.953   9.383 -1.1698 -1.3552 -2.6361
  118OSM   H14T12433   4.366   6.090   9.320 -1.8393 -0.6025  0.2688
  118OSM   C15S12434   4.238   5.922   9.348 -0.3086  0.4348 -0.4066
  118OSM   H15S12435   4.235   5.819   9.392  2.0232  0.0221 -1.1279
  118OSM   H15T12436   4.254   5.886   9.244 -0.4306 -2.0566  0.3551
  118OSM   C16S12437   4.100   5.992   9.340  0.1574 -0.3008  0.3100
  118OSM   H16S12438   4.120   6.087   9.286 -1.1164 -0.5355 -0.6137
  118OSM   H16T12439   4.069   6.014   9.445  0.2251  0.0551  0.2554
  118OSM   C17S12440   3.984   5.916   9.265 -0.1912 -0.0452  0.1387
  118OSM   H17S12441   3.901   5.990   9.257 -1.7596 -1.8067 -0.5470
  118OSM   H17T12442   3.953   5.831   9.328 -2.8080  0.3845 -0.4571
  118OSM   C18S12443   4.009   5.886   9.120  0.4970  0.0812 -0.1092
  118OSM   H18S12444   3.932   5.822   9.072 -1.2001 -0.0504  2.5885
  118OSM   H18T12445   4.110   5.838   9.119  0.5193  0.0494  1.5387
  118OSM   H18U12446   4.010   5.977   9.056  2.0323 -0.6987 -1.2861
  118OSM    C1F12447   4.949   6.383  10.550 -0.0731 -0.1111 -0.5752
  118OSM     OF12448   4.995   6.283  10.592  0.1689 -0.1957  0.0877
  118OSM    C2F12449   5.043   6.469  10.468 -0.3629  0.2800  0.2783
  118OSM    H2F12450   5.132   6.504  10.524  0.0073  1.1289 -0.8216
  118OSM    H2G12451   4.987   6.563  10.451  1.0228  0.9641 -0.6591
  118OSM    C3F12452   5.074   6.415  10.323 -0.3204 -0.1018  0.2054
  118OSM    H3F12453   5.106   6.310  10.334  1.6004  0.2149 -1.6254
  118OSM    H3G12454   5.161   6.472  10.283  0.9968 -1.0287  1.6385
  118OSM    C4F12455   4.957   6.413  10.226 -0.0271  0.5456  0.4239
  118OSM    H4F12456   4.935   6.520  10.204  0.1297  0.9023  1.9028
  118OSM    H4G12457   4.863   6.366  10.262 -0.8785  2.6044  1.0576
  118OSM    C5F12458   4.994   6.336  10.096  1.2831 -0.4838  0.0190
  118OSM    H5F12459   4.981   6.226  10.105 -1.7383 -0.0939  1.9554
  118OSM    H5G12460   5.102   6.344  10.071  1.5305 -1.8758  0.5172
  118OSM    C6F12461   4.909   6.383   9.981 -0.6735 -0.3506 -0.1758
  118OSM    H6F12462   4.953   6.482   9.958 -1.3007  0.2294  1.0733
  118OSM    H6G12463   4.803   6.395  10.012 -0.7266 -1.5796  0.1795
  118OSM    C7F12464   4.915   6.292   9.853  0.7256 -0.2393 -0.0109
  118OSM    H7F12465   4.853   6.200   9.862 -1.4276  1.2872  1.7128
  118OSM    H7G12466   5.021   6.262   9.834  0.0842 -1.8136 -1.3068
  118OSM    C8F12467   4.877   6.372   9.730 -0.6125 -0.9160  0.0919
  118OSM    H8F12468   4.876   6.307   9.640 -1.0282  1.6149 -1.8659
  118OSM    H8G12469   4.962   6.438   9.702 -1.9443  1.5200  1.4748
  118OSM    C9F12470   4.746   6.454   9.743  0.3280  0.0624 -0.8786
  118OSM    H9F12471   4.752   6.535   9.818  1.4469 -0.4436 -0.4067
  118OSM   C10F12472   4.638   6.447   9.671  0.4559 -0.1786  0.4477
  118OSM   H10F12473   4.556   6.517   9.693  1.4294  1.2686 -0.3393
  118OSM   C11F12474   4.618   6.365   9.550  0.1071 -0.1317  0.4723
  118OSM   H11F12475   4.532   6.295   9.546  0.9603 -1.1874 -3.2295
  118OSM   H11G12476   4.709   6.311   9.516 -0.0032  1.5141 -2.7301
  118OSM   C12F12477   4.597   6.462   9.430 -0.5685  0.6330 -0.7729
  118OSM   H12F12478   4.688   6.522   9.408  1.6659 -1.9069  0.9531
  118OSM   H12G12479   4.503   6.519   9.444 -1.6322 -1.0676 -0.6337
  118OSM   C13F12480   4.570   6.373   9.304 -0.1268  0.3159  0.0945
  118OSM   H13F12481   4.492   6.300   9.333 -2.2332  1.7133 -1.7337
  118OSM   H13G12482   4.655   6.314   9.262  0.2127  1.1037 -0.3501
  118OSM   C14F12483   4.505   6.449   9.187 -0.6318  0.1831  0.2867
  118OSM   H14F12484   4.589   6.511   9.149 -0.8363  0.5510  0.4350
  118OSM   H14G12485   4.435   6.520   9.235 -0.0447 -0.4700  2.1771
  118OSM   C15F12486   4.440   6.360   9.085 -0.1686 -0.4750  0.3016
  118OSM   H15F12487   4.506   6.276   9.056  1.3879  0.2410  1.6021
  118OSM   H15G12488   4.409   6.416   8.994 -0.6599 -0.9246  0.1870
  118OSM   C16F12489   4.306   6.308   9.122  0.1840 -0.4062  1.1782
  118OSM   H16F12490   4.226   6.385   9.122  1.0555  0.5607 -0.7211
  118OSM   H16G12491   4.300   6.277   9.229  1.2241 -0.5963  1.1906
  118OSM   C17F12492   4.242   6.218   9.012 -0.0315  0.3327  0.6342
  118OSM   H17F12493   4.147   6.173   9.049  0.1814  0.1545  0.9735
  118OSM   H17G12494   4.316   6.137   9.000  0.2398  0.6461  0.2032
  118OSM   C18F12495   4.204   6.283   8.878  0.0372 -0.1348  0.0364
  118OSM   H18F12496   4.132   6.218   8.824 -1.6766  2.6862 -1.2545
  118OSM   H18G12497   4.299   6.295   8.822  1.2469  2.3639  2.3794
  118OSM   H18H12498   4.162   6.380   8.910 -1.5711 -1.3205  1.7598
  119OSM      N12499   5.077   5.273  10.909 -0.1262 -0.3102 -0.9151
  119OSM    C1512500   5.144   5.366  11.012  0.3498  0.5755  0.6093
  119OSM   H15A12501   5.231   5.316  11.053 -1.2542 -2.1501  0.8655
  119OSM   H15B12502   5.078   5.381  11.097 -2.0765 -1.1516 -0.8531
  119OSM   H15C12503   5.164   5.465  10.974 -2.6613  0.7048 -0.8438
  119OSM    C1412504   4.968   5.340  10.835 -0.5361  0.4179  0.1941
  119OSM   H14A12505   5.017   5.418  10.777  0.5996  0.2803  0.9406
  119OSM   H14B12506   4.889   5.388  10.890 -2.4719  1.8729 -3.5092
  119OSM   H14C12507   4.905   5.279  10.772 -0.7179 -0.0263  0.8045
  119OSM    C1312508   5.181   5.227  10.808 -0.1475 -0.0755  0.7944
  119OSM   H13A12509   5.146   5.148  10.742 -0.4185 -0.3151  1.2208
  119OSM   H13B12510   5.269   5.195  10.862  0.1274 -1.5496 -0.4627
  119OSM   H13C12511   5.207   5.312  10.747 -2.9953  1.2253  1.2553
  119OSM    C1212512   5.026   5.146  10.979  0.4960 -0.4985 -0.0622
  119OSM   H12A12513   4.955   5.168  11.057  1.6236 -2.1824  1.5248
  119OSM   H12B12514   5.103   5.084  11.022  1.0700 -1.1936 -1.9833
  119OSM    C1112515   4.949   5.047  10.885 -0.4283 -0.3729 -0.1725
  119OSM   H11A12516   4.990   5.030  10.783 -0.8856  2.4573 -0.9135
  119OSM   H11B12517   4.854   5.104  10.876  0.0831  0.4703 -0.3528
  119OSM      P12518   5.046   4.818  10.975 -0.2797 -0.3020  0.4629
  119OSM    O1312519   5.170   4.878  11.023 -0.2918  0.1912  0.5531
  119OSM    O1412520   4.992   4.710  11.052 -0.2012 -0.6524  0.2115
  119OSM    O1112521   5.061   4.785  10.826  0.1404  0.1805 -0.2612
  119OSM    O1212522   4.927   4.929  10.951 -0.4846  0.1853 -0.3583
  119OSM    C1S12523   5.140   4.667  10.783 -0.0819 -0.1493 -0.1554
  119OSM    H1S12524   5.090   4.571  10.804  0.6596 -0.5249 -0.0843
  119OSM    H1T12525   5.241   4.680  10.828 -1.7984  4.5887  3.2407
  119OSM     NF12526   5.212   4.519  10.606  0.0632  0.4371  0.6362
  119OSM    HNF12527   5.309   4.510  10.586 -0.0464  1.2912 -0.3804
  119OSM    C2S12528   5.156   4.655  10.630 -0.2246 -0.7228  0.0150
  119OSM    H2S12529   5.060   4.664  10.575 -0.5492 -0.6047  0.5987
  119OSM    C3S12530   5.246   4.772  10.582 -0.6976  0.3577 -0.3117
  119OSM    H3S12531   5.341   4.771  10.639 -1.6567 -3.2232  1.5041
  119OSM     O312532   5.198   4.902  10.623 -0.1308 -0.2571 -0.0003
  119OSM    HO312533   5.135   4.877  10.691 -0.4079 -1.9072 -0.8171
  119OSM    C4S12534   5.278   4.756  10.434  0.2520  0.4490  0.3143
  119OSM    H4S12535   5.353   4.678  10.416  1.3547  1.7408 -1.0182
  119OSM    C5S12536   5.216   4.824  10.327 -0.6798 -0.4828 -0.3172
  119OSM    H5S12537   5.141   4.898  10.358 -1.0094 -1.3397  0.9773
  119OSM    C6S12538   5.233   4.809  10.176  0.1770  0.4798  0.0274
  119OSM    H6S12539   5.208   4.909  10.133 -1.5510 -0.1959 -0.6476
  119OSM    H6T12540   5.156   4.736  10.145 -1.3090  1.5204  1.1111
  119OSM    C7S12541   5.372   4.766  10.129 -0.2786 -0.3837  0.2645
  119OSM    H7S12542   5.395   4.661  10.157  0.3986 -0.4091 -0.3252
  119OSM    H7T12543   5.453   4.821  10.182  0.8653 -2.4540  0.7995
  119OSM    C8S12544   5.396   4.757   9.973  0.0028 -0.2504 -0.1650
  119OSM    H8S12545   5.317   4.691   9.931 -1.2277  0.4986  0.8985
  119OSM    H8T12546   5.493   4.706   9.956  1.5018  1.4504  2.6471
  119OSM    C9S12547   5.383   4.889   9.902 -0.0115 -0.3575 -0.0816
  119OSM    H9S12548   5.447   4.953   9.966  1.0710  0.1531 -1.6413
  119OSM    H9T12549   5.279   4.929   9.903  0.9543  2.3697  2.1076
  119OSM   C10S12550   5.422   4.882   9.753  0.2929  0.0367  0.1040
  119OSM   H10S12551   5.345   4.816   9.707  2.3354 -1.0312 -1.9747
  119OSM   H10T12552   5.521   4.831   9.745 -0.0972 -1.6101  3.7152
  119OSM   C11S12553   5.405   5.010   9.678  0.3637 -0.0799  0.1631
  119OSM   H11S12554   5.472   5.089   9.717  0.1535 -0.8947  2.3389
  119OSM   H11T12555   5.295   5.022   9.678  0.2748 -0.7841  0.8096
  119OSM   C12S12556   5.458   4.976   9.540  0.4556  0.1027  0.5488
  119OSM   H12S12557   5.386   4.905   9.494  0.7850 -0.2122  0.5212
  119OSM   H12T12558   5.557   4.928   9.551  1.1452 -0.0684 -4.1086
  119OSM   C13S12559   5.477   5.111   9.467  0.0075  0.2350 -0.5068
  119OSM   H13S12560   5.541   5.181   9.525  0.1322  0.1036 -0.4864
  119OSM   H13T12561   5.377   5.159   9.476 -0.4593 -1.0238  1.9809
  119OSM   C14S12562   5.519   5.078   9.320 -0.5811  1.2588  0.0339
  119OSM   H14S12563   5.447   5.004   9.279 -1.3298  0.8167  2.0445
  119OSM   H14T12564   5.614   5.021   9.329 -1.1654  0.0691 -0.9992
  119OSM   C15S12565   5.531   5.206   9.246  0.1451  0.3814  0.4239
  119OSM   H15S12566   5.620   5.261   9.285  1.3552 -0.9457 -0.3658
  119OSM   H15T12567   5.434   5.259   9.255  0.1057  0.1852  1.2882
  119OSM   C16S12568   5.576   5.189   9.099  0.9405  0.3661 -0.0025
  119OSM   H16S12569   5.490   5.140   9.049 -0.4968  2.2272  0.5301
  119OSM   H16T12570   5.666   5.124   9.096 -0.3304 -1.5845  1.5867
  119OSM   C17S12571   5.595   5.322   9.022  0.1897 -1.0137 -0.1377
  119OSM   H17S12572   5.622   5.301   8.916 -0.7486  0.2185 -0.6472
  119OSM   H17T12573   5.684   5.375   9.062  2.8964 -3.3924 -2.5314
  119OSM   C18S12574   5.460   5.401   9.014 -0.4990  0.4482  0.5017
  119OSM   H18S12575   5.428   5.421   9.119  1.1645 -2.0911  1.5861
  119OSM   H18T12576   5.386   5.331   8.968 -1.7333  0.6466  2.1006
  119OSM   H18U12577   5.482   5.491   8.952 -0.8576 -1.0552 -1.9216
  119OSM    C1F12578   5.135   4.414  10.590  0.4084  0.0518  0.4433
  119OSM     OF12579   5.018   4.421  10.623  0.1269  0.2859  0.8517
  119OSM    C2F12580   5.201   4.290  10.540 -0.1322  0.3382 -0.0857
  119OSM    H2F12581   5.203   4.211  10.618  0.5408  2.0837  1.7532
  119OSM    H2G12582   5.304   4.326  10.523 -0.7708  2.0182 -0.5890
  119OSM    C3F12583   5.143   4.240  10.402  0.4112 -0.2451  0.2171
  119OSM    H3F12584   5.035   4.215  10.405  0.7941 -1.9274  2.0730
  119OSM    H3G12585   5.197   4.148  10.371  1.3488 -0.9104  3.4198
  119OSM    C4F12586   5.177   4.341  10.288 -0.3738 -0.7125  0.0098
  119OSM    H4F12587   5.286   4.356  10.273 -0.9010  1.1946 -2.7443
  119OSM    H4G12588   5.124   4.434  10.318 -1.2437 -1.3391  0.4364
  119OSM    C5F12589   5.115   4.282  10.157 -0.4104  0.0491  0.1789
  119OSM    H5F12590   5.010   4.248  10.165 -0.7893  1.4834  2.2542
  119OSM    H5G12591   5.175   4.191  10.136 -0.5772 -0.1151  0.4037
  119OSM    C6F12592   5.149   4.361  10.030 -0.1716  0.1344  0.6802
  119OSM    H6F12593   5.253   4.398  10.036  0.0636 -0.3751 -0.1996
  119OSM    H6G12594   5.080   4.448  10.020 -0.9966 -0.6090 -0.3382
  119OSM    C7F12595   5.125   4.276   9.904  0.4336  0.1329 -0.5213
  119OSM    H7F12596   5.025   4.230   9.919  0.7128 -0.5706 -0.8144
  119OSM    H7G12597   5.189   4.188   9.887 -1.1134 -1.6460  2.0514
  119OSM    C8F12598   5.129   4.353   9.768 -0.3719  0.4469  0.1673
  119OSM    H8F12599   5.047   4.428   9.764 -0.9689 -0.2406 -0.8716
  119OSM    H8G12600   5.117   4.273   9.692  0.5788  0.1599  0.3022
  119OSM    C9F12601   5.252   4.437   9.740 -0.5082 -0.0680 -0.1662
  119OSM    H9F12602   5.294   4.494   9.824 -2.4981  1.5232 -0.1879
  119OSM   C10F12603   5.314   4.461   9.621  0.1965 -0.1012  0.3361
  119OSM   H10F12604   5.401   4.527   9.617  1.7642 -2.0254  1.0384
  119OSM   C11F12605   5.259   4.398   9.492  0.1869 -0.1419 -0.1588
  119OSM   H11F12606   5.158   4.353   9.493 -0.5047  1.3534  0.3100
  119OSM   H11G12607   5.331   4.318   9.465  0.8857 -0.4085  2.2786
  119OSM   C12F12608   5.255   4.519   9.393  0.2003  0.4473  0.4246
  119OSM   H12F12609   5.198   4.603   9.438  0.1884 -0.1419  1.5748
  119OSM   H12G12610   5.185   4.480   9.317 -0.0218 -0.2702  0.9727
  119OSM   C13F12611   5.395   4.570   9.346  0.1140  0.2567  0.4198
  119OSM   H13F12612   5.457   4.482   9.316 -0.0600  0.4144 -0.4179
  119OSM   H13G12613   5.441   4.622   9.433 -1.4160  1.4898  0.5360
  119OSM   C14F12614   5.379   4.664   9.223 -0.0824 -0.8413 -0.2520
  119OSM   H14F12615   5.319   4.750   9.259 -0.0321 -1.8960  2.5803
  119OSM   H14G12616   5.324   4.609   9.145 -0.9627  0.0664 -0.2869
  119OSM   C15F12617   5.515   4.699   9.153 -0.8821 -0.2541  0.2140
  119OSM   H15F12618   5.567   4.611   9.110 -0.9265 -0.5399  0.7412
  119OSM   H15G12619   5.585   4.739   9.230 -0.0112  0.4098 -0.8878
  119OSM   C16F12620   5.500   4.817   9.064 -0.1560 -0.5807  0.1223
  119OSM   H16F12621   5.586   4.886   9.070  0.7522 -1.5651 -1.1566
  119OSM   H16G12622   5.415   4.887   9.084  0.6530  0.6181 -0.5382
  119OSM   C17F12623   5.505   4.776   8.914 -0.3209  0.0951 -0.2256
  119OSM   H17F12624   5.418   4.709   8.896  0.7394 -1.4825  0.3493
  119OSM   H17G12625   5.596   4.715   8.893 -1.2249 -0.9987 -1.0978
  119OSM   C18F12626   5.487   4.903   8.827 -0.5146  0.0026  0.5369
  119OSM   H18F12627   5.387   4.951   8.832 -0.9953 -0.8475 -0.5468
  119OSM   H18G12628   5.503   4.875   8.721 -1.8304  0.2124  0.2631
  119OSM   H18H12629   5.575   4.969   8.841 -0.5708  0.4135 -0.8628
  120OSM      N12630   5.156   1.022  10.823  0.4679 -0.2855 -0.7023
  120OSM    C1512631   5.042   1.090  10.886  0.5394 -0.3604  0.1624
  120OSM   H15A12632   5.036   1.088  10.994  1.9629  1.8429  0.3388
  120OSM   H15B12633   4.954   1.049  10.839  0.4927  0.9947 -1.0080
  120OSM   H15C12634   5.028   1.191  10.851  1.2343 -0.6966 -1.1288
  120OSM    C1412635   5.282   1.082  10.872 -0.8271  0.1526  0.2617
  120OSM   H14A12636   5.369   1.040  10.823 -0.9634  2.7234 -2.4623
  120OSM   H14B12637   5.292   1.072  10.979  0.1977 -1.4338  0.0490
  120OSM   H14C12638   5.297   1.186  10.846  0.7697  0.0714  0.7124
  120OSM    C1312639   5.152   0.877  10.856  0.3292  0.1704 -0.3645
  120OSM   H13A12640   5.178   0.864  10.960 -0.6247 -0.8800 -0.2347
  120OSM   H13B12641   5.231   0.833  10.797  0.2684 -3.2785  1.8434
  120OSM   H13C12642   5.054   0.835  10.843 -0.8242  2.9787 -1.4505
  120OSM    C1212643   5.152   1.030  10.677 -0.0713  0.7395  0.6870
  120OSM   H12A12644   5.248   1.008  10.633 -1.3561 -2.9464 -0.6243
  120OSM   H12B12645   5.126   1.132  10.654  0.7350  0.4151 -2.0437
  120OSM    C1112646   5.031   0.954  10.600  0.2625 -0.2941  0.4051
  120OSM   H11A12647   5.044   0.844  10.600 -2.7270 -0.7566 -0.6284
  120OSM   H11B12648   5.033   0.976  10.491 -0.9781 -1.6027  0.0850
  120OSM      P12649   4.824   1.112  10.593 -0.4004  0.4591 -0.0733
  120OSM    O1312650   4.713   1.141  10.685  0.0897  0.2128  0.4025
  120OSM    O1412651   4.918   1.223  10.557 -0.2276  0.3581  0.4197
  120OSM    O1112652   4.766   1.054  10.456  0.2055  0.3794  0.2247
  120OSM    O1212653   4.905   0.988  10.651 -0.0945 -0.5209 -0.9822
  120OSM    C1S12654   4.662   1.116  10.386  0.1480 -0.4295 -0.5140
  120OSM    H1S12655   4.622   1.202  10.445  4.1654  3.0355 -2.2982
  120OSM    H1T12656   4.576   1.048  10.369 -0.5132  0.2982 -0.1711
  120OSM     NF12657   4.635   1.262  10.192  0.3064 -0.3224  0.0968
  120OSM    HNF12658   4.575   1.224  10.122 -1.6708  0.0012  1.5179
  120OSM    C2S12659   4.724   1.171  10.250  0.3479  0.1715  0.5641
  120OSM    H2S12660   4.825   1.212  10.272  0.1320  0.7402  0.5218
  120OSM    C3S12661   4.749   1.048  10.161  0.4780  0.2730  0.1623
  120OSM    H3S12662   4.656   0.990  10.150  1.1475 -0.9329  0.6448
  120OSM     O312663   4.848   0.958  10.213  0.1483  0.0600 -0.1452
  120OSM    HO312664   4.853   0.974  10.307  2.6121 -0.2850 -0.1660
  120OSM    C4S12665   4.793   1.088  10.015  0.4028  0.1313 -0.2571
  120OSM    H4S12666   4.713   1.090   9.940  0.5400 -1.0391 -0.4523
  120OSM    C5S12667   4.917   1.101   9.966 -0.3982  0.1340  1.0845
  120OSM    H5S12668   5.009   1.091  10.026  1.0423  0.1136 -1.0221
  120OSM    C6S12669   4.941   1.125   9.818 -0.2741 -0.2058 -0.0534
  120OSM    H6S12670   4.893   1.040   9.766  1.6628 -2.2528  1.3045
  120OSM    H6T12671   5.048   1.135   9.790  0.1132  0.6599  1.6038
  120OSM    C7S12672   4.864   1.247   9.760  0.3633 -0.1529  0.7973
  120OSM    H7S12673   4.871   1.337   9.825 -1.3632  2.4340 -2.2651
  120OSM    H7T12674   4.757   1.218   9.746  0.5258  0.0982 -1.1630
  120OSM    C8S12675   4.914   1.298   9.626  0.1075 -0.2871  0.6159
  120OSM    H8S12676   5.025   1.295   9.621  0.1896  1.9247 -0.0547
  120OSM    H8T12677   4.885   1.404   9.613  1.5866  0.2016  1.0392
  120OSM    C9S12678   4.863   1.213   9.506 -0.3858  0.4701  0.6917
  120OSM    H9S12679   4.752   1.211   9.506 -0.3898 -0.5800 -0.6250
  120OSM    H9T12680   4.891   1.106   9.516  1.5047  0.6878 -1.4421
  120OSM   C10S12681   4.892   1.258   9.363 -0.1693 -0.2388 -0.2530
  120OSM   H10S12682   5.002   1.264   9.346  0.0705  0.5311  1.3333
  120OSM   H10T12683   4.839   1.352   9.336 -0.7090 -0.5201 -0.1881
  120OSM   C11S12684   4.846   1.147   9.267 -0.2048 -1.0955  0.6592
  120OSM   H11S12685   4.737   1.129   9.259 -0.3893  0.5124 -1.3207
  120OSM   H11T12686   4.893   1.047   9.282  0.3284 -0.9584  0.0119
  120OSM   C12S12687   4.889   1.169   9.109  0.4407  0.3441 -0.4607
  120OSM   H12S12688   4.983   1.226   9.091  0.4060  0.5623  0.0309
  120OSM   H12T12689   4.816   1.247   9.080  0.9342  1.1078  0.2915
  120OSM   C13S12690   4.880   1.035   9.027  0.0913 -0.1408  0.1884
  120OSM   H13S12691   4.786   0.988   9.063  0.2343 -0.2461  0.4288
  120OSM   H13T12692   4.969   0.969   9.039  1.5758  1.4836 -1.3192
  120OSM   C14S12693   4.866   1.060   8.873  0.1431  0.1779 -0.7488
  120OSM   H14S12694   4.844   0.960   8.829  1.2172 -0.8729  0.9751
  120OSM   H14T12695   4.965   1.099   8.840  1.0540 -2.4019 -1.3342
  120OSM   C15S12696   4.769   1.160   8.819  0.3302  0.1833 -0.3367
  120OSM   H15S12697   4.783   1.258   8.870  1.4394  0.2933 -0.8164
  120OSM   H15T12698   4.670   1.120   8.848 -0.2885  0.4087 -2.0193
  120OSM   C16S12699   4.777   1.173   8.666 -0.3189 -0.0299 -0.0792
  120OSM   H16S12700   4.775   1.068   8.632 -0.4052 -0.8531  2.2619
  120OSM   H16T12701   4.878   1.200   8.627  0.0576 -1.3646 -0.0641
  120OSM   C17S12702   4.659   1.252   8.610  0.1107  0.5667 -0.2091
  120OSM   H17S12703   4.665   1.362   8.625 -2.5843  0.3852  3.5456
  120OSM   H17T12704   4.564   1.224   8.659 -0.5669 -0.5096 -2.0146
  120OSM   C18S12705   4.644   1.234   8.458  0.1624  0.3194 -0.4834
  120OSM   H18S12706   4.679   1.136   8.420 -1.9716 -0.2973 -1.0308
  120OSM   H18T12707   4.699   1.312   8.402  2.4015 -0.7732  0.0784
  120OSM   H18U12708   4.540   1.262   8.430 -0.2652 -0.2956  0.4506
  120OSM    C1F12709   4.621   1.388  10.219  0.0028 -0.8262 -0.0122
  120OSM     OF12710   4.688   1.430  10.315 -0.0250  0.2456 -0.2419
  120OSM    C2F12711   4.543   1.484  10.130 -0.1633  0.6513  0.7119
  120OSM    H2F12712   4.434   1.486  10.151 -0.8942 -1.2061 -2.2760
  120OSM    H2G12713   4.549   1.441  10.027 -0.9491  0.3518  0.7879
  120OSM    C3F12714   4.606   1.623  10.137 -0.0932  0.2466  0.3558
  120OSM    H3F12715   4.712   1.616  10.107 -0.1391  1.7285 -0.2264
  120OSM    H3G12716   4.594   1.666  10.239  0.4998  3.8027 -0.9391
  120OSM    C4F12717   4.538   1.718  10.036  0.1075  0.4950 -0.9142
  120OSM    H4F12718   4.579   1.821  10.036 -2.2238  1.5277  1.5460
  120OSM    H4G12719   4.430   1.719  10.061  0.0574  0.1995 -1.1127
  120OSM    C5F12720   4.544   1.682   9.881 -0.7061  0.3697  0.3485
  120OSM    H5F12721   4.510   1.774   9.829  2.1780  0.4757 -1.5646
  120OSM    H5G12722   4.471   1.603   9.853  0.8558 -0.2181 -2.4520
  120OSM    C6F12723   4.688   1.660   9.822 -0.0233 -0.0067 -0.5464
  120OSM    H6F12724   4.742   1.591   9.891 -0.3543 -1.2645 -1.5281
  120OSM    H6G12725   4.750   1.753   9.816  1.6545 -1.1440 -1.9140
  120OSM    C7F12726   4.708   1.598   9.686 -0.9254  0.4751  0.7068
  120OSM    H7F12727   4.695   1.488   9.692 -2.1194  0.5728  0.3199
  120OSM    H7G12728   4.813   1.614   9.654 -0.9401 -1.8644 -0.6854
  120OSM    C8F12729   4.619   1.647   9.569  0.7881 -0.3411 -0.8037
  120OSM    H8F12730   4.522   1.606   9.604  0.5648  0.6887 -0.1832
  120OSM    H8G12731   4.647   1.603   9.471  1.4126 -0.4953 -0.5657
  120OSM    C9F12732   4.595   1.793   9.545 -0.0061 -0.4273 -0.4105
  120OSM    H9F12733   4.524   1.840   9.614  1.4023 -0.1545  0.9107
  120OSM   C10F12734   4.640   1.875   9.443  0.2047  0.2194 -0.0708
  120OSM   H10F12735   4.625   1.983   9.426  0.2013 -0.0721 -2.2736
  120OSM   C11F12736   4.733   1.825   9.337 -0.8001 -0.5363  0.3205
  120OSM   H11F12737   4.802   1.749   9.378 -0.6646 -1.5437 -1.6827
  120OSM   H11G12738   4.794   1.912   9.304 -0.0192 -1.1040  0.2351
  120OSM   C12F12739   4.664   1.776   9.213  0.0403 -0.9416 -0.5546
  120OSM   H12F12740   4.584   1.851   9.195 -0.5374 -1.4929 -0.3401
  120OSM   H12G12741   4.613   1.677   9.222  0.4131 -0.9882  1.4308
  120OSM   C13F12742   4.760   1.779   9.099  0.4052  0.6928 -0.2319
  120OSM   H13F12743   4.839   1.704   9.121  1.9472  2.3276 -0.0417
  120OSM   H13G12744   4.819   1.873   9.091 -0.5376  1.4019  0.8332
  120OSM   C14F12745   4.685   1.746   8.969 -0.2080  0.1956 -0.0472
  120OSM   H14F12746   4.758   1.755   8.886 -0.9500 -3.1716 -1.2215
  120OSM   H14G12747   4.604   1.820   8.953  0.2453  0.6801 -0.1153
  120OSM   C15F12748   4.616   1.607   8.967 -0.3983 -0.4927 -0.3658
  120OSM   H15F12749   4.520   1.613   9.022  0.3773  1.8586  0.8981
  120OSM   H15G12750   4.682   1.534   9.018  1.5114  1.4797  0.1636
  120OSM   C16F12751   4.588   1.552   8.828  0.6099  0.0638  0.1651
  120OSM   H16F12752   4.553   1.447   8.822  2.7343 -0.8033  1.8968
  120OSM   H16G12753   4.676   1.559   8.760 -1.7891  0.7098 -3.1107
  120OSM   C17F12754   4.465   1.618   8.765  0.3501  0.4553  0.7106
  120OSM   H17F12755   4.489   1.725   8.745 -0.3660  0.4870 -0.0558
  120OSM   H17G12756   4.377   1.610   8.833 -0.1572  0.2599  0.0437
  120OSM   C18F12757   4.426   1.547   8.635 -0.1248  0.3569  0.1622
  120OSM   H18F12758   4.387   1.444   8.643 -1.0611  0.8124  1.7898
  120OSM   H18G12759   4.512   1.551   8.565  1.4992  2.8456  2.1215
  120OSM   H18H12760   4.338   1.602   8.595 -0.2842  1.9617  2.5312
  121OSM      N12761   4.555   3.917  10.911 -0.2061 -0.4262 -0.6228
  121OSM    C1512762   4.450   3.969  11.005  0.2325  0.2104  0.5245
  121OSM   H15A12763   4.478   4.054  11.065  0.2818  1.0283 -0.6088
  121OSM   H15B12764   4.430   3.886  11.071  2.1396 -0.1618  0.6832
  121OSM   H15C12765   4.360   3.991  10.949  0.9874  0.5652 -0.5921
  121OSM    C1412766   4.604   4.024  10.822  0.7514 -0.8525  0.5880
  121OSM   H14A12767   4.529   4.061  10.753  1.2849  1.9215  1.3440
  121OSM   H14B12768   4.674   3.982  10.751 -0.3066  0.4664 -1.3437
  121OSM   H14C12769   4.649   4.109  10.872  2.6560 -1.4570 -0.0191
  121OSM    C1312770   4.681   3.865  10.993  0.0741 -0.0519 -0.2982
  121OSM   H13A12771   4.645   3.795  11.068  0.3139 -0.2034 -0.3239
  121OSM   H13B12772   4.716   3.942  11.060 -1.0370  1.2707 -1.2011
  121OSM   H13C12773   4.755   3.820  10.928 -1.5363 -2.4897 -0.5998
  121OSM    C1212774   4.502   3.792  10.836  0.5177 -0.3774  0.3304
  121OSM   H12A12775   4.580   3.771  10.765  0.4744  1.9437 -0.4971
  121OSM   H12B12776   4.410   3.820  10.787  0.2427  0.3980  1.2475
  121OSM    C1112777   4.479   3.669  10.926  0.3802  0.2669  0.6850
  121OSM   H11A12778   4.571   3.634  10.978 -0.2217 -1.0682  0.9129
  121OSM   H11B12779   4.453   3.591  10.852 -2.3574  3.0732 -1.5582
  121OSM      P12780   4.272   3.558  11.043  0.4094  0.0225 -0.5785
  121OSM    O1312781   4.359   3.441  11.065 -0.1546 -0.2110  0.3929
  121OSM    O1412782   4.162   3.600  11.140 -0.0009 -0.4572  0.2348
  121OSM    O1112783   4.200   3.549  10.905 -0.4369 -0.1161 -0.5069
  121OSM    O1212784   4.367   3.688  11.018  0.1721  0.0253 -0.5522
  121OSM    C1S12785   4.135   3.656  10.841 -0.1706  0.0746  0.7606
  121OSM    H1S12786   4.197   3.748  10.840 -0.5257  0.3279  1.6599
  121OSM    H1T12787   4.039   3.692  10.882  0.2439  3.2620 -0.7065
  121OSM     NF12788   4.062   3.736  10.609 -0.3432  0.4586 -0.2745
  121OSM    HNF12789   3.964   3.726  10.590 -0.3322 -1.8264  0.6222
  121OSM    C2S12790   4.113   3.623  10.689  0.1319 -0.4007  0.4483
  121OSM    H2S12791   4.208   3.599  10.636  0.0584  0.3687 -0.0386
  121OSM    C3S12792   4.025   3.501  10.678 -0.0936 -0.8012  0.1861
  121OSM    H3S12793   3.925   3.541  10.706  0.8062  1.9667 -0.2207
  121OSM     O312794   4.055   3.389  10.761  0.7247  0.9771 -0.1468
  121OSM    HO312795   4.132   3.424  10.807  0.9853  1.7058 -1.1156
  121OSM    C4S12796   4.010   3.449  10.535 -0.7602 -0.4181 -0.2947
  121OSM    H4S12797   3.911   3.483  10.501 -0.7259 -0.6516 -0.6326
  121OSM    C5S12798   4.078   3.375  10.445  0.0938  0.3005  0.2849
  121OSM    H5S12799   4.173   3.328  10.472  0.9596  1.5311 -0.5284
  121OSM    C6S12800   4.032   3.323  10.311 -0.4307 -0.8053  0.3158
  121OSM    H6S12801   3.921   3.335  10.314 -0.3772 -0.4236  1.0266
  121OSM    H6T12802   4.056   3.215  10.304  1.8664 -0.4774  1.9907
  121OSM    C7S12803   4.110   3.385  10.195  0.4111 -0.4051  0.1737
  121OSM    H7S12804   4.099   3.321  10.105  0.5088  1.0147 -0.8759
  121OSM    H7T12805   4.218   3.390  10.222  0.2167 -1.3720  1.2075
  121OSM    C8S12806   4.078   3.531  10.174  0.2956  0.7297 -0.5766
  121OSM    H8S12807   4.167   3.570  10.120  0.2129  1.8507  0.0582
  121OSM    H8T12808   4.072   3.578  10.274  2.8173  1.0094 -0.4970
  121OSM    C9S12809   3.954   3.567  10.087 -0.5601  0.1615 -0.0087
  121OSM    H9S12810   3.957   3.678  10.081 -2.1278  0.1903 -0.5309
  121OSM    H9T12811   3.871   3.539  10.155 -0.8991  0.7096 -0.1854
  121OSM   C10S12812   3.935   3.509   9.948 -0.4939  0.5626 -0.0917
  121OSM   H10S12813   3.942   3.398   9.948  1.0701  0.6469  0.5429
  121OSM   H10T12814   4.016   3.527   9.875 -1.4762  1.8790 -0.9066
  121OSM   C11S12815   3.801   3.551   9.893 -0.2222  0.1665 -0.3544
  121OSM   H11S12816   3.784   3.660   9.908  1.1038  0.4735 -0.8868
  121OSM   H11T12817   3.727   3.505   9.961 -1.6971 -0.7665 -2.4875
  121OSM   C12S12818   3.773   3.517   9.750 -0.1949 -0.7024  0.2312
  121OSM   H12S12819   3.801   3.412   9.725 -1.1807 -0.9943  0.3050
  121OSM   H12T12820   3.836   3.585   9.688 -0.7948  0.3081  0.7094
  121OSM   C13S12821   3.625   3.545   9.713  0.1096 -0.7655  0.2393
  121OSM   H13S12822   3.598   3.646   9.750  0.3028 -0.9019  0.7614
  121OSM   H13T12823   3.557   3.479   9.770 -2.7796  1.8824  0.0971
  121OSM   C14S12824   3.592   3.546   9.565 -0.8711 -0.2872 -0.9080
  121OSM   H14S12825   3.484   3.573   9.558 -0.4518  1.3487 -1.5325
  121OSM   H14T12826   3.593   3.442   9.525  3.4305 -3.0592  4.9619
  121OSM   C15S12827   3.689   3.638   9.484  0.2100  0.1786 -0.5537
  121OSM   H15S12828   3.793   3.599   9.483  0.0703 -0.1857 -0.8258
  121OSM   H15T12829   3.690   3.742   9.524  0.2113  1.4157 -3.5584
  121OSM   C16S12830   3.640   3.632   9.343  0.3811  0.0544  0.0728
  121OSM   H16S12831   3.539   3.679   9.336  0.5160  0.1067 -2.3354
  121OSM   H16T12832   3.615   3.525   9.326 -1.1168  0.4556 -0.4617
  121OSM   C17S12833   3.736   3.660   9.229  1.0192 -0.4399 -0.1530
  121OSM   H17S12834   3.817   3.585   9.240 -0.9466 -2.4354  1.6812
  121OSM   H17T12835   3.783   3.761   9.228  1.7532 -0.7790 -0.4068
  121OSM   C18S12836   3.664   3.632   9.097 -0.3570 -0.0240  0.1983
  121OSM   H18S12837   3.609   3.537   9.100  3.1780 -2.2577  0.4394
  121OSM   H18T12838   3.734   3.636   9.010 -1.2435 -6.0733 -1.2403
  121OSM   H18U12839   3.592   3.714   9.073  0.7102  1.4794  1.8668
  121OSM    C1F12840   4.141   3.844  10.582 -0.3193  0.5322 -0.0363
  121OSM     OF12841   4.268   3.831  10.584 -0.1135 -0.4129 -0.4897
  121OSM    C2F12842   4.067   3.973  10.538 -0.1954  0.7885 -0.1162
  121OSM    H2F12843   4.087   4.054  10.612  0.5148 -0.1117  0.7078
  121OSM    H2G12844   3.958   3.951  10.539  0.0780 -0.6281  0.4032
  121OSM    C3F12845   4.104   4.033  10.398 -0.2578 -0.0789  0.5362
  121OSM    H3F12846   4.199   4.090  10.393 -0.4160  0.1216 -2.9037
  121OSM    H3G12847   4.027   4.113  10.386  2.0186  2.0049 -1.3088
  121OSM    C4F12848   4.101   3.944  10.279  0.7239 -0.0531  0.6504
  121OSM    H4F12849   4.010   3.883  10.264  0.9405 -0.0251 -0.9063
  121OSM    H4G12850   4.178   3.865  10.293  1.3356  0.3346 -0.4600
  121OSM    C5F12851   4.131   4.029  10.143 -0.4531  0.6755 -0.1580
  121OSM    H5F12852   4.218   4.096  10.159 -1.1271  1.5705 -0.1434
  121OSM    H5G12853   4.042   4.095  10.132 -0.6694  0.6321  1.2240
  121OSM    C6F12854   4.145   3.939  10.019  0.2113 -0.9787  0.1838
  121OSM    H6F12855   4.042   3.902   9.999  0.1045 -0.1306 -0.9012
  121OSM    H6G12856   4.205   3.848  10.041  0.1282 -0.8454  1.0044
  121OSM    C7F12857   4.194   4.011   9.894  0.1840 -0.0892 -0.5102
  121OSM    H7F12858   4.292   4.057   9.919  0.7217 -2.0316  1.3201
  121OSM    H7G12859   4.125   4.098   9.888 -1.7210 -1.5166 -0.2532
  121OSM    C8F12860   4.188   3.935   9.759 -0.0978  0.7180 -0.8350
  121OSM    H8F12861   4.083   3.916   9.726 -0.9109  3.6235 -0.2973
  121OSM    H8G12862   4.229   3.833   9.775  0.9409  1.2027 -0.2792
  121OSM    C9F12863   4.266   4.003   9.651  0.3398 -0.1881 -0.1830
  121OSM    H9F12864   4.277   4.111   9.666 -0.7835 -0.0705 -0.0956
  121OSM   C10F12865   4.304   3.945   9.532  0.4123  0.1548 -0.0525
  121OSM   H10F12866   4.372   3.996   9.463  3.8980 -1.0131  2.2681
  121OSM   C11F12867   4.266   3.807   9.487 -0.6213  0.0943 -0.2861
  121OSM   H11F12868   4.156   3.789   9.495 -0.8904  1.0100 -1.5798
  121OSM   H11G12869   4.322   3.733   9.549 -2.9862 -0.2757  1.5823
  121OSM   C12F12870   4.280   3.784   9.336 -0.0716  0.3590  0.2938
  121OSM   H12F12871   4.388   3.769   9.312 -0.0378 -1.1515  1.2461
  121OSM   H12G12872   4.225   3.864   9.283 -0.7229  0.1429  0.6355
  121OSM   C13F12873   4.204   3.651   9.294 -0.5011  0.0101 -0.3905
  121OSM   H13F12874   4.101   3.650   9.336 -0.9721  0.0725 -1.4933
  121OSM   H13G12875   4.268   3.573   9.340 -1.3860  0.0003  0.8610
  121OSM   C14F12876   4.204   3.616   9.147 -0.1335  0.2693 -0.5811
  121OSM   H14F12877   4.132   3.535   9.128  1.0815 -0.7579 -0.9096
  121OSM   H14G12878   4.300   3.569   9.116 -1.0640 -0.3613 -2.6136
  121OSM   C15F12879   4.176   3.740   9.055  0.2379  0.4650  0.4157
  121OSM   H15F12880   4.191   3.698   8.954  1.0863 -0.1960  0.8069
  121OSM   H15G12881   4.250   3.822   9.067  3.0096 -1.9886  1.2500
  121OSM   C16F12882   4.031   3.789   9.054  0.2803  0.0889 -0.2527
  121OSM   H16F12883   3.999   3.810   9.158 -0.4488 -0.8958 -0.2617
  121OSM   H16G12884   3.963   3.716   9.004  1.4934 -1.0591 -0.2942
  121OSM   C17F12885   4.029   3.922   8.976  0.5437  0.2689 -0.3860
  121OSM   H17F12886   4.107   3.988   9.019 -0.8035  1.4201  0.3664
  121OSM   H17G12887   3.937   3.981   8.994  1.0264  1.1755 -0.8197
  121OSM   C18F12888   4.045   3.905   8.829  0.8994  0.4574  0.2097
  121OSM   H18F12889   3.964   3.834   8.801  0.6055 -0.8615  3.7744
  121OSM   H18G12890   4.147   3.870   8.804  0.8628 -0.8412  1.6856
  121OSM   H18H12891   4.035   3.997   8.768 -0.5513  0.2880  0.1502
  122OSM      N12892   4.630   1.961  11.179  0.0523 -0.1520 -1.2469
  122OSM    C1512893   4.761   1.909  11.234 -0.0166 -0.1102  0.2102
  122OSM   H15A12894   4.834   1.908  11.154 -0.0841  1.2238  0.1117
  122OSM   H15B12895   4.754   1.811  11.277  1.2899  0.1445  1.0588
  122OSM   H15C12896   4.801   1.977  11.308 -0.3087 -1.7445  1.9387
  122OSM    C1412897   4.573   1.854  11.101 -0.0020 -0.4272  0.3896
  122OSM   H14A12898   4.642   1.814  11.027  2.2767  1.4713  1.3463
  122OSM   H14B12899   4.482   1.880  11.049 -0.6212 -2.1289  0.5720
  122OSM   H14C12900   4.538   1.770  11.159 -0.4825 -2.0064 -2.0213
  122OSM    C1312901   4.536   1.984  11.298  0.1459 -0.4852 -0.0656
  122OSM   H13A12902   4.442   2.020  11.262  0.9047  2.4198  0.6228
  122OSM   H13B12903   4.565   2.072  11.353 -1.8236  0.0874  0.1091
  122OSM   H13C12904   4.506   1.894  11.350 -1.1262 -0.6031 -0.9689
  122OSM    C1212905   4.657   2.095  11.120 -0.1031 -0.3771  0.3688
  122OSM   H12A12906   4.689   2.165  11.196 -0.4537  1.1967 -0.8947
  122OSM   H12B12907   4.565   2.135  11.081 -0.8192 -0.2761  2.0434
  122OSM    C1112908   4.756   2.093  10.998 -0.1704  0.6977  0.5680
  122OSM   H11A12909   4.857   2.062  11.031  0.4657  3.3046  1.2778
  122OSM   H11B12910   4.778   2.199  10.975  0.8850  0.4960  0.5963
  122OSM      P12911   4.576   2.054  10.810  0.0742  0.0272  0.1035
  122OSM    O1312912   4.548   1.960  10.701  0.3999 -0.3235 -0.0237
  122OSM    O1412913   4.460   2.071  10.899  0.2749  0.1906 -0.0694
  122OSM    O1112914   4.617   2.193  10.748  0.2251  0.4786 -0.0546
  122OSM    O1212915   4.707   2.007  10.890  0.3765 -0.0642 -0.5743
  122OSM    C1S12916   4.724   2.198  10.653  0.2490 -0.5479  0.9300
  122OSM    H1S12917   4.773   2.101  10.631 -1.6433 -1.5483  0.9752
  122OSM    H1T12918   4.804   2.261  10.697 -0.1943 -0.3938  1.5307
  122OSM     NF12919   4.766   2.219  10.404 -0.2260 -0.0044  0.0911
  122OSM    HNF12920   4.824   2.289  10.363 -0.2837 -0.7107 -1.2458
  122OSM    C2S12921   4.673   2.252  10.510 -0.8498  0.6198 -0.3196
  122OSM    H2S12922   4.578   2.198  10.489 -0.4422 -0.5377  0.6825
  122OSM    C3S12923   4.639   2.407  10.525 -0.5610  0.3954  0.5724
  122OSM    H3S12924   4.725   2.460  10.572  1.1733 -0.5781 -1.3446
  122OSM     O312925   4.536   2.433  10.621 -0.1170 -0.0326 -0.4998
  122OSM    HO312926   4.545   2.351  10.672  2.3499 -0.1376 -0.9896
  122OSM    C4S12927   4.621   2.471  10.393  0.2373 -0.2685  1.0074
  122OSM    H4S12928   4.709   2.465  10.327  0.6977 -1.2815  1.6899
  122OSM    C5S12929   4.507   2.515  10.331 -0.4778  0.1960 -0.6783
  122OSM    H5S12930   4.413   2.502  10.388 -1.0282  1.7199 -1.1732
  122OSM    C6S12931   4.482   2.559  10.183  0.3406  0.4284 -0.6398
  122OSM    H6S12932   4.419   2.650  10.193 -1.3531 -0.6913 -0.6155
  122OSM    H6T12933   4.423   2.480  10.132 -1.3932  1.5778 -0.5297
  122OSM    C7S12934   4.599   2.587  10.089 -0.2860  0.0282  0.2197
  122OSM    H7S12935   4.656   2.492  10.083  0.1238  0.2698  0.2018
  122OSM    H7T12936   4.675   2.656  10.131  1.5080 -0.4431 -2.0371
  122OSM    C8S12937   4.554   2.625   9.950  0.0071 -0.2604 -0.5869
  122OSM    H8S12938   4.501   2.721   9.964 -0.0189 -0.4582  0.8864
  122OSM    H8T12939   4.487   2.543   9.917 -1.1918  1.0598 -1.5500
  122OSM    C9S12940   4.661   2.632   9.839 -0.0392 -0.1280  0.7805
  122OSM    H9S12941   4.717   2.537   9.830 -0.2147 -0.3083  1.4818
  122OSM    H9T12942   4.728   2.716   9.866  0.2887  0.3220 -1.2760
  122OSM   C10S12943   4.588   2.650   9.701  0.2137  0.7276 -0.1483
  122OSM   H10S12944   4.522   2.740   9.710 -0.7253  0.0650 -0.2953
  122OSM   H10T12945   4.512   2.572   9.683  0.3959  0.4203  0.3807
  122OSM   C11S12946   4.687   2.636   9.585 -0.2351  0.1629  0.0765
  122OSM   H11S12947   4.772   2.566   9.603 -1.2230 -0.4081  3.1412
  122OSM   H11T12948   4.738   2.734   9.573 -0.4100  0.3918  1.0897
  122OSM   C12S12949   4.618   2.608   9.447 -0.4246  0.3703 -0.6175
  122OSM   H12S12950   4.533   2.678   9.435  0.4502  1.8490  1.2730
  122OSM   H12T12951   4.574   2.506   9.445  1.4681 -0.4743 -2.1276
  122OSM   C13S12952   4.714   2.629   9.328 -0.3125  0.5957  0.0248
  122OSM   H13S12953   4.812   2.581   9.351 -0.9796 -1.2739 -0.7985
  122OSM   H13T12954   4.728   2.738   9.314 -0.0676  0.5630  0.0078
  122OSM   C14S12955   4.666   2.569   9.190  0.3149 -0.8071 -0.1445
  122OSM   H14S12956   4.744   2.579   9.112  0.5531  0.5548  0.2278
  122OSM   H14T12957   4.572   2.623   9.164  1.1032  0.8380  0.2855
  122OSM   C15S12958   4.620   2.425   9.198 -0.5028 -0.0998 -0.1437
  122OSM   H15S12959   4.550   2.400   9.281  0.5762  1.1567  1.1926
  122OSM   H15T12960   4.712   2.363   9.205 -0.1667  0.2884 -1.0222
  122OSM   C16S12961   4.547   2.388   9.067 -0.0912 -0.6661  0.1263
  122OSM   H16S12962   4.610   2.415   8.979 -1.1869  0.7318 -0.2747
  122OSM   H16T12963   4.457   2.452   9.055  1.1699  0.8673 -1.9224
  122OSM   C17S12964   4.502   2.241   9.068 -0.5471 -0.4329  0.3358
  122OSM   H17S12965   4.408   2.227   9.010  0.5632  2.0254 -2.3190
  122OSM   H17T12966   4.484   2.211   9.173  0.6502 -2.6599 -0.0230
  122OSM   C18S12967   4.607   2.142   9.006 -0.1462  0.1572  0.7639
  122OSM   H18S12968   4.626   2.163   8.899 -0.2826 -0.8454  0.5413
  122OSM   H18T12969   4.574   2.037   9.019 -1.0868  0.0290 -1.9675
  122OSM   H18U12970   4.708   2.152   9.052  0.4730  0.9877 -0.6898
  122OSM    C1F12971   4.799   2.091  10.377 -0.0714 -0.3146  0.7926
  122OSM     OF12972   4.728   1.990  10.397 -0.3112 -0.0155  0.4490
  122OSM    C2F12973   4.938   2.065  10.328 -0.0618  0.2782 -0.0654
  122OSM    H2F12974   4.996   2.038  10.418  0.7891  1.4318 -0.2465
  122OSM    H2G12975   4.978   2.156  10.277 -2.0241  0.8538 -0.6478
  122OSM    C3F12976   4.951   1.937  10.240  0.4182  0.3635 -0.2235
  122OSM    H3F12977   4.931   1.846  10.300 -2.5609  0.8621 -0.3396
  122OSM    H3G12978   5.059   1.928  10.215  0.0379 -0.7971 -1.5801
  122OSM    C4F12979   4.881   1.929  10.105  0.2481 -0.7782 -0.0011
  122OSM    H4F12980   4.771   1.931  10.120  0.2862 -2.0222  0.5878
  122OSM    H4G12981   4.895   1.831  10.055  0.5127 -0.9333  0.3645
  122OSM    C5F12982   4.915   2.041  10.009 -0.7678 -0.0678  0.6676
  122OSM    H5F12983   5.026   2.039  10.008 -0.7468  0.8458 -0.2737
  122OSM    H5G12984   4.889   2.146  10.035  1.1837  0.5464  0.2826
  122OSM    C6F12985   4.864   2.012   9.866  0.3825 -0.3771 -0.3200
  122OSM    H6F12986   4.755   1.992   9.857  0.4084 -1.0414  0.6616
  122OSM    H6G12987   4.907   1.915   9.833  2.5539  0.5249 -0.2660
  122OSM    C7F12988   4.896   2.129   9.770 -0.4160  0.7707 -0.7898
  122OSM    H7F12989   5.007   2.133   9.771 -0.4103  0.5607  0.1456
  122OSM    H7G12990   4.875   2.231   9.809  0.2422  0.7518 -0.3739
  122OSM    C8F12991   4.838   2.115   9.633  0.4114  0.4708  0.2381
  122OSM    H8F12992   4.734   2.079   9.617  0.7078 -0.0579 -0.5794
  122OSM    H8G12993   4.892   2.035   9.578 -0.9834 -0.8649  0.7633
  122OSM    C9F12994   4.851   2.248   9.560  0.0043  0.3193  0.2246
  122OSM    H9F12995   4.785   2.331   9.590 -0.2533  0.1564  0.1096
  122OSM   C10F12996   4.931   2.264   9.455 -0.0810 -0.5751 -0.5156
  122OSM   H10F12997   4.937   2.367   9.414  0.3560 -0.4763 -0.1980
  122OSM   C11F12998   5.019   2.168   9.382 -0.4656 -0.7388  0.3790
  122OSM   H11F12999   4.952   2.111   9.313 -1.1538  0.6146 -0.1137
  122OSM   H11G13000   5.060   2.085   9.444 -2.8865 -1.2651  1.4205
  122OSM   C12F13001   5.124   2.247   9.307 -0.1491 -0.5600  0.5915
  122OSM   H12F13002   5.191   2.295   9.381 -2.7319  0.5901  2.3365
  122OSM   H12G13003   5.080   2.323   9.238 -0.9411 -1.2752  0.2893
  122OSM   C13F13004   5.214   2.158   9.218 -0.5112  0.2508 -0.0277
  122OSM   H13F13005   5.160   2.089   9.150 -0.6329 -1.2363  1.5091
  122OSM   H13G13006   5.287   2.102   9.281  0.1370  2.1698  0.9959
  122OSM   C14F13007   5.291   2.237   9.120 -0.9065  0.1642 -0.4471
  122OSM   H14F13008   5.341   2.320   9.174 -4.1053  0.9813  1.5263
  122OSM   H14G13009   5.221   2.301   9.063  1.4736  2.1080 -1.3694
  122OSM   C15F13010   5.396   2.159   9.048 -0.9203 -0.0220  0.4708
  122OSM   H15F13011   5.355   2.100   8.964  2.1056 -0.1484 -1.0332
  122OSM   H15G13012   5.439   2.082   9.115 -0.1167  1.1545  1.3522
  122OSM   C16F13013   5.506   2.254   9.000  0.5187  0.3728  0.7428
  122OSM   H16F13014   5.540   2.315   9.087 -1.4891  2.2277  0.3108
  122OSM   H16G13015   5.456   2.330   8.937  0.3233  0.5231  1.0763
  122OSM   C17F13016   5.615   2.178   8.926  0.1796 -0.1312  0.0899
  122OSM   H17F13017   5.575   2.120   8.841  2.7001 -1.5886 -0.2035
  122OSM   H17G13018   5.665   2.107   8.996  0.1892  0.4901  0.7280
  122OSM   C18F13019   5.725   2.271   8.876  0.1607 -0.9423 -0.5693
  122OSM   H18F13020   5.694   2.349   8.803  0.0704 -0.5954 -0.1727
  122OSM   H18G13021   5.810   2.211   8.838  1.0472 -0.4111  0.4909
  122OSM   H18H13022   5.770   2.325   8.963  2.0153  3.1722 -3.7169
  123OSM      N13023   6.284   0.922   5.900 -0.2097  0.0509 -0.3571
  123OSM    C1513024   6.280   0.916   5.747 -0.4716 -0.2038  0.4208
  123OSM   H15A13025   6.290   1.008   5.692 -1.0985 -0.8064 -0.7246
  123OSM   H15B13026   6.190   0.869   5.709 -1.3627  0.7461  1.2761
  123OSM   H15C13027   6.368   0.862   5.717  0.8589  2.5134 -0.8409
  123OSM    C1413028   6.157   0.984   5.958 -0.5445 -0.7638  0.3738
  123OSM   H14A13029   6.146   1.078   5.907 -0.3700 -0.7423  0.3778
  123OSM   H14B13030   6.165   0.995   6.065 -0.9296 -2.1357  0.5687
  123OSM   H14C13031   6.077   0.919   5.923  0.3659 -1.9316  0.4020
  123OSM    C1313032   6.296   0.776   5.947 -0.1003  0.3098  0.0045
  123OSM   H13A13033   6.206   0.721   5.925  1.0870 -1.9526  0.4584
  123OSM   H13B13034   6.308   0.769   6.054 -0.1190  1.1552  0.0725
  123OSM   H13C13035   6.375   0.722   5.897  1.1318  0.0559  2.1030
  123OSM    C1213036   6.411   0.994   5.947 -0.0492 -0.9371  0.3068
  123OSM   H12A13037   6.416   1.094   5.906 -0.5376 -0.6777  0.8697
  123OSM   H12B13038   6.497   0.949   5.900  1.1459  0.9987  0.5427
  123OSM    C1113039   6.437   0.987   6.098 -0.0549  0.0843  0.8939
  123OSM   H11A13040   6.546   1.001   6.116  0.2130  1.7107 -1.5497
  123OSM   H11B13041   6.412   0.889   6.144 -1.5499  0.1124  0.1733
  123OSM      P13042   6.382   1.224   6.185  0.3412  0.2130 -0.0342
  123OSM    O1313043   6.441   1.289   6.068  0.3406 -0.1569 -0.2838
  123OSM    O1413044   6.264   1.293   6.239  0.5751 -0.3404  0.3462
  123OSM    O1113045   6.485   1.213   6.304  0.0011  0.2785 -0.2463
  123OSM    O1213046   6.346   1.080   6.161 -0.2141 -0.1744 -0.2825
  123OSM    C1S13047   6.464   1.129   6.415 -0.0961  0.6017  0.5326
  123OSM    H1S13048   6.483   1.024   6.383 -3.1900  0.2036 -0.3536
  123OSM    H1T13049   6.355   1.122   6.435 -0.4625  3.6219  0.0686
  123OSM     NF13050   6.478   1.091   6.660  0.0698 -0.4682  0.3105
  123OSM    HNF13051   6.390   1.103   6.707 -0.2555 -1.1259 -0.1165
  123OSM    C2S13052   6.520   1.182   6.552 -0.9720  0.6749  0.1620
  123OSM    H2S13053   6.629   1.166   6.544 -1.4012 -3.6628  0.6163
  123OSM    C3S13054   6.478   1.324   6.582 -0.8585 -0.5430  0.0384
  123OSM    H3S13055   6.367   1.329   6.592 -0.9684 -0.1177 -1.2520
  123OSM     O313056   6.514   1.413   6.470  0.4584 -0.4039  0.0904
  123OSM    HO313057   6.504   1.363   6.389  0.5438  0.9688 -0.7985
  123OSM    C4S13058   6.552   1.378   6.698 -1.1705 -0.0239 -1.2491
  123OSM    H4S13059   6.659   1.394   6.678 -1.0552  1.8809  0.5431
  123OSM    C5S13060   6.494   1.421   6.816 -0.4269 -0.3193 -0.0356
  123OSM    H5S13061   6.386   1.403   6.826 -0.2672 -2.2069 -1.1820
  123OSM    C6S13062   6.575   1.476   6.936  0.2923  0.4622 -0.3088
  123OSM    H6S13063   6.554   1.584   6.945 -0.8259  0.7056 -4.1126
  123OSM    H6T13064   6.684   1.465   6.918  0.8143  0.0346  2.6914
  123OSM    C7S13065   6.539   1.405   7.069 -0.1084 -0.1456 -0.3738
  123OSM    H7S13066   6.559   1.297   7.082  0.2285 -0.0298  0.1239
  123OSM    H7T13067   6.429   1.419   7.071 -0.3303 -1.1134 -2.8461
  123OSM    C8S13068   6.600   1.470   7.194 -0.7283  0.2475  0.6037
  123OSM    H8S13069   6.592   1.581   7.189 -1.1289  0.3776  3.0703
  123OSM    H8T13070   6.708   1.455   7.216 -0.9487  2.0241  3.4362
  123OSM    C9S13071   6.529   1.423   7.324  0.5034 -0.3510 -0.2551
  123OSM    H9S13072   6.512   1.314   7.313 -2.7766  0.1710 -1.8081
  123OSM    H9T13073   6.422   1.449   7.309 -0.1302 -2.5422  0.1476
  123OSM   C10S13074   6.582   1.479   7.456  0.4772 -0.0474 -0.1651
  123OSM   H10S13075   6.553   1.586   7.462 -0.0988 -0.1945 -0.3099
  123OSM   H10T13076   6.691   1.471   7.477  0.1828 -1.3377  1.0258
  123OSM   C11S13077   6.511   1.407   7.572 -0.3578 -0.3251 -0.1918
  123OSM   H11S13078   6.502   1.298   7.550 -1.0515  0.0963 -2.2364
  123OSM   H11T13079   6.405   1.440   7.569  0.2195  1.9269  1.8067
  123OSM   C12S13080   6.564   1.433   7.710 -0.7994 -0.2955  0.9054
  123OSM   H12S13081   6.565   1.542   7.728 -0.1917 -0.0774 -0.3296
  123OSM   H12T13082   6.662   1.381   7.712 -0.6338 -0.2256 -1.6326
  123OSM   C13S13083   6.468   1.370   7.814  0.9034  0.1471  0.4346
  123OSM   H13S13084   6.466   1.263   7.784 -0.8602  0.0603  0.8028
  123OSM   H13T13085   6.372   1.420   7.794  1.0445  0.7005  1.1046
  123OSM   C14S13086   6.517   1.383   7.958 -0.5553 -0.7183 -0.5958
  123OSM   H14S13087   6.507   1.492   7.977 -0.8227 -0.9961  0.9998
  123OSM   H14T13088   6.624   1.355   7.971  0.1594  2.2798  0.6726
  123OSM   C15S13089   6.432   1.304   8.052  0.5046 -0.1901 -0.0067
  123OSM   H15S13090   6.444   1.194   8.036  1.8580 -0.2007  0.8373
  123OSM   H15T13091   6.326   1.324   8.029  0.2699 -0.6878  0.6115
  123OSM   C16S13092   6.451   1.352   8.195  1.3620  0.3127 -0.3813
  123OSM   H16S13093   6.429   1.460   8.204 -0.5920  0.0560 -1.4813
  123OSM   H16T13094   6.554   1.319   8.219  1.4309 -0.7513 -2.0290
  123OSM   C17S13095   6.352   1.275   8.288  0.6994  0.1613  0.4593
  123OSM   H17S13096   6.254   1.327   8.277 -1.9429 -4.1343  1.1643
  123OSM   H17T13097   6.389   1.299   8.390 -5.4152  2.2408  2.6651
  123OSM   C18S13098   6.341   1.123   8.280  0.2078  0.1936 -0.0951
  123OSM   H18S13099   6.437   1.072   8.256 -0.8263 -1.0607 -1.7912
  123OSM   H18T13100   6.275   1.088   8.198  0.5781 -0.1650 -0.2436
  123OSM   H18U13101   6.293   1.093   8.376 -2.5909 -0.9358 -1.7299
  123OSM    C1F13102   6.542   0.976   6.686 -0.3352  0.1911 -0.2909
  123OSM     OF13103   6.624   0.933   6.607 -0.4419  0.2192  0.0624
  123OSM    C2F13104   6.509   0.897   6.810 -0.6742  0.7468 -0.2110
  123OSM    H2F13105   6.406   0.862   6.787  0.0678 -0.2025 -2.3014
  123OSM    H2G13106   6.501   0.966   6.897 -0.8629  1.2280 -0.6051
  123OSM    C3F13107   6.605   0.781   6.827 -0.0766 -0.3231  0.2628
  123OSM    H3F13108   6.698   0.828   6.865 -1.1511 -0.0839  2.7283
  123OSM    H3G13109   6.620   0.722   6.734 -1.6333 -0.4614  0.0735
  123OSM    C4F13110   6.575   0.685   6.945  0.2542  1.3283  0.1582
  123OSM    H4F13111   6.646   0.599   6.941 -1.4477 -0.1008 -1.3156
  123OSM    H4G13112   6.477   0.636   6.923  2.3517 -1.9807 -3.0916
  123OSM    C5F13113   6.576   0.760   7.074  0.1474  0.2284 -0.2070
  123OSM    H5F13114   6.491   0.832   7.069 -2.3151 -2.5095 -0.2204
  123OSM    H5G13115   6.675   0.811   7.082  0.1613  0.1739 -0.0277
  123OSM    C6F13116   6.548   0.667   7.200  0.2153  0.4567 -0.2162
  123OSM    H6F13117   6.459   0.610   7.167  0.9041  0.7002 -2.6551
  123OSM    H6G13118   6.537   0.735   7.287  1.3472  0.6335 -0.1948
  123OSM    C7F13119   6.670   0.576   7.232  0.0353 -0.5789 -0.8285
  123OSM    H7F13120   6.746   0.652   7.259 -0.4234  0.2265 -1.7653
  123OSM    H7G13121   6.713   0.523   7.144 -0.5055 -0.6679 -1.0437
  123OSM    C8F13122   6.640   0.483   7.353  0.1250  0.0233  0.0053
  123OSM    H8F13123   6.720   0.409   7.371 -0.4844 -0.3530  1.2641
  123OSM    H8G13124   6.548   0.427   7.325 -0.3523  1.1948 -0.8850
  123OSM    C9F13125   6.608   0.547   7.484  0.4474 -0.1734 -0.1860
  123OSM    H9F13126   6.512   0.598   7.500  0.7620  0.3717  0.0106
  123OSM   C10F13127   6.692   0.555   7.589 -0.3935 -0.1809 -0.6851
  123OSM   H10F13128   6.659   0.606   7.680  1.9585  0.6192 -0.2235
  123OSM   C11F13129   6.826   0.499   7.586 -0.1706  0.4619 -0.2991
  123OSM   H11F13130   6.881   0.568   7.519  0.2012  1.2252  0.7674
  123OSM   H11G13131   6.839   0.393   7.553 -1.0372  1.0014 -2.5667
  123OSM   C12F13132   6.883   0.494   7.725 -0.0443 -0.4912 -0.5368
  123OSM   H12F13133   6.894   0.595   7.771 -1.4375 -0.2941 -0.6151
  123OSM   H12G13134   6.990   0.462   7.724  0.1378  0.0656  0.1564
  123OSM   C13F13135   6.818   0.396   7.831 -0.3628 -0.5002 -0.7788
  123OSM   H13F13136   6.844   0.291   7.806  1.5432 -0.0303 -0.9248
  123OSM   H13G13137   6.708   0.401   7.811 -0.9380 -0.3390  2.0443
  123OSM   C14F13138   6.837   0.442   7.982 -0.7872 -0.6604  0.8203
  123OSM   H14F13139   6.816   0.351   8.043  3.2491 -0.0149  3.5899
  123OSM   H14G13140   6.764   0.522   8.003 -0.9596 -0.0495 -1.8183
  123OSM   C15F13141   6.976   0.486   8.023  0.1357  0.1739 -0.3545
  123OSM   H15F13142   7.017   0.555   7.946 -0.8018 -0.2655 -1.2686
  123OSM   H15G13143   7.042   0.397   8.031  1.8163  1.2687 -1.5098
  123OSM   C16F13144   6.971   0.561   8.160  0.3223 -0.3110  0.2321
  123OSM   H16F13145   6.911   0.649   8.128 -1.9349 -1.7157  0.3477
  123OSM   H16G13146   7.075   0.590   8.184 -0.3774  3.4077 -0.5942
  123OSM   C17F13147   6.909   0.482   8.272  0.3801  0.3362  0.1769
  123OSM   H17F13148   6.965   0.387   8.281  2.0450  1.3003  0.4986
  123OSM   H17G13149   6.800   0.469   8.255  0.3594 -1.2061  1.2928
  123OSM   C18F13150   6.922   0.562   8.404  0.5573  0.7434 -0.2161
  123OSM   H18F13151   7.026   0.571   8.441  0.3578  0.5283  0.4138
  123OSM   H18G13152   6.865   0.497   8.474  1.8051 -1.4744 -1.1613
  123OSM   H18H13153   6.870   0.661   8.405 -0.2598  0.4894 -3.6669
  124OSM      N13154   3.812   5.490   6.462 -0.0394  0.3193 -0.3053
  124OSM    C1513155   3.788   5.365   6.537 -0.5961 -0.2119 -0.6036
  124OSM   H15A13156   3.811   5.373   6.642  1.0648  0.1715 -0.9804
  124OSM   H15B13157   3.850   5.292   6.488 -0.6376  1.1041 -2.7315
  124OSM   H15C13158   3.683   5.338   6.541 -0.6510  0.1318  1.2826
  124OSM    C1413159   3.733   5.600   6.531  0.4796 -0.2315  0.4433
  124OSM   H14A13160   3.770   5.697   6.504 -2.3499  0.6321 -0.7214
  124OSM   H14B13161   3.740   5.599   6.639  1.8995 -0.1112  0.3701
  124OSM   H14C13162   3.627   5.587   6.517  0.2693  1.2869  0.5233
  124OSM    C1313163   3.958   5.512   6.457 -0.0905 -0.3088  1.3574
  124OSM   H13A13164   3.974   5.606   6.408 -1.5537 -1.1895 -1.0064
  124OSM   H13B13165   4.004   5.426   6.410 -0.6804 -1.3070  2.5349
  124OSM   H13C13166   4.004   5.529   6.553 -1.0027  0.3919  1.6842
  124OSM    C1213167   3.766   5.480   6.317 -0.4808  0.6580 -0.0489
  124OSM   H12A13168   3.828   5.407   6.267 -0.5571  0.9529 -0.5743
  124OSM   H12B13169   3.775   5.577   6.272  1.8261  0.3249 -0.4292
  124OSM    C1113170   3.616   5.440   6.301  0.0431  0.6721  1.3085
  124OSM   H11A13171   3.601   5.337   6.338 -1.0715  0.4647  0.3146
  124OSM   H11B13172   3.609   5.436   6.190 -0.6444  2.1417  1.2775
  124OSM      P13173   3.370   5.516   6.367 -0.0961  0.2095 -0.1161
  124OSM    O1313174   3.311   5.625   6.451  0.4636  0.0288  0.2517
  124OSM    O1413175   3.315   5.504   6.234  0.0534  0.1280  1.2360
  124OSM    O1113176   3.352   5.385   6.454 -0.0732  0.3573  0.2650
  124OSM    O1213177   3.532   5.533   6.359 -0.1186 -0.0220 -0.1130
  124OSM    C1S13178   3.372   5.398   6.598  0.2937  0.3912 -0.0743
  124OSM    H1S13179   3.298   5.465   6.647 -2.4129 -0.3478 -2.8712
  124OSM    H1T13180   3.472   5.435   6.630 -0.1417  0.9897  0.6421
  124OSM     NF13181   3.287   5.258   6.789  0.1536 -0.0728  1.0327
  124OSM    HNF13182   3.349   5.263   6.867  0.0677 -0.8766  1.1579
  124OSM    C2S13183   3.336   5.256   6.651 -0.3307  0.2614 -0.1018
  124OSM    H2S13184   3.261   5.220   6.578  0.4643 -0.0178 -0.7950
  124OSM    C3S13185   3.456   5.149   6.635  0.1018 -0.6476  0.1597
  124OSM    H3S13186   3.531   5.180   6.712 -2.8711 -1.5252  3.7133
  124OSM     O313187   3.512   5.165   6.508 -0.1255  0.1221  0.4457
  124OSM    HO313188   3.448   5.223   6.465 -0.0521  0.5327  0.8910
  124OSM    C4S13189   3.422   5.011   6.674  0.5243 -0.2699  0.1467
  124OSM    H4S13190   3.454   4.982   6.775  0.6967  2.3176  0.8862
  124OSM    C5S13191   3.373   4.906   6.598 -0.0357 -0.0359 -0.3605
  124OSM    H5S13192   3.347   4.923   6.492 -0.6815 -0.2252 -0.2363
  124OSM    C6S13193   3.353   4.764   6.647 -0.0290 -0.7366 -0.1966
  124OSM    H6S13194   3.366   4.698   6.558  0.8796  1.2060 -1.5923
  124OSM    H6T13195   3.246   4.757   6.674  0.6934 -1.0192  2.9259
  124OSM    C7S13196   3.432   4.709   6.762  0.4730 -0.2535  0.7043
  124OSM    H7S13197   3.401   4.770   6.850 -2.4038  0.0895 -0.4550
  124OSM    H7T13198   3.541   4.725   6.745 -0.1773  4.2287 -0.5327
  124OSM    C8S13199   3.414   4.557   6.801 -1.0818  0.4235 -0.2985
  124OSM    H8S13200   3.509   4.528   6.850  0.1658  2.3390 -1.4419
  124OSM    H8T13201   3.405   4.497   6.707  4.1776 -1.8543  0.3395
  124OSM    C9S13202   3.300   4.526   6.892  0.1330  0.7411  0.6078
  124OSM    H9S13203   3.216   4.556   6.827  1.2739 -1.8406 -2.2777
  124OSM    H9T13204   3.291   4.586   6.986 -0.8678  1.4255  0.0916
  124OSM   C10S13205   3.300   4.376   6.928  0.0136 -0.3540 -0.2389
  124OSM   H10S13206   3.398   4.330   6.905  0.9780 -1.2872  4.6511
  124OSM   H10T13207   3.236   4.312   6.863  0.1668  0.5395 -1.3044
  124OSM   C11S13208   3.285   4.366   7.076 -0.4973 -0.4132  0.8983
  124OSM   H11S13209   3.359   4.427   7.132 -0.4045 -0.0320  0.3647
  124OSM   H11T13210   3.305   4.263   7.113  0.6939 -1.1779 -1.6998
  124OSM   C12S13211   3.140   4.390   7.114  0.3721 -0.4370 -0.5656
  124OSM   H12S13212   3.067   4.328   7.056 -0.4116 -0.3528  0.3117
  124OSM   H12T13213   3.113   4.497   7.098 -0.9923 -0.6927 -0.0805
  124OSM   C13S13214   3.105   4.359   7.261 -0.0120 -0.5253 -0.3036
  124OSM   H13S13215   3.118   4.251   7.283 -0.6823 -0.2016  1.8526
  124OSM   H13T13216   3.002   4.391   7.288 -0.2323 -2.0079  0.7284
  124OSM   C14S13217   3.186   4.441   7.370  0.8531 -0.7869 -0.4938
  124OSM   H14S13218   3.198   4.546   7.337 -0.3288 -0.5824 -0.2927
  124OSM   H14T13219   3.290   4.401   7.368  1.2612  0.2523 -2.2929
  124OSM   C15S13220   3.117   4.433   7.510  0.3435 -0.2617 -1.1169
  124OSM   H15S13221   3.110   4.324   7.532  1.2571  0.1371  1.4950
  124OSM   H15T13222   3.017   4.481   7.499  0.4663  1.1569  2.6523
  124OSM   C16S13223   3.195   4.499   7.631  0.4091  0.2630 -0.0842
  124OSM   H16S13224   3.221   4.605   7.613  0.0143  0.2879 -0.5398
  124OSM   H16T13225   3.294   4.450   7.642  1.8884  2.2553 -3.2527
  124OSM   C17S13226   3.112   4.482   7.761 -0.3667  0.5191  0.3894
  124OSM   H17S13227   3.122   4.372   7.776  2.0649  0.5554 -0.4360
  124OSM   H17T13228   3.005   4.508   7.753 -0.9348 -1.5208  0.9016
  124OSM   C18S13229   3.168   4.557   7.886 -0.3527  0.3308  0.2635
  124OSM   H18S13230   3.111   4.527   7.976 -0.2757 -0.3126  0.0996
  124OSM   H18T13231   3.136   4.663   7.876  0.6831  0.6279 -0.0667
  124OSM   H18U13232   3.276   4.548   7.910 -0.5577 -0.2172  1.0287
  124OSM    C1F13233   3.161   5.305   6.805 -0.3918 -0.4381 -0.1968
  124OSM     OF13234   3.095   5.346   6.710 -0.4806 -0.4746 -0.0560
  124OSM    C2F13235   3.096   5.303   6.940  0.8169 -0.3950 -0.1684
  124OSM    H2F13236   3.141   5.397   6.979  2.9459 -1.1929 -0.5418
  124OSM    H2G13237   3.138   5.217   6.996 -1.5700 -1.3144  0.3022
  124OSM    C3F13238   2.943   5.307   6.946 -0.5232  0.0389 -0.0318
  124OSM    H3F13239   2.911   5.224   6.879 -0.0574  0.1482 -0.3927
  124OSM    H3G13240   2.918   5.412   6.917 -1.2142  0.2067  1.0860
  124OSM    C4F13241   2.878   5.271   7.084 -0.5985 -0.6434  0.3471
  124OSM    H4F13242   2.910   5.167   7.105 -1.9690 -1.1121  0.2095
  124OSM    H4G13243   2.767   5.278   7.088 -0.6498  0.5237 -1.7239
  124OSM    C5F13244   2.926   5.362   7.195 -0.0551 -0.1049  0.2854
  124OSM    H5F13245   2.891   5.463   7.167  1.4935  0.2109 -0.6283
  124OSM    H5G13246   3.037   5.359   7.198  0.0008  1.5929  0.7337
  124OSM    C6F13247   2.880   5.329   7.335 -0.2068  0.1083 -0.0486
  124OSM    H6F13248   2.886   5.219   7.345 -0.5309 -0.3210 -3.2980
  124OSM    H6G13249   2.772   5.355   7.346 -0.1359  1.0112 -1.2855
  124OSM    C7F13250   2.964   5.395   7.442 -0.1303 -0.5077 -0.3947
  124OSM    H7F13251   2.937   5.503   7.445 -3.5449 -1.2388  1.6524
  124OSM    H7G13252   3.072   5.382   7.420  0.3758 -0.3328  1.7495
  124OSM    C8F13253   2.934   5.337   7.582  0.6140  0.2334 -0.5082
  124OSM    H8F13254   2.996   5.403   7.647 -1.3419  3.9344 -2.0969
  124OSM    H8G13255   2.972   5.233   7.594 -0.9911 -0.2495  0.5803
  124OSM    C9F13256   2.786   5.370   7.622 -0.7620  0.0009 -0.5006
  124OSM    H9F13257   2.707   5.342   7.550 -2.0611  0.2624  0.7893
  124OSM   C10F13258   2.741   5.433   7.728  0.1939 -0.4928 -0.3631
  124OSM   H10F13259   2.633   5.452   7.742 -0.5923 -3.7053 -1.2022
  124OSM   C11F13260   2.823   5.498   7.836 -0.4695  0.0033  0.5197
  124OSM   H11F13261   2.817   5.608   7.827 -0.5707 -0.0504 -0.1262
  124OSM   H11G13262   2.931   5.477   7.823 -0.0744  1.2109  1.7004
  124OSM   C12F13263   2.778   5.464   7.977 -0.5185  0.0296  0.2526
  124OSM   H12F13264   2.777   5.354   7.994 -2.2172 -0.0050  0.1494
  124OSM   H12G13265   2.676   5.508   7.986  0.0078  0.9785  1.7880
  124OSM   C13F13266   2.877   5.520   8.090 -0.1209  0.1206  0.3073
  124OSM   H13F13267   2.971   5.462   8.100 -1.0076 -1.2930  0.8051
  124OSM   H13G13268   2.823   5.514   8.187 -2.5956 -1.3317 -1.0713
  124OSM   C14F13269   2.918   5.666   8.079 -0.4000 -0.2150  0.0430
  124OSM   H14F13270   2.830   5.733   8.068 -0.3998 -0.1912  0.1831
  124OSM   H14G13271   2.981   5.663   7.988  0.0264 -0.4293  0.3412
  124OSM   C15F13272   3.024   5.716   8.186  0.1377 -0.2172  0.4697
  124OSM   H15F13273   3.088   5.794   8.141 -2.5957  1.4665 -0.7577
  124OSM   H15G13274   3.085   5.627   8.212 -1.4769 -1.1935  1.1146
  124OSM   C16F13275   2.952   5.777   8.309 -0.6000  0.2540  0.6465
  124OSM   H16F13276   2.907   5.691   8.364 -0.5803  1.7972  3.2423
  124OSM   H16G13277   2.871   5.848   8.278 -0.8984  0.4129  1.7569
  124OSM   C17F13278   3.051   5.848   8.395  0.4932  0.4897 -0.8494
  124OSM   H17F13279   3.061   5.946   8.344  0.1017  0.8228 -0.2933
  124OSM   H17G13280   3.152   5.801   8.396  1.0460  1.6513 -0.5544
  124OSM   C18F13281   3.012   5.852   8.545 -0.0667  0.1458 -0.0329
  124OSM   H18F13282   2.904   5.876   8.560  0.2172  0.3731  1.9123
  124OSM   H18G13283   3.061   5.931   8.605 -2.7927  2.2574 -0.3783
  124OSM   H18H13284   3.035   5.751   8.585 -0.3765 -1.5457 -3.7133
  125OSM      N13285   2.122   0.659   5.980  0.5698  0.3438  0.9031
  125OSM    C1513286   2.060   0.517   5.961 -0.3978 -0.2087  0.2055
  125OSM   H15A13287   1.972   0.508   6.023 -0.9821  0.5344 -0.4915
  125OSM   H15B13288   2.128   0.447   6.007 -0.8391  0.4140  1.9020
  125OSM   H15C13289   2.042   0.486   5.860 -0.4494 -2.0806  0.7596
  125OSM    C1413290   2.261   0.652   5.923  0.8642  0.1913 -0.2859
  125OSM   H14A13291   2.314   0.572   5.973  0.5976 -0.7750 -1.5000
  125OSM   H14B13292   2.294   0.752   5.946 -3.1079  1.4301  0.8502
  125OSM   H14C13293   2.271   0.611   5.824  1.8357  2.0586 -1.0129
  125OSM    C1313294   2.040   0.750   5.892 -0.0795  0.2361 -0.3107
  125OSM   H13A13295   1.933   0.737   5.901 -0.0619  0.2590 -0.0593
  125OSM   H13B13296   2.058   0.729   5.787  0.5836  1.7149 -0.5140
  125OSM   H13C13297   2.075   0.852   5.896 -1.3964  0.7169 -0.3756
  125OSM    C1213298   2.119   0.696   6.126 -0.6225  0.4296 -0.2764
  125OSM   H12A13299   2.023   0.673   6.171  0.8251 -1.7635  1.9018
  125OSM   H12B13300   2.137   0.801   6.142 -1.3976  0.4080  0.8581
  125OSM    C1113301   2.226   0.632   6.225  0.3558  0.0638  0.4445
  125OSM   H11A13302   2.232   0.526   6.193 -3.1644  0.1991 -1.1521
  125OSM   H11B13303   2.185   0.645   6.327 -0.0281  1.6086  0.1171
  125OSM      P13304   2.369   0.845   6.253  0.1787 -0.0818 -0.0841
  125OSM    O1313305   2.515   0.875   6.256 -0.1314  0.0820 -0.8293
  125OSM    O1413306   2.288   0.935   6.167 -0.0555 -0.6038 -0.5282
  125OSM    O1113307   2.307   0.845   6.397  0.2486  0.4876  0.1261
  125OSM    O1213308   2.352   0.696   6.202  0.2614 -0.0726 -0.2667
  125OSM    C1S13309   2.378   0.773   6.496 -0.3002  0.5494  0.4088
  125OSM    H1S13310   2.476   0.821   6.514  0.2180 -0.8711  1.6212
  125OSM    H1T13311   2.386   0.665   6.470 -2.6222  0.0979  1.2984
  125OSM     NF13312   2.381   0.703   6.732  0.0580  0.2635  0.3268
  125OSM    HNF13313   2.355   0.613   6.766  1.8032 -0.4942 -0.2409
  125OSM    C2S13314   2.297   0.773   6.631  0.3004 -0.4129 -0.4393
  125OSM    H2S13315   2.288   0.881   6.657 -0.8436 -0.3886 -0.8916
  125OSM    C3S13316   2.155   0.728   6.611  1.1914  0.1666 -0.0287
  125OSM    H3S13317   2.155   0.632   6.555  0.2837  1.5654 -2.5623
  125OSM     O313318   2.071   0.809   6.526 -0.4218  0.0629 -0.2485
  125OSM    HO313319   2.139   0.845   6.468 -0.3303 -1.3259 -1.0349
  125OSM    C4S13320   2.083   0.718   6.744  0.7820  0.1757  0.2271
  125OSM    H4S13321   2.081   0.810   6.805  1.6980 -0.3252  1.0321
  125OSM    C5S13322   2.042   0.609   6.797  0.5843  1.1246 -0.2022
  125OSM    H5S13323   2.051   0.513   6.744 -1.1300 -0.4363  2.1440
  125OSM    C6S13324   1.985   0.606   6.937  0.0914 -0.6422  0.0851
  125OSM    H6S13325   1.897   0.541   6.954 -0.6213  0.3163  0.1602
  125OSM    H6T13326   1.943   0.707   6.958  0.1813 -0.1162 -2.0611
  125OSM    C7S13327   2.087   0.585   7.053  0.0390 -0.1723 -0.3266
  125OSM    H7S13328   2.152   0.675   7.059  1.2636 -1.0840  0.6123
  125OSM    H7T13329   2.161   0.505   7.031 -0.7029 -0.3266 -2.5276
  125OSM    C8S13330   2.033   0.562   7.199 -0.1863 -0.2919 -0.2100
  125OSM    H8S13331   2.117   0.536   7.267 -0.4478  2.5625  1.3741
  125OSM    H8T13332   1.954   0.484   7.203  1.4355 -2.0756 -1.3969
  125OSM    C9S13333   1.974   0.690   7.256 -0.7465 -0.2286  0.1849
  125OSM    H9S13334   1.869   0.695   7.218 -0.1721  2.8911 -1.3461
  125OSM    H9T13335   2.032   0.775   7.214 -0.8426 -0.6739 -0.8831
  125OSM   C10S13336   1.978   0.689   7.405  1.3956  0.4865 -0.8244
  125OSM   H10S13337   1.953   0.791   7.441  0.2207  0.5716 -1.8516
  125OSM   H10T13338   2.081   0.668   7.443  0.5478 -2.3084  0.1716
  125OSM   C11S13339   1.881   0.584   7.471 -0.4423  0.1177  0.3716
  125OSM   H11S13340   1.906   0.481   7.436 -0.3717  0.0818  0.5271
  125OSM   H11T13341   1.777   0.612   7.444  0.0390  0.5222 -1.1965
  125OSM   C12S13342   1.885   0.573   7.625 -0.2141  0.0140 -0.2199
  125OSM   H12S13343   1.978   0.523   7.661 -2.0714 -1.7939  2.4827
  125OSM   H12T13344   1.801   0.512   7.665  0.6003 -0.2529  1.1509
  125OSM   C13S13345   1.886   0.707   7.702  0.7119  0.5689  0.7671
  125OSM   H13S13346   1.791   0.760   7.681  0.3080 -0.5485 -0.3815
  125OSM   H13T13347   1.963   0.776   7.661  0.1430  0.3631 -0.7164
  125OSM   C14S13348   1.915   0.692   7.845  0.2275  0.1108 -0.5723
  125OSM   H14S13349   1.960   0.783   7.892 -0.0197 -0.9267  1.7823
  125OSM   H14T13350   1.985   0.611   7.873 -0.1571  1.1543  4.3922
  125OSM   C15S13351   1.798   0.662   7.936  0.7826 -0.4237 -0.1487
  125OSM   H15S13352   1.747   0.571   7.897 -1.4798  0.7535 -0.0655
  125OSM   H15T13353   1.710   0.729   7.926  1.2678  0.6000  1.9210
  125OSM   C16S13354   1.834   0.654   8.088  0.1154 -0.4074 -0.5242
  125OSM   H16S13355   1.892   0.743   8.122  1.3574 -0.3997 -2.4856
  125OSM   H16T13356   1.895   0.567   8.119  0.2394 -0.6388 -1.3933
  125OSM   C17S13357   1.708   0.675   8.175  0.3495  0.6025 -0.1263
  125OSM   H17S13358   1.647   0.582   8.171  0.9881 -0.2295  4.3287
  125OSM   H17T13359   1.657   0.762   8.129  1.5769  1.2314 -0.3232
  125OSM   C18S13360   1.732   0.708   8.325  0.1634  0.3917 -0.4498
  125OSM   H18S13361   1.788   0.804   8.334  2.7791 -1.0902 -0.0993
  125OSM   H18T13362   1.797   0.629   8.367  0.4141  2.0066  2.4724
  125OSM   H18U13363   1.638   0.718   8.383  0.4734  1.7264 -0.1324
  125OSM    C1F13364   2.490   0.757   6.782 -0.5914 -0.7363  0.5619
  125OSM     OF13365   2.511   0.873   6.763  0.1635 -0.0063  0.2233
  125OSM    C2F13366   2.586   0.673   6.861 -0.2375  0.1874  0.1478
  125OSM    H2F13367   2.650   0.614   6.792  0.9112  0.4839  0.9220
  125OSM    H2G13368   2.527   0.604   6.925 -0.9972 -0.1329 -0.8832
  125OSM    C3F13369   2.685   0.750   6.950  0.3202  0.0772  0.8644
  125OSM    H3F13370   2.627   0.806   7.028 -0.7043 -0.4324  0.4811
  125OSM    H3G13371   2.753   0.814   6.890 -0.0113 -0.7759 -0.4368
  125OSM    C4F13372   2.780   0.663   7.040 -0.1999 -0.8820 -0.5328
  125OSM    H4F13373   2.830   0.602   6.961 -0.7044  0.1543 -1.6934
  125OSM    H4G13374   2.721   0.592   7.102  0.4671 -1.3061 -0.3838
  125OSM    C5F13375   2.879   0.746   7.123  0.6146  0.1712  0.3023
  125OSM    H5F13376   2.816   0.799   7.198  0.4927  0.6536 -0.1324
  125OSM    H5G13377   2.925   0.825   7.061 -0.3738  0.7484  0.2716
  125OSM    C6F13378   2.977   0.654   7.192 -0.4101  0.0179  0.1047
  125OSM    H6F13379   3.033   0.600   7.113 -1.1304  1.9965 -1.8649
  125OSM    H6G13380   2.935   0.584   7.267 -0.3821  0.5685  0.6446
  125OSM    C7F13381   3.080   0.728   7.278  0.0967 -0.5485 -0.1531
  125OSM    H7F13382   3.141   0.654   7.334  0.4307  0.4201  0.8116
  125OSM    H7G13383   3.040   0.812   7.340 -0.0099  0.4740 -1.5476
  125OSM    C8F13384   3.186   0.805   7.189 -0.4060  0.0001  0.0272
  125OSM    H8F13385   3.142   0.890   7.134 -0.4442  0.2287  0.4043
  125OSM    H8G13386   3.213   0.731   7.110 -2.8575  1.0326 -1.8901
  125OSM    C9F13387   3.304   0.854   7.275  0.8848 -0.3954 -0.5600
  125OSM    H9F13388   3.266   0.895   7.370 -1.4618 -1.3803 -1.0237
  125OSM   C10F13389   3.440   0.841   7.248  0.3859 -0.0756 -0.5783
  125OSM   H10F13390   3.512   0.888   7.317  0.5263 -0.1865 -0.6476
  125OSM   C11F13391   3.496   0.774   7.121  0.1421  0.6808 -1.1010
  125OSM   H11F13392   3.553   0.836   7.050  1.9989  2.8309  2.0038
  125OSM   H11G13393   3.412   0.725   7.066 -0.1186  0.8014 -0.8161
  125OSM   C12F13394   3.592   0.653   7.157  0.4381 -0.4610 -0.1798
  125OSM   H12F13395   3.635   0.610   7.064  0.6254 -0.2170 -0.2045
  125OSM   H12G13396   3.533   0.573   7.207  2.6825 -1.6733  0.6556
  125OSM   C13F13397   3.709   0.693   7.241 -0.5643 -0.2452 -0.8521
  125OSM   H13F13398   3.678   0.749   7.332  2.0019 -0.3563  0.1781
  125OSM   H13G13399   3.775   0.747   7.170 -1.5671  0.4778 -1.2536
  125OSM   C14F13400   3.789   0.576   7.295 -0.1805  0.0905 -0.9049
  125OSM   H14F13401   3.809   0.495   7.222  0.9244 -0.7898  0.3161
  125OSM   H14G13402   3.733   0.536   7.381  0.3478  1.4340  0.1039
  125OSM   C15F13403   3.930   0.615   7.337  0.1261  0.0999  0.4934
  125OSM   H15F13404   3.983   0.670   7.256  1.7548  0.1567  1.5419
  125OSM   H15G13405   3.989   0.523   7.355  0.1778 -0.1124 -0.6666
  125OSM   C16F13406   3.937   0.716   7.449 -0.6997 -1.3211 -0.6395
  125OSM   H16F13407   3.907   0.818   7.418 -0.1187 -1.0987 -0.4793
  125OSM   H16G13408   4.039   0.738   7.487 -1.2483 -0.4432  0.3693
  125OSM   C17F13409   3.855   0.692   7.578  0.9544  0.3583 -0.2227
  125OSM   H17F13410   3.748   0.712   7.554  1.1792  2.8847  0.5398
  125OSM   H17G13411   3.876   0.774   7.650  0.6633  0.9485 -0.7974
  125OSM   C18F13412   3.889   0.558   7.642  0.0851  0.1852 -0.0932
  125OSM   H18F13413   3.988   0.571   7.692 -1.0445  0.4943  2.2028
  125OSM   H18G13414   3.890   0.465   7.582  1.2311 -1.2193  1.9795
  125OSM   H18H13415   3.818   0.539   7.725  0.9954 -0.0842  0.6406
  126OSM      N13416   0.163   3.760   6.445 -0.7825  0.4726 -0.3286
  126OSM    C1513417   0.213   3.663   6.541 -0.3569 -0.2655 -0.5556
  126OSM   H15A13418   0.151   3.575   6.552 -2.6813  1.6044  4.3362
  126OSM   H15B13419   0.215   3.702   6.642 -2.1792  0.3136 -0.7132
  126OSM   H15C13420   0.311   3.626   6.512 -0.9044 -0.5474 -2.1604
  126OSM    C1413421   0.238   3.889   6.454  0.4101  0.5943  0.0343
  126OSM   H14A13422   0.245   3.926   6.555 -0.1078 -0.9627  0.6721
  126OSM   H14B13423   0.199   3.968   6.392  1.1194  0.5190 -0.5263
  126OSM   H14C13424   0.338   3.860   6.423 -0.3428  0.4942 -2.5110
  126OSM    C1313425   0.190   3.708   6.308  0.2499  0.6301 -0.2251
  126OSM   H13A13426   0.169   3.783   6.233 -0.5557  0.5485 -0.0911
  126OSM   H13B13427   0.156   3.608   6.287  1.3653  0.0817  0.4850
  126OSM   H13C13428   0.297   3.692   6.303  0.1378 -0.5963  0.6878
  126OSM    C1213429   0.019   3.794   6.477  0.7648  0.1290 -0.6133
  126OSM   H12A13430   0.011   3.848   6.570  2.1031 -0.7699  0.0624
  126OSM   H12B13431  -0.039   3.704   6.492 -1.2072  1.1919 -1.6035
  126OSM    C1113432  -0.055   3.885   6.374 -0.0130  0.0468  0.1556
  126OSM   H11A13433  -0.164   3.869   6.392  0.3203 -1.7044  0.8609
  126OSM   H11B13434  -0.037   3.837   6.276 -0.5881  0.0404  0.0469
  126OSM      P13435  -0.081   4.114   6.489  0.3596 -0.2729  0.0907
  126OSM    O1313436   0.003   4.228   6.521  0.4591  0.4484 -0.7548
  126OSM    O1413437  -0.224   4.137   6.466  0.1901  0.0790  0.1148
  126OSM    O1113438  -0.068   4.013   6.617 -0.0494 -0.2045  0.4275
  126OSM    O1213439  -0.013   4.026   6.379 -0.2975 -0.3605  0.0126
  126OSM    C1S13440  -0.150   4.039   6.730 -0.1494 -0.0806  0.5522
  126OSM    H1S13441  -0.241   3.976   6.721 -1.1499  1.2180  1.2968
  126OSM    H1T13442  -0.197   4.140   6.726 -0.1008 -0.0976 -1.7016
  126OSM     NF13443  -0.149   4.040   6.990 -0.1933 -0.1829  0.1142
  126OSM    HNF13444  -0.115   4.117   7.042 -0.1113 -0.6695  0.7894
  126OSM    C2S13445  -0.076   4.017   6.866 -0.9327  0.1661 -0.3136
  126OSM    H2S13446  -0.058   3.907   6.866 -0.9194  0.0706 -3.2880
  126OSM    C3S13447   0.061   4.086   6.862  0.1598 -0.0333  0.6533
  126OSM    H3S13448   0.041   4.194   6.843  1.0907 -0.2899 -2.3433
  126OSM     O313449   0.145   4.038   6.759  0.3396  0.7994 -0.1725
  126OSM    HO313450   0.090   4.024   6.681  3.0343 -0.5856 -1.9997
  126OSM    C4S13451   0.136   4.055   6.989  0.0108 -0.5087  0.3847
  126OSM    H4S13452   0.157   3.950   7.016  0.9474 -0.7431 -1.1483
  126OSM    C5S13453   0.188   4.143   7.078 -0.1660 -0.1959  0.7288
  126OSM    H5S13454   0.165   4.249   7.056  0.1514 -0.7976 -3.1812
  126OSM    C6S13455   0.263   4.113   7.206  0.2718 -0.4548  0.5276
  126OSM    H6S13456   0.373   4.129   7.203  0.2928 -0.7518 -0.6297
  126OSM    H6T13457   0.269   4.004   7.225  0.7199 -0.2098  1.8978
  126OSM    C7S13458   0.209   4.187   7.331 -0.1176 -0.3179  0.8229
  126OSM    H7S13459   0.110   4.145   7.357 -1.9854  1.9221 -1.9815
  126OSM    H7T13460   0.196   4.291   7.294  0.5794 -0.9452 -1.3127
  126OSM    C8S13461   0.300   4.193   7.449 -0.0835  0.0407 -0.4055
  126OSM    H8S13462   0.404   4.231   7.436  0.7132  0.3470  4.8851
  126OSM    H8T13463   0.314   4.093   7.494  0.3402  0.0565 -0.4974
  126OSM    C9S13464   0.237   4.273   7.565  0.0582 -0.0709  0.1488
  126OSM    H9S13465   0.151   4.213   7.600 -2.1008  0.5119 -3.6226
  126OSM    H9T13466   0.190   4.367   7.530  1.9985  0.4321 -1.2824
  126OSM   C10S13467   0.339   4.296   7.683 -0.2494 -0.0220  1.0406
  126OSM   H10S13468   0.421   4.362   7.649 -0.4700  0.0594  0.6521
  126OSM   H10T13469   0.383   4.197   7.711  0.5462 -0.3840 -1.3036
  126OSM   C11S13470   0.270   4.360   7.802 -0.5482 -0.2742 -0.1231
  126OSM   H11S13471   0.345   4.358   7.884  1.8350 -0.3332 -2.1803
  126OSM   H11T13472   0.178   4.303   7.826 -0.0805 -2.3307 -2.8140
  126OSM   C12S13473   0.234   4.504   7.777 -0.2427 -0.0740 -0.5192
  126OSM   H12S13474   0.125   4.502   7.757 -0.8938  2.3264  2.1146
  126OSM   H12T13475   0.296   4.537   7.691 -0.9849  0.6746 -0.7813
  126OSM   C13S13476   0.260   4.598   7.892  0.1078  0.3518  0.6374
  126OSM   H13S13477   0.237   4.703   7.864  2.7690  1.1589  1.1402
  126OSM   H13T13478   0.360   4.601   7.940  0.0933 -1.6124  0.8550
  126OSM   C14S13479   0.170   4.565   8.014  0.8059  0.4689  0.0411
  126OSM   H14S13480   0.188   4.461   8.047 -1.1517 -0.4318 -1.5039
  126OSM   H14T13481   0.066   4.556   7.973  1.2100  1.4257 -1.2591
  126OSM   C15S13482   0.169   4.663   8.127 -0.0810  0.0601 -0.1673
  126OSM   H15S13483   0.114   4.753   8.093  2.0292  1.4690 -0.0446
  126OSM   H15T13484   0.275   4.686   8.150 -0.2549  0.3707  0.3280
  126OSM   C16S13485   0.112   4.594   8.255  0.2290 -0.6210 -0.1392
  126OSM   H16S13486   0.019   4.538   8.234 -0.4199  1.0351 -2.0677
  126OSM   H16T13487   0.079   4.678   8.320  1.1721  0.1544 -0.6329
  126OSM   C17S13488   0.210   4.497   8.320 -0.2079  0.8704 -0.1471
  126OSM   H17S13489   0.310   4.546   8.321  0.7759 -1.0184 -0.0806
  126OSM   H17T13490   0.222   4.410   8.253  2.2716  1.6176 -0.7923
  126OSM   C18S13491   0.180   4.447   8.467  0.2536 -0.1808  0.3278
  126OSM   H18S13492   0.095   4.375   8.460 -0.8487  0.9870  1.2171
  126OSM   H18T13493   0.147   4.531   8.532 -3.0572 -2.3433  1.7021
  126OSM   H18U13494   0.276   4.404   8.501  1.6689  1.4650 -1.3237
  126OSM    C1F13495  -0.255   3.978   7.028 -0.0245  0.2345 -0.3552
  126OSM     OF13496  -0.304   3.890   6.957 -0.2665  0.4665 -0.0741
  126OSM    C2F13497  -0.306   4.007   7.164  0.5776 -0.2801  0.0217
  126OSM    H2F13498  -0.375   4.093   7.164  0.7906 -0.0612  1.8610
  126OSM    H2G13499  -0.220   4.044   7.224  0.9185 -0.1903 -0.5181
  126OSM    C3F13500  -0.390   3.899   7.224 -0.2002 -0.4302  0.0173
  126OSM    H3F13501  -0.314   3.824   7.257 -1.0610 -0.7122  1.4524
  126OSM    H3G13502  -0.465   3.848   7.161 -0.6946  1.8341 -1.3691
  126OSM    C4F13503  -0.464   3.931   7.357  0.3037 -0.3177 -0.6480
  126OSM    H4F13504  -0.561   3.983   7.342 -0.0488 -0.4405  1.0473
  126OSM    H4G13505  -0.398   3.997   7.418  1.5024 -0.6452 -1.5330
  126OSM    C5F13506  -0.504   3.815   7.436 -0.0030  0.5307 -0.3667
  126OSM    H5F13507  -0.425   3.743   7.466 -1.9088 -1.2218  0.7077
  126OSM    H5G13508  -0.569   3.759   7.366  2.0965  0.0525 -2.0344
  126OSM    C6F13509  -0.582   3.854   7.562 -0.1890  0.8483  0.0949
  126OSM    H6F13510  -0.617   3.757   7.603  0.1638  0.0648 -1.3713
  126OSM    H6G13511  -0.679   3.899   7.532 -1.2847 -0.3840  1.6316
  126OSM    C7F13512  -0.500   3.928   7.665  0.1859 -0.3067 -0.1181
  126OSM    H7F13513  -0.467   4.030   7.636 -0.5565 -0.0353 -0.0415
  126OSM    H7G13514  -0.402   3.876   7.660  0.8782  0.7996  1.3389
  126OSM    C8F13515  -0.544   3.918   7.812 -0.1668 -0.8342  0.0586
  126OSM    H8F13516  -0.460   3.950   7.876 -0.6902 -0.4409  0.5586
  126OSM    H8G13517  -0.559   3.815   7.851  0.9777 -0.4769  1.5500
  126OSM    C9F13518  -0.661   4.005   7.843  0.3914 -0.5565 -0.4079
  126OSM    H9F13519  -0.719   4.033   7.754 -0.5491  1.0764  0.6674
  126OSM   C10F13520  -0.696   4.055   7.965 -0.4188  0.2515 -0.2297
  126OSM   H10F13521  -0.793   4.106   7.974  0.2528  1.3335  1.3991
  126OSM   C11F13522  -0.619   4.028   8.092  0.0991 -0.2783  0.3404
  126OSM   H11F13523  -0.608   4.117   8.157 -1.8384  2.3920 -2.7040
  126OSM   H11G13524  -0.517   3.989   8.074  0.2602  0.4478 -0.3202
  126OSM   C12F13525  -0.686   3.928   8.185 -0.1139 -0.0780 -0.4820
  126OSM   H12F13526  -0.669   3.821   8.159  1.6349 -0.0985  0.5744
  126OSM   H12G13527  -0.797   3.933   8.181 -0.3180 -2.3916  0.3378
  126OSM   C13F13528  -0.646   3.946   8.333  0.0106 -0.7190 -0.6347
  126OSM   H13F13529  -0.682   4.043   8.374  0.7327 -0.0163 -1.6047
  126OSM   H13G13530  -0.535   3.938   8.340  0.1910  0.6492 -1.4936
  126OSM   C14F13531  -0.696   3.828   8.415 -0.1444  0.1289  0.2956
  126OSM   H14F13532  -0.649   3.736   8.374  1.5172  0.1151  2.0755
  126OSM   H14G13533  -0.805   3.813   8.405 -0.4308  1.4341  1.2488
  126OSM   C15F13534  -0.674   3.841   8.567  0.0823  0.5443  0.0484
  126OSM   H15F13535  -0.748   3.780   8.623  0.6304  1.6578  2.1021
  126OSM   H15G13536  -0.692   3.943   8.607 -1.6802  1.1999 -2.2217
  126OSM   C16F13537  -0.533   3.795   8.600 -0.5435  0.3551 -0.2675
  126OSM   H16F13538  -0.459   3.870   8.565  0.3692 -1.2237 -1.8677
  126OSM   H16G13539  -0.508   3.704   8.541 -3.2108 -0.2133 -0.6516
  126OSM   C17F13540  -0.507   3.759   8.750 -0.2410  0.9627 -0.4981
  126OSM   H17F13541  -0.427   3.682   8.752  1.3445  2.5500  1.2740
  126OSM   H17G13542  -0.596   3.718   8.803 -0.6008  0.7023 -1.2890
  126OSM   C18F13543  -0.469   3.882   8.830  0.1622 -0.4848 -0.5388
  126OSM   H18F13544  -0.471   3.864   8.940  1.0073 -1.1453 -0.6265
  126OSM   H18G13545  -0.546   3.958   8.804  1.2610  0.7275 -0.3350
  126OSM   H18H13546  -0.368   3.915   8.797 -0.2639  0.1920 -1.1875
  127OSM      N13547   1.289   5.407   6.083 -0.7931  0.3448 -0.6561
  127OSM    C1513548   1.181   5.446   5.981  0.1552 -0.7693 -0.6408
  127OSM   H15A13549   1.184   5.553   5.975  2.4262 -0.6040  1.6948
  127OSM   H15B13550   1.084   5.426   6.026 -1.2027 -0.3733 -3.1966
  127OSM   H15C13551   1.183   5.398   5.884  2.0344  0.5998 -1.3167
  127OSM    C1413552   1.266   5.265   6.127 -0.0503 -0.5129  1.0750
  127OSM   H14A13553   1.237   5.199   6.047 -0.2798  0.5711  0.2444
  127OSM   H14B13554   1.189   5.258   6.202  0.3828 -1.9091  1.4269
  127OSM   H14C13555   1.358   5.222   6.164  1.6549  1.1169 -1.0121
  127OSM    C1313556   1.411   5.426   6.008 -0.6287 -0.5657  0.0640
  127OSM   H13A13557   1.419   5.528   5.973  1.5470 -0.8963 -0.5454
  127OSM   H13B13558   1.416   5.359   5.923 -0.9625  0.1650 -0.5420
  127OSM   H13C13559   1.496   5.407   6.071 -0.7278  0.0672  0.3959
  127OSM    C1213560   1.294   5.493   6.208  0.9711  0.1259 -0.2631
  127OSM   H12A13561   1.362   5.450   6.280  0.4712 -2.6411 -1.3350
  127OSM   H12B13562   1.197   5.486   6.256 -0.0418  0.6793 -2.1145
  127OSM    C1113563   1.302   5.644   6.193  0.3016  0.3928 -0.2120
  127OSM   H11A13564   1.381   5.668   6.119 -0.6630  0.2072 -1.3258
  127OSM   H11B13565   1.322   5.674   6.298 -1.9060  0.0224  0.3724
  127OSM      P13566   1.163   5.860   6.146 -0.2340 -0.2105  0.4500
  127OSM    O1313567   1.268   5.911   6.051  0.8619 -0.1174 -0.1795
  127OSM    O1413568   1.025   5.885   6.098 -0.0872  0.0871 -0.0043
  127OSM    O1113569   1.187   5.915   6.287 -0.2216 -0.1914  0.4043
  127OSM    O1213570   1.180   5.705   6.155 -0.5014 -0.1409  0.3898
  127OSM    C1S13571   1.127   5.862   6.406 -0.3208 -0.7942  0.2291
  127OSM    H1S13572   1.127   5.752   6.393 -1.5593 -0.7006 -0.8346
  127OSM    H1T13573   1.021   5.891   6.425 -0.3857 -1.5843  1.1304
  127OSM     NF13574   1.176   5.798   6.633  0.3608  0.3489  0.5214
  127OSM    HNF13575   1.111   5.832   6.700 -1.5347 -0.7828 -0.6517
  127OSM    C2S13576   1.212   5.894   6.527  0.1687  0.5954  0.4412
  127OSM    H2S13577   1.316   5.876   6.493  1.0586  0.3462  3.0225
  127OSM    C3S13578   1.204   6.046   6.555 -0.6364  0.2819 -0.6081
  127OSM    H3S13579   1.101   6.070   6.587  0.5413  1.4006  2.7110
  127OSM     O313580   1.222   6.137   6.446  0.2825 -0.3221  0.1422
  127OSM    HO313581   1.214   6.083   6.367 -0.5272 -2.3424  1.5026
  127OSM    C4S13582   1.295   6.081   6.668 -0.7793  0.3511  0.3721
  127OSM    H4S13583   1.253   6.040   6.761  0.3326  0.0081  0.7393
  127OSM    C5S13584   1.422   6.133   6.660  0.0907 -0.1075 -0.0789
  127OSM    H5S13585   1.465   6.145   6.560 -1.0759  2.6237 -0.3387
  127OSM    C6S13586   1.514   6.143   6.785  0.0598 -0.0524 -0.2232
  127OSM    H6S13587   1.577   6.235   6.783  0.0255  0.1082  2.6063
  127OSM    H6T13588   1.591   6.063   6.789 -0.6364 -0.8623 -1.9651
  127OSM    C7S13589   1.450   6.127   6.929 -0.6766  0.7830  0.4524
  127OSM    H7S13590   1.408   6.025   6.939  0.3692  0.3430  0.4308
  127OSM    H7T13591   1.375   6.209   6.939  0.4607  1.8918  0.2067
  127OSM    C8S13592   1.561   6.138   7.030  0.4090 -0.3784  0.2072
  127OSM    H8S13593   1.608   6.237   7.016 -0.5681  0.2023  0.9199
  127OSM    H8T13594   1.633   6.055   7.015 -0.0582 -0.7531  0.0043
  127OSM    C9S13595   1.499   6.131   7.171  0.6493  0.2970  0.0186
  127OSM    H9S13596   1.439   6.038   7.183  0.5777  0.5294  1.7049
  127OSM    H9T13597   1.429   6.215   7.187 -0.7206 -0.9222  0.6549
  127OSM   C10S13598   1.611   6.130   7.273 -1.0359 -0.3757  0.2868
  127OSM   H10S13599   1.673   6.221   7.261  0.1319 -0.8569  2.2481
  127OSM   H10T13600   1.673   6.037   7.268 -0.5506 -0.0178 -0.7161
  127OSM   C11S13601   1.553   6.126   7.417  0.4987 -0.0598 -0.7485
  127OSM   H11S13602   1.486   6.039   7.429  0.4456  0.2844  2.1427
  127OSM   H11T13603   1.483   6.209   7.437  0.5808  0.0278 -0.8213
  127OSM   C12S13604   1.669   6.127   7.517  0.8901 -0.5085  0.1817
  127OSM   H12S13605   1.736   6.207   7.478 -0.6619  1.1939  0.8404
  127OSM   H12T13606   1.722   6.032   7.539  0.4035 -0.7336  0.3984
  127OSM   C13S13607   1.618   6.173   7.649 -0.1930 -0.5125  0.4719
  127OSM   H13S13608   1.564   6.087   7.696  0.5239 -1.2301  0.0141
  127OSM   H13T13609   1.551   6.259   7.630 -0.9238 -1.2967 -0.6393
  127OSM   C14S13610   1.737   6.213   7.743  0.4879 -0.1880  0.2997
  127OSM   H14S13611   1.698   6.267   7.832  1.7520  0.6815  0.3411
  127OSM   H14T13612   1.811   6.287   7.705  0.1813  0.1920  0.4337
  127OSM   C15S13613   1.816   6.092   7.801  0.1496  0.6210 -0.1834
  127OSM   H15S13614   1.866   6.037   7.718 -0.7671 -0.5414  0.0073
  127OSM   H15T13615   1.743   6.027   7.854 -0.6559  0.2962 -1.6282
  127OSM   C16S13616   1.923   6.127   7.908 -0.1975 -0.1088  0.5455
  127OSM   H16S13617   1.878   6.179   7.996  1.6263  0.9892  0.8999
  127OSM   H16T13618   1.990   6.204   7.863 -1.2708 -0.3719 -1.5816
  127OSM   C17S13619   2.000   6.006   7.963  0.1856 -0.3406  0.7703
  127OSM   H17S13620   2.066   5.966   7.884  1.3125 -0.2562  1.6514
  127OSM   H17T13621   1.937   5.923   8.000  0.5098 -0.2331  1.5766
  127OSM   C18S13622   2.096   6.042   8.070  0.3629 -0.3917  0.3069
  127OSM   H18S13623   2.127   5.949   8.121 -2.3362 -0.7958  1.3724
  127OSM   H18T13624   2.045   6.113   8.139  0.1277 -0.0610 -0.2042
  127OSM   H18U13625   2.189   6.089   8.029  1.0313 -1.2829  0.7647
  127OSM    C1F13626   1.196   5.664   6.644 -0.9086 -0.2820 -0.2436
  127OSM     OF13627   1.257   5.599   6.562  0.1831 -0.9047  0.3875
  127OSM    C2F13628   1.139   5.599   6.765  0.2719  0.5326  0.3514
  127OSM    H2F13629   1.029   5.610   6.771  0.2882  1.4046 -0.5892
  127OSM    H2G13630   1.192   5.645   6.852  2.8412  1.9467 -1.8018
  127OSM    C3F13631   1.155   5.439   6.767  0.3042 -0.4872  0.1610
  127OSM    H3F13632   1.256   5.397   6.782  0.2438 -1.6036 -2.2094
  127OSM    H3G13633   1.118   5.408   6.667 -0.3544 -1.1791  0.6116
  127OSM    C4F13634   1.056   5.384   6.865 -0.3093  0.0057  0.4285
  127OSM    H4F13635   0.951   5.412   6.841 -0.5580 -2.0069 -1.1498
  127OSM    H4G13636   1.074   5.433   6.963  2.1671  0.4764 -0.1969
  127OSM    C5F13637   1.059   5.229   6.877  0.4777 -0.7665  0.0879
  127OSM    H5F13638   1.152   5.192   6.829  1.9488 -0.7836  2.7697
  127OSM    H5G13639   0.968   5.189   6.826  0.9752 -0.3345 -1.1777
  127OSM    C6F13640   1.058   5.177   7.022  0.3369  0.3385 -0.2751
  127OSM    H6F13641   1.050   5.066   7.019 -0.9020  0.1074  4.3253
  127OSM    H6G13642   0.969   5.202   7.083  0.0877 -0.4336 -0.3062
  127OSM    C7F13643   1.183   5.193   7.110  0.1241  0.0512  0.7224
  127OSM    H7F13644   1.207   5.301   7.117 -1.7096  0.4914  0.7929
  127OSM    H7G13645   1.271   5.141   7.068 -1.5993 -1.0669 -1.7892
  127OSM    C8F13646   1.158   5.157   7.258  0.3572 -0.5784  0.3595
  127OSM    H8F13647   1.262   5.151   7.297  0.8237  0.4490 -0.6598
  127OSM    H8G13648   1.119   5.054   7.269  1.0210 -0.5644  5.1015
  127OSM    C9F13649   1.065   5.258   7.326 -0.4234 -0.3483 -1.1108
  127OSM    H9F13650   0.960   5.243   7.299  0.1370 -1.2607 -2.9394
  127OSM   C10F13651   1.101   5.371   7.395  0.1288  0.4232  0.1479
  127OSM   H10F13652   1.018   5.418   7.452 -1.3802 -0.7344 -1.0061
  127OSM   C11F13653   1.244   5.408   7.427  0.0588  0.0632  0.5661
  127OSM   H11F13654   1.249   5.514   7.393  0.3948  0.0865  0.6841
  127OSM   H11G13655   1.310   5.355   7.355  0.0031  0.0753  0.5066
  127OSM   C12F13656   1.294   5.383   7.571  0.1186 -0.4478  0.0071
  127OSM   H12F13657   1.249   5.463   7.633  1.5026  0.1855  0.2377
  127OSM   H12G13658   1.405   5.394   7.574  0.1383 -0.7103  3.1732
  127OSM   C13F13659   1.270   5.240   7.629  0.4660 -0.7763  0.8454
  127OSM   H13F13660   1.335   5.175   7.567  0.2805  1.4597 -1.8782
  127OSM   H13G13661   1.168   5.211   7.595  1.0979 -1.3217 -0.6740
  127OSM   C14F13662   1.287   5.212   7.785  0.5694 -0.1664 -0.3204
  127OSM   H14F13663   1.391   5.225   7.823  0.9321 -1.1356 -0.9725
  127OSM   H14G13664   1.281   5.102   7.787  3.9390 -0.4682  2.2643
  127OSM   C15F13665   1.194   5.301   7.858  0.4322 -0.7378  0.4619
  127OSM   H15F13666   1.097   5.298   7.803  0.9742 -0.6273 -0.5258
  127OSM   H15G13667   1.225   5.406   7.839  2.1063 -1.4473 -1.0188
  127OSM   C16F13668   1.191   5.268   8.010 -0.1272 -0.4320  0.2360
  127OSM   H16F13669   1.195   5.158   8.021 -2.6328 -0.5378  0.8185
  127OSM   H16G13670   1.098   5.308   8.056 -0.2904 -1.6992  1.0716
  127OSM   C17F13671   1.304   5.348   8.085  0.3889 -0.1635  0.3434
  127OSM   H17F13672   1.404   5.327   8.043  0.1376  1.3050 -1.1052
  127OSM   H17G13673   1.327   5.299   8.182 -0.6898  0.2763  0.8421
  127OSM   C18F13674   1.277   5.496   8.116 -0.4454 -0.0476  0.5133
  127OSM   H18F13675   1.352   5.542   8.183 -2.9087 -0.0469  3.4383
  127OSM   H18G13676   1.177   5.493   8.164 -0.7849 -0.4007 -0.1836
  127OSM   H18H13677   1.268   5.567   8.031 -0.3977 -0.2381  0.3444
  128OSM      N13678   2.478   1.353   6.311 -0.2226  0.6185  0.3165
  128OSM    C1513679   2.424   1.317   6.171 -0.0731 -0.5447  0.0310
  128OSM   H15A13680   2.494   1.258   6.113 -0.5091 -0.4728 -0.5712
  128OSM   H15B13681   2.414   1.409   6.116  3.7154 -1.0330 -1.8521
  128OSM   H15C13682   2.331   1.264   6.184 -0.6250  0.2798 -0.4598
  128OSM    C1413683   2.487   1.219   6.388  0.3919 -0.3255 -0.1729
  128OSM   H14A13684   2.530   1.245   6.483  0.2836 -0.1639 -0.1676
  128OSM   H14B13685   2.552   1.151   6.335 -0.8892 -0.9493 -0.9912
  128OSM   H14C13686   2.390   1.173   6.402 -0.1506  0.5111 -1.0773
  128OSM    C1313687   2.619   1.398   6.294  0.9809 -0.2853  0.2311
  128OSM   H13A13688   2.621   1.498   6.252  1.2044 -0.2108  0.4189
  128OSM   H13B13689   2.682   1.331   6.237  0.1091 -1.1023  0.2124
  128OSM   H13C13690   2.667   1.400   6.390 -1.1844 -2.1278  1.4367
  128OSM    C1213691   2.401   1.458   6.382 -0.7695 -0.1330  0.2885
  128OSM   H12A13692   2.456   1.479   6.472  1.1107 -1.4970 -0.4694
  128OSM   H12B13693   2.298   1.425   6.389 -1.1722 -0.6396 -4.3258
  128OSM    C1113694   2.380   1.592   6.303 -0.4301  0.1617  0.4108
  128OSM   H11A13695   2.317   1.665   6.359  0.5283  2.1471 -0.9620
  128OSM   H11B13696   2.325   1.553   6.214 -0.3920 -1.0079  0.8920
  128OSM      P13697   2.562   1.790   6.338  0.2697 -0.3640  0.5178
  128OSM    O1313698   2.710   1.773   6.331  0.1178  0.9128  0.2695
  128OSM    O1413699   2.517   1.905   6.269  0.1693 -0.8706 -0.1620
  128OSM    O1113700   2.511   1.785   6.480 -0.3030  0.2112  0.5459
  128OSM    O1213701   2.502   1.663   6.259  0.4186  0.7989 -0.1581
  128OSM    C1S13702   2.581   1.702   6.579 -0.2538  0.2697 -0.8877
  128OSM    H1S13703   2.679   1.746   6.608  0.8161 -0.5189 -3.1008
  128OSM    H1T13704   2.603   1.600   6.541  2.1611  0.2997  0.2292
  128OSM     NF13705   2.581   1.607   6.807 -0.4326  0.0935  0.0638
  128OSM    HNF13706   2.557   1.511   6.799 -0.0186 -0.2718  2.4477
  128OSM    C2S13707   2.506   1.689   6.713  0.1963  0.1270 -0.2574
  128OSM    H2S13708   2.508   1.792   6.755 -3.7499  1.5810 -2.9557
  128OSM    C3S13709   2.362   1.628   6.694  0.2636 -0.1955  0.8166
  128OSM    H3S13710   2.360   1.524   6.657 -0.8245  0.1911 -0.2597
  128OSM     O313711   2.283   1.719   6.610 -0.3482 -0.1727  0.0285
  128OSM    HO313712   2.355   1.762   6.563  1.3060  0.6639  3.1024
  128OSM    C4S13713   2.289   1.623   6.826 -0.1091  0.0391  0.1117
  128OSM    H4S13714   2.259   1.719   6.871  2.1260 -0.5850  3.2993
  128OSM    C5S13715   2.259   1.510   6.893 -0.3769  0.2431  0.1669
  128OSM    H5S13716   2.288   1.417   6.843 -2.1176  0.4817 -1.4011
  128OSM    C6S13717   2.190   1.503   7.024  0.2136 -0.7530 -0.9314
  128OSM    H6S13718   2.194   1.400   7.065  0.6962 -0.3881 -0.0327
  128OSM    H6T13719   2.083   1.526   7.011  0.6951  2.8759  0.3295
  128OSM    C7S13720   2.226   1.613   7.124  0.4347 -0.8895 -0.9607
  128OSM    H7S13721   2.238   1.713   7.078  2.1512 -0.5483  0.1852
  128OSM    H7T13722   2.330   1.592   7.156  0.2697 -1.6638 -0.9041
  128OSM    C8S13723   2.132   1.612   7.249  0.4237 -0.5711  0.8275
  128OSM    H8S13724   2.068   1.522   7.237 -3.1728  1.8575  0.5032
  128OSM    H8T13725   2.063   1.698   7.240  1.8529  0.5357 -0.0729
  128OSM    C9S13726   2.209   1.609   7.384  0.1909  0.0586  0.5620
  128OSM    H9S13727   2.253   1.710   7.395 -2.1762  1.7114 -3.1231
  128OSM    H9T13728   2.292   1.535   7.385 -1.0274 -1.3521  0.9869
  128OSM   C10S13729   2.121   1.578   7.500 -0.2337  0.5224 -0.3072
  128OSM   H10S13730   2.072   1.479   7.488 -2.6017  1.6242 -0.3243
  128OSM   H10T13731   2.041   1.654   7.503  0.4464  1.2092  1.0785
  128OSM   C11S13732   2.189   1.587   7.630 -0.0728  0.8024 -0.3373
  128OSM   H11S13733   2.208   1.692   7.661 -0.6358  1.4751 -2.1795
  128OSM   H11T13734   2.291   1.543   7.629  0.1715  1.3036  0.7346
  128OSM   C12S13735   2.102   1.528   7.744  0.0278  0.1989 -0.6637
  128OSM   H12S13736   2.076   1.425   7.711 -0.8896 -0.1975  1.1328
  128OSM   H12T13737   2.003   1.577   7.747 -1.2979 -2.3747  0.3437
  128OSM   C13S13738   2.173   1.525   7.881 -0.5068 -0.3273  0.1609
  128OSM   H13S13739   2.215   1.628   7.888  0.7449 -0.4824 -3.3071
  128OSM   H13T13740   2.257   1.453   7.876  0.1274  0.3148  1.0177
  128OSM   C14S13741   2.085   1.489   8.003 -0.2490 -1.0938 -0.8055
  128OSM   H14S13742   2.073   1.379   7.990  3.8128 -1.6403 -1.2731
  128OSM   H14T13743   2.000   1.560   8.009  0.2848 -0.3998 -1.2655
  128OSM   C15S13744   2.160   1.512   8.131  0.5082 -0.1967  0.0369
  128OSM   H15S13745   2.092   1.479   8.213  1.6701  1.3981  1.7270
  128OSM   H15T13746   2.165   1.621   8.152  0.3763  0.1114 -1.4444
  128OSM   C16S13747   2.294   1.439   8.140 -0.5717 -0.1571  0.1587
  128OSM   H16S13748   2.364   1.496   8.075 -1.3168  0.8961  0.2596
  128OSM   H16T13749   2.277   1.340   8.092  1.2293  0.4059 -1.8325
  128OSM   C17S13750   2.349   1.425   8.287 -0.5155  0.1626  0.1932
  128OSM   H17S13751   2.337   1.520   8.342  1.1230  0.7011 -0.3353
  128OSM   H17T13752   2.458   1.408   8.278 -0.7600 -1.0572 -0.8753
  128OSM   C18S13753   2.282   1.313   8.371 -0.2681 -0.2575 -0.2206
  128OSM   H18S13754   2.172   1.329   8.378 -0.3893 -0.4521 -1.4072
  128OSM   H18T13755   2.324   1.291   8.471 -0.6002 -1.7647 -0.3815
  128OSM   H18U13756   2.302   1.221   8.311 -0.0789  0.8721 -1.9518
  128OSM    C1F13757   2.699   1.633   6.862  0.6032  0.6888 -0.1585
  128OSM     OF13758   2.769   1.723   6.820 -0.1036  0.0914 -0.5587
  128OSM    C2F13759   2.742   1.540   6.975  0.2950  0.2381 -0.3180
  128OSM    H2F13760   2.853   1.530   6.970  0.2066 -1.7338  0.6449
  128OSM    H2G13761   2.704   1.437   6.958 -0.0182  0.2428  0.3602
  128OSM    C3F13762   2.699   1.601   7.109 -1.2415 -0.3477  0.0789
  128OSM    H3F13763   2.593   1.636   7.110 -0.9343  0.6999  2.3919
  128OSM    H3G13764   2.761   1.690   7.132  0.4074 -1.3605 -0.2740
  128OSM    C4F13765   2.708   1.501   7.227 -0.2969  0.3526  0.2892
  128OSM    H4F13766   2.814   1.474   7.247 -0.4732 -0.1183  0.5927
  128OSM    H4G13767   2.653   1.406   7.208  0.1028  0.1623  0.0574
  128OSM    C5F13768   2.663   1.551   7.366 -0.0099 -0.9165  0.0838
  128OSM    H5F13769   2.555   1.572   7.371 -0.0821 -0.9970 -0.9488
  128OSM    H5G13770   2.709   1.652   7.373  0.1036 -1.0208  1.0231
  128OSM    C6F13771   2.702   1.457   7.481  0.7950 -0.0545  0.4203
  128OSM    H6F13772   2.813   1.447   7.490  0.7927  0.8570  1.8674
  128OSM    H6G13773   2.663   1.357   7.452 -0.3880  0.0227  1.6692
  128OSM    C7F13774   2.655   1.499   7.615 -0.3332  0.5644 -0.0116
  128OSM    H7F13775   2.545   1.511   7.602 -0.0828 -0.4668 -4.7957
  128OSM    H7G13776   2.700   1.597   7.641  3.0123  0.3750 -4.0358
  128OSM    C8F13777   2.681   1.389   7.721  0.3064 -0.4475  0.0765
  128OSM    H8F13778   2.790   1.369   7.718  0.4195 -0.6150  2.7807
  128OSM    H8G13779   2.632   1.298   7.681 -0.8960  0.5809 -0.8895
  128OSM    C9F13780   2.610   1.427   7.852  0.3275  0.0746  0.4772
  128OSM    H9F13781   2.501   1.437   7.849  0.4657  1.8042 -0.1403
  128OSM   C10F13782   2.679   1.450   7.965 -0.2183  0.2344 -0.3428
  128OSM   H10F13783   2.615   1.464   8.053 -0.1678 -1.1150 -0.0689
  128OSM   C11F13784   2.830   1.450   7.992  0.4868  0.7706 -0.3478
  128OSM   H11F13785   2.878   1.387   7.915 -0.8316 -2.3498  1.2101
  128OSM   H11G13786   2.855   1.399   8.088  0.0349 -0.6284 -0.9452
  128OSM   C12F13787   2.875   1.598   8.000 -0.0240  0.1533  0.0950
  128OSM   H12F13788   2.825   1.644   8.088 -0.0992  1.7798 -0.7476
  128OSM   H12G13789   2.845   1.661   7.913 -2.4619  0.8012  1.3062
  128OSM   C13F13790   3.025   1.596   8.021  0.5537  0.0951  0.1985
  128OSM   H13F13791   3.086   1.548   7.942 -0.3700 -2.5385  0.9957
  128OSM   H13G13792   3.042   1.545   8.118 -1.8803  2.8563  2.2841
  128OSM   C14F13793   3.088   1.732   8.062 -0.2034 -0.9882 -0.1033
  128OSM   H14F13794   3.086   1.805   7.978 -0.5397 -0.5451  0.2826
  128OSM   H14G13795   3.194   1.710   8.085  0.2761 -0.7040 -1.8803
  128OSM   C15F13796   3.013   1.813   8.172 -0.1093 -0.1246  0.0763
  128OSM   H15F13797   2.907   1.829   8.145  0.1250 -1.5312 -1.8528
  128OSM   H15G13798   3.062   1.912   8.174  1.1805 -0.7422  0.7973
  128OSM   C16F13799   3.034   1.768   8.316 -0.0966 -0.2065 -0.0130
  128OSM   H16F13800   3.134   1.807   8.341  0.5218  0.0661 -2.6253
  128OSM   H16G13801   3.045   1.657   8.313 -1.3088 -0.3665  0.7426
  128OSM   C17F13802   2.918   1.822   8.403 -0.9992  0.0973 -0.5835
  128OSM   H17F13803   2.824   1.777   8.364 -2.2692  0.3566  1.9655
  128OSM   H17G13804   2.893   1.930   8.392 -2.6441  0.1051  2.2655
  128OSM   C18F13805   2.934   1.793   8.547 -0.1610 -0.3896 -0.2699
  128OSM   H18F13806   2.853   1.843   8.604  0.7172  1.6220 -0.7018
  128OSM   H18G13807   3.024   1.830   8.600 -0.6300 -1.7781  1.6114
  128OSM   H18H13808   2.944   1.684   8.564  0.8414 -0.1692  0.6592
  129OSM      N13809   5.490   5.750   6.387 -0.2497 -0.3373  0.4337
  129OSM    C1513810   5.497   5.832   6.262 -0.7974 -0.0425  0.2648
  129OSM   H15A13811   5.400   5.872   6.237 -1.2775 -0.7653  0.9041
  129OSM   H15B13812   5.518   5.754   6.190 -0.1419  0.5252 -0.1680
  129OSM   H15C13813   5.579   5.901   6.271  1.6929 -2.8357  0.5054
  129OSM    C1413814   5.429   5.838   6.498 -0.0443  0.8097 -0.1132
  129OSM   H14A13815   5.506   5.896   6.546  1.3732 -0.6153 -0.5446
  129OSM   H14B13816   5.374   5.788   6.575  0.2266 -0.1944 -0.5487
  129OSM   H14C13817   5.369   5.906   6.440  1.2448  1.0193 -1.2747
  129OSM    C1313818   5.393   5.640   6.359  0.2515  0.1252  0.2887
  129OSM   H13A13819   5.395   5.565   6.436  2.2163  0.0023  0.1642
  129OSM   H13B13820   5.417   5.602   6.261  0.5935 -1.6097  1.0107
  129OSM   H13C13821   5.292   5.675   6.348  0.2810  1.0608  2.4815
  129OSM    C1213822   5.625   5.705   6.431  0.7381  0.1350  0.1262
  129OSM   H12A13823   5.683   5.652   6.357  3.2839  1.1289  1.2690
  129OSM   H12B13824   5.613   5.628   6.507 -2.3014 -1.6014 -1.9300
  129OSM    C1113825   5.725   5.812   6.477 -0.4513  0.2612  0.3781
  129OSM   H11A13826   5.809   5.748   6.512  0.0238  0.1195 -0.9581
  129OSM   H11B13827   5.687   5.872   6.563  1.6503  3.1247 -0.5466
  129OSM      P13828   5.879   5.858   6.273 -0.0539  0.5192 -0.1566
  129OSM    O1313829   5.920   5.718   6.307  0.3594 -0.4239  0.2636
  129OSM    O1413830   5.832   5.871   6.132 -0.0730  0.5004  0.1490
  129OSM    O1113831   6.007   5.951   6.299  0.4691 -0.2541  0.2555
  129OSM    O1213832   5.769   5.903   6.374 -0.0009  0.0190 -0.0909
  129OSM    C1S13833   6.067   5.999   6.418 -0.7837 -0.3283  0.3951
  129OSM    H1S13834   5.998   6.060   6.480 -0.7404 -0.6363  0.7484
  129OSM    H1T13835   6.149   6.066   6.384 -1.5754 -0.0388 -1.0645
  129OSM     NF13836   6.166   5.947   6.627 -0.2627 -0.7318 -0.5235
  129OSM    HNF13837   6.258   5.985   6.639 -0.3612  0.5889 -3.1440
  129OSM    C2S13838   6.135   5.886   6.498  0.0704 -0.5455 -0.4387
  129OSM    H2S13839   6.056   5.812   6.523 -2.2990  2.3724  1.3142
  129OSM    C3S13840   6.261   5.831   6.430  0.2597 -0.2234  0.0649
  129OSM    H3S13841   6.328   5.918   6.415  0.3346 -0.2528  0.2211
  129OSM     O313842   6.247   5.779   6.297 -0.6208 -0.1217  0.3543
  129OSM    HO313843   6.162   5.808   6.262 -0.9276 -2.3309 -0.9070
  129OSM    C4S13844   6.330   5.731   6.518  0.1388 -0.4984  0.0572
  129OSM    H4S13845   6.420   5.768   6.568 -0.3408 -0.2421  0.7556
  129OSM    C5S13846   6.301   5.606   6.522  0.0039 -0.4005 -0.5911
  129OSM    H5S13847   6.218   5.569   6.460  1.1849 -1.7868 -1.4229
  129OSM    C6S13848   6.378   5.510   6.607 -0.1377 -0.0971  0.3585
  129OSM    H6S13849   6.445   5.446   6.545 -0.1165  0.3453 -0.0882
  129OSM    H6T13850   6.298   5.439   6.634  0.2590 -0.9730 -0.6644
  129OSM    C7S13851   6.447   5.556   6.735 -0.3249 -0.3078  0.1545
  129OSM    H7S13852   6.534   5.619   6.706 -1.0502 -0.4493 -2.5604
  129OSM    H7T13853   6.489   5.462   6.778  0.5531  0.2399  0.5319
  129OSM    C8S13854   6.352   5.618   6.838  0.3045 -0.1932 -0.4359
  129OSM    H8S13855   6.270   5.551   6.869 -0.7913  0.9641 -0.7229
  129OSM    H8T13856   6.313   5.712   6.792  1.1014  0.7850  0.8120
  129OSM    C9S13857   6.431   5.667   6.961  0.2069 -0.1819  0.2517
  129OSM    H9S13858   6.371   5.733   7.027 -0.9823  0.8254 -1.7663
  129OSM    H9T13859   6.508   5.734   6.917 -0.4306  0.2658 -0.1951
  129OSM   C10S13860   6.474   5.571   7.063 -0.1796  0.3269 -0.0662
  129OSM   H10S13861   6.503   5.477   7.011 -0.5487 -0.3827  0.9844
  129OSM   H10T13862   6.382   5.548   7.122 -0.9118  0.5181 -1.0950
  129OSM   C11S13863   6.579   5.619   7.159  0.0986  0.0684 -0.0688
  129OSM   H11S13864   6.540   5.707   7.214  0.5986  0.9441 -1.0829
  129OSM   H11T13865   6.660   5.667   7.100  0.1271 -0.4464 -0.4570
  129OSM   C12S13866   6.639   5.504   7.239  0.3435  0.4007  0.1763
  129OSM   H12S13867   6.689   5.432   7.171 -0.3690 -1.9231  1.9494
  129OSM   H12T13868   6.551   5.443   7.271  1.9113 -2.3121 -0.3175
  129OSM   C13S13869   6.738   5.543   7.346 -0.1427  0.0664  0.2117
  129OSM   H13S13870   6.779   5.452   7.394  2.3314  1.1291  0.2806
  129OSM   H13T13871   6.679   5.599   7.421 -1.0936  0.4638 -0.8095
  129OSM   C14S13872   6.858   5.627   7.297  0.1295  0.0374 -0.4479
  129OSM   H14S13873   6.817   5.695   7.219  0.3769 -0.2836 -0.8555
  129OSM   H14T13874   6.941   5.568   7.253 -1.1123 -2.4107  0.3248
  129OSM   C15S13875   6.925   5.717   7.410  0.7766  0.5118  0.2524
  129OSM   H15S13876   6.933   5.661   7.505 -0.5002  0.3182  0.2633
  129OSM   H15T13877   6.878   5.816   7.424 -0.4854  0.1889 -1.3583
  129OSM   C16S13878   7.080   5.755   7.382  0.5816  0.3200  0.0215
  129OSM   H16S13879   7.067   5.840   7.312 -1.9217 -0.8305 -1.0372
  129OSM   H16T13880   7.141   5.673   7.336 -0.0707  0.2664 -0.7648
  129OSM   C17S13881   7.150   5.795   7.507  0.5009 -0.0333  0.4037
  129OSM   H17S13882   7.133   5.723   7.590 -0.9440  0.2410  0.3811
  129OSM   H17T13883   7.087   5.881   7.541 -0.7194 -1.5740  2.2859
  129OSM   C18S13884   7.295   5.830   7.513 -0.8960  0.7299  0.6238
  129OSM   H18S13885   7.358   5.741   7.492 -1.6114  0.4518 -0.4087
  129OSM   H18T13886   7.327   5.876   7.609 -0.9817  1.7107  0.1942
  129OSM   H18U13887   7.320   5.906   7.436  2.3065  1.4251  2.1788
  129OSM    C1F13888   6.076   5.958   6.721  0.1607 -0.4183 -0.8694
  129OSM     OF13889   5.967   5.920   6.694 -0.1996  0.6752  0.7069
  129OSM    C2F13890   6.112   5.995   6.861 -0.1478  0.9194  0.1784
  129OSM    H2F13891   6.192   6.072   6.865 -0.7456  1.5833 -0.2545
  129OSM    H2G13892   6.154   5.902   6.904  2.6863  1.9402 -0.1553
  129OSM    C3F13893   5.987   6.039   6.939  0.4550  0.2053 -0.0581
  129OSM    H3F13894   5.901   5.970   6.926 -0.7209  1.4899  0.7265
  129OSM    H3G13895   5.962   6.140   6.902  3.4086  0.8832 -0.4932
  129OSM    C4F13896   6.019   6.045   7.094 -0.1196  0.1561  0.3967
  129OSM    H4F13897   6.106   6.111   7.111 -0.3110  0.4314  0.3316
  129OSM    H4G13898   6.052   5.941   7.116  1.1768  0.7276  1.2297
  129OSM    C5F13899   5.892   6.077   7.171 -0.2753  0.0863 -0.0185
  129OSM    H5F13900   5.797   6.061   7.116 -1.0492 -0.5559  1.4357
  129OSM    H5G13901   5.897   6.188   7.181  0.6262 -0.0501  1.3682
  129OSM    C6F13902   5.892   6.025   7.318  0.2159 -0.1920 -0.2195
  129OSM    H6F13903   5.894   5.914   7.325 -0.8188 -0.1215  2.3789
  129OSM    H6G13904   5.792   6.049   7.362  0.0939 -1.5783  0.2965
  129OSM    C7F13905   6.009   6.075   7.402 -0.1981  0.2622 -0.9131
  129OSM    H7F13906   6.017   6.186   7.401  0.1083  0.2519 -0.2695
  129OSM    H7G13907   6.097   6.044   7.343 -0.7966 -2.4689 -0.5036
  129OSM    C8F13908   6.016   6.018   7.541  0.0388 -0.5759 -0.5086
  129OSM    H8F13909   6.119   6.020   7.582  0.7567 -2.0454 -2.1006
  129OSM    H8G13910   6.015   5.907   7.532 -0.8866 -0.4368 -2.5656
  129OSM    C9F13911   5.911   6.058   7.640 -0.7914  0.1704 -0.2616
  129OSM    H9F13912   5.921   6.166   7.659  0.5752  0.0288 -0.0905
  129OSM   C10F13913   5.835   5.973   7.717 -0.0158 -0.5623  0.4690
  129OSM   H10F13914   5.752   6.018   7.775 -0.0745 -1.2933  0.9683
  129OSM   C11F13915   5.831   5.821   7.704 -0.4653 -0.5237  0.0213
  129OSM   H11F13916   5.837   5.797   7.596 -1.6043  0.7510 -0.3588
  129OSM   H11G13917   5.738   5.779   7.746 -1.2487  0.0573 -1.0804
  129OSM   C12F13918   5.949   5.760   7.786  0.3684 -0.0931 -0.1898
  129OSM   H12F13919   5.943   5.810   7.885 -1.5206  0.7922 -0.7029
  129OSM   H12G13920   6.045   5.784   7.736  0.4252  1.0481  0.4317
  129OSM   C13F13921   5.957   5.607   7.809 -0.2015 -1.2466 -0.3482
  129OSM   H13F13922   6.056   5.581   7.851 -1.2112 -1.5106  2.0191
  129OSM   H13G13923   5.942   5.548   7.716 -2.0009 -0.5315 -0.5550
  129OSM   C14F13924   5.858   5.548   7.905  0.0400  0.1564 -0.1429
  129OSM   H14F13925   5.862   5.437   7.906 -0.7843  0.1200  0.2715
  129OSM   H14G13926   5.752   5.576   7.889 -0.2176  0.1987  1.4193
  129OSM   C15F13927   5.885   5.605   8.045  0.2646 -0.0412 -0.5677
  129OSM   H15F13928   5.835   5.704   8.055 -1.1962 -0.3715 -3.6824
  129OSM   H15G13929   5.995   5.610   8.060 -0.0124  1.4267  1.4780
  129OSM   C16F13930   5.827   5.508   8.157 -0.2744  0.3703  0.3880
  129OSM   H16F13931   5.878   5.410   8.145  0.1047  0.2946  2.3502
  129OSM   H16G13932   5.720   5.494   8.131 -0.1582  1.3926 -0.7378
  129OSM   C17F13933   5.835   5.545   8.301 -0.3149 -0.0717 -0.4496
  129OSM   H17F13934   5.771   5.633   8.320 -2.0016 -1.5021  0.9067
  129OSM   H17G13935   5.943   5.565   8.320  0.1045 -2.0558 -0.5006
  129OSM   C18F13936   5.796   5.438   8.402  0.4425 -0.2712  0.0263
  129OSM   H18F13937   5.688   5.430   8.430 -0.0894  1.6387 -1.2754
  129OSM   H18G13938   5.844   5.466   8.498  0.8142  3.4498 -1.0821
  129OSM   H18H13939   5.823   5.332   8.385 -0.2975 -0.9023  2.4257
  130OSM      N13940   2.901   2.369   6.063  0.0604  0.2205 -0.2934
  130OSM    C1513941   2.888   2.227   6.015 -0.1014 -0.0535 -0.2126
  130OSM   H15A13942   2.973   2.167   6.044 -0.2353  0.5074  1.4918
  130OSM   H15B13943   2.887   2.225   5.907 -0.3680 -0.7021 -0.1993
  130OSM   H15C13944   2.789   2.187   6.033  0.1633 -1.0096 -0.8054
  130OSM    C1413945   2.990   2.446   5.970  0.3377  0.4846  0.4192
  130OSM   H14A13946   3.089   2.404   5.959  0.7981  2.1396 -2.6017
  130OSM   H14B13947   2.993   2.548   6.004 -0.0243 -0.3683  3.2828
  130OSM   H14C13948   2.946   2.453   5.872 -0.1626  2.5889  0.7386
  130OSM    C1313949   2.780   2.441   6.065  0.5074 -0.0552 -0.2020
  130OSM   H13A13950   2.740   2.454   5.965 -1.3401  0.8751  0.6171
  130OSM   H13B13951   2.782   2.540   6.107 -2.9759  0.4938 -1.0798
  130OSM   H13C13952   2.702   2.386   6.114 -1.5943  0.2682 -2.9422
  130OSM    C1213953   2.959   2.374   6.206  1.0302  0.3428  0.4622
  130OSM   H12A13954   2.910   2.297   6.263  0.6959 -0.9692 -1.5006
  130OSM   H12B13955   2.925   2.470   6.241 -2.3001 -0.1992 -0.8759
  130OSM    C1113956   3.112   2.359   6.230  0.4379 -0.1449  1.0085
  130OSM   H11A13957   3.135   2.364   6.339 -0.0644 -1.1215  1.1690
  130OSM   H11B13958   3.159   2.450   6.188  0.3016  0.2962  1.7970
  130OSM      P13959   3.171   2.090   6.225 -0.1217  0.0245 -0.1796
  130OSM    O1313960   3.101   1.993   6.137 -0.2556 -0.3094  0.1733
  130OSM    O1413961   3.305   2.057   6.272  0.7253 -0.3806 -0.7759
  130OSM    O1113962   3.081   2.102   6.352  0.6914  0.2382  0.4955
  130OSM    O1213963   3.162   2.241   6.163  0.1622  0.1782  1.0097
  130OSM    C1S13964   3.054   1.988   6.426 -0.5572  0.8822  0.4062
  130OSM    H1S13965   3.137   1.914   6.428  1.4933  2.9184 -1.8885
  130OSM    H1T13966   2.955   1.953   6.390 -0.3359  0.0936  0.5368
  130OSM     NF13967   3.025   1.912   6.658 -0.2981  0.0336  0.6004
  130OSM    HNF13968   2.937   1.871   6.680 -1.4207  2.4588  1.0087
  130OSM    C2S13969   3.031   2.028   6.572  0.6490  0.0957  0.3929
  130OSM    H2S13970   3.111   2.091   6.617  1.3926 -0.7149  0.2304
  130OSM    C3S13971   2.895   2.108   6.581 -0.6712  0.7684 -0.4918
  130OSM    H3S13972   2.821   2.044   6.528 -0.9121 -0.3871  1.1507
  130OSM     O313973   2.900   2.235   6.508  0.4601  0.3857 -0.2020
  130OSM    HO313974   2.975   2.212   6.452  2.1214  2.4141  1.0615
  130OSM    C4S13975   2.863   2.127   6.731  0.2084  0.0050  0.4443
  130OSM    H4S13976   2.802   2.044   6.770  2.1327 -1.5238  0.3901
  130OSM    C5S13977   2.910   2.223   6.810  0.6711 -0.3476 -0.1596
  130OSM    H5S13978   2.975   2.300   6.765  1.1453 -0.2164  0.7145
  130OSM    C6S13979   2.895   2.233   6.960  0.2436 -0.1468  0.4522
  130OSM    H6S13980   2.803   2.282   6.997 -0.8638 -1.9713  0.2242
  130OSM    H6T13981   2.987   2.284   6.997  0.7374 -0.6098 -0.1008
  130OSM    C7S13982   2.886   2.106   7.047  0.3506 -0.3013  0.1221
  130OSM    H7S13983   2.983   2.062   7.018  0.9648  2.5116 -2.6468
  130OSM    H7T13984   2.798   2.046   7.015  0.5833  0.0466 -1.2151
  130OSM    C8S13985   2.882   2.138   7.194  0.1872  0.8316  0.4176
  130OSM    H8S13986   2.874   2.042   7.250  0.4680  0.1720 -0.6349
  130OSM    H8T13987   2.782   2.182   7.213  0.4145  1.4752  0.1229
  130OSM    C9S13988   2.995   2.217   7.253  0.1748 -0.5297  0.0385
  130OSM    H9S13989   2.995   2.318   7.207  0.9191 -0.3704  0.3667
  130OSM    H9T13990   3.097   2.174   7.236  1.3797  2.1219  0.0495
  130OSM   C10S13991   2.980   2.222   7.405 -0.0207 -0.5912  0.1332
  130OSM   H10S13992   2.999   2.125   7.455  0.9453 -0.7042 -0.4278
  130OSM   H10T13993   2.874   2.249   7.427 -0.3369 -1.9314  0.3156
  130OSM   C11S13994   3.084   2.318   7.464  0.0721 -0.6540 -0.0765
  130OSM   H11S13995   3.060   2.425   7.444 -0.3006 -0.7753 -0.2813
  130OSM   H11T13996   3.183   2.288   7.424  0.6519  0.2882  0.5912
  130OSM   C12S13997   3.086   2.306   7.617  0.6071 -0.2921  0.1869
  130OSM   H12S13998   3.101   2.201   7.650 -0.0441 -0.3891  0.1977
  130OSM   H12T13999   2.994   2.348   7.662  1.0069 -0.8656  1.5850
  130OSM   C13S14000   3.200   2.389   7.676 -0.1736 -0.3980  0.1171
  130OSM   H13S14001   3.194   2.494   7.639  0.0123 -1.3291 -2.7813
  130OSM   H13T14002   3.291   2.355   7.621  0.8313  1.6752  0.3765
  130OSM   C14S14003   3.231   2.388   7.823 -0.3862 -0.1134  0.2851
  130OSM   H14S14004   3.333   2.431   7.827  0.3782 -1.4643 -2.2856
  130OSM   H14T14005   3.231   2.291   7.877 -1.7301 -2.0131 -2.8092
  130OSM   C15S14006   3.139   2.480   7.901 -0.1292  0.6027 -0.2391
  130OSM   H15S14007   3.036   2.440   7.895  0.7514 -1.9756  0.4117
  130OSM   H15T14008   3.132   2.580   7.851 -1.5578  1.0996  0.8960
  130OSM   C16S14009   3.177   2.485   8.050 -0.5208 -1.0642 -0.9739
  130OSM   H16S14010   3.286   2.504   8.058 -0.3139 -2.3044 -0.6789
  130OSM   H16T14011   3.161   2.383   8.091 -0.1967 -1.0378 -0.7792
  130OSM   C17S14012   3.102   2.580   8.144 -0.0038  0.6405 -0.5097
  130OSM   H17S14013   2.991   2.583   8.142 -0.0944  0.1485  1.6872
  130OSM   H17T14014   3.114   2.684   8.106 -2.7559  1.4560  0.6366
  130OSM   C18S14015   3.149   2.570   8.288  0.2637 -0.3961 -0.4621
  130OSM   H18S14016   3.098   2.650   8.346 -0.6595  1.3493 -3.4298
  130OSM   H18T14017   3.256   2.595   8.279  0.3486 -0.9830 -1.1771
  130OSM   H18U14018   3.132   2.466   8.323  0.4100 -0.9383 -1.9054
  130OSM    C1F14019   3.137   1.857   6.707  0.4471  0.2642 -0.2943
  130OSM     OF14020   3.247   1.873   6.658 -0.0636  0.9283 -0.5375
  130OSM    C2F14021   3.124   1.753   6.814 -0.2922  0.2906 -0.5104
  130OSM    H2F14022   3.119   1.650   6.771 -1.8136  0.4598 -0.8015
  130OSM    H2G14023   3.028   1.766   6.869 -0.1802  2.4586 -0.7459
  130OSM    C3F14024   3.246   1.750   6.909 -0.1552 -0.0176 -0.3782
  130OSM    H3F14025   3.243   1.840   6.973 -1.4922  0.6739 -1.3476
  130OSM    H3G14026   3.345   1.746   6.858  0.6310 -2.6254  1.1961
  130OSM    C4F14027   3.252   1.627   6.996 -0.1119  0.6086  0.8249
  130OSM    H4F14028   3.353   1.617   7.042 -0.3218 -0.8801  1.0116
  130OSM    H4G14029   3.254   1.536   6.933  1.0366 -0.2477  2.0530
  130OSM    C5F14030   3.137   1.622   7.096 -0.2455  0.7688  0.5437
  130OSM    H5F14031   3.165   1.532   7.154 -2.5159  0.6120  1.5182
  130OSM    H5G14032   3.050   1.586   7.037  2.2494 -1.9001 -1.8385
  130OSM    C6F14033   3.112   1.745   7.178 -0.8917  0.2583  1.2235
  130OSM    H6F14034   3.052   1.806   7.108 -0.1288  0.0742  0.3955
  130OSM    H6G14035   3.203   1.805   7.198 -0.4890 -0.0295  0.3127
  130OSM    C7F14036   3.037   1.719   7.313  0.0386 -0.8746  1.0747
  130OSM    H7F14037   2.954   1.647   7.299 -0.4315 -0.1656  0.1038
  130OSM    H7G14038   2.989   1.815   7.342 -0.8562 -1.2380  0.8052
  130OSM    C8F14039   3.133   1.666   7.430  0.6243 -0.1004  0.0011
  130OSM    H8F14040   3.215   1.739   7.443  1.3534 -1.0482  0.8700
  130OSM    H8G14041   3.181   1.577   7.385  0.5489 -0.3894  0.4938
  130OSM    C9F14042   3.076   1.625   7.569  0.0970 -0.2472  0.1811
  130OSM    H9F14043   3.113   1.523   7.590  1.4968  0.3862  0.8915
  130OSM   C10F14044   2.996   1.705   7.646 -0.0830  0.3744  0.2158
  130OSM   H10F14045   2.962   1.662   7.741 -0.1701 -2.5966 -1.0607
  130OSM   C11F14046   2.954   1.850   7.620  0.1867 -0.9145  0.1453
  130OSM   H11F14047   2.859   1.877   7.569  0.4215 -0.9620 -0.3295
  130OSM   H11G14048   3.028   1.906   7.559 -4.0406  1.8857 -2.9421
  130OSM   C12F14049   2.947   1.933   7.749 -1.1875  0.7503 -0.4290
  130OSM   H12F14050   3.050   1.973   7.764 -0.6083 -0.3876 -1.2164
  130OSM   H12G14051   2.922   1.868   7.835  1.7272 -1.8812 -1.3925
  130OSM   C13F14052   2.846   2.052   7.739 -0.0797 -0.0277 -0.1159
  130OSM   H13F14053   2.744   2.010   7.737  0.8014 -2.4376 -2.9476
  130OSM   H13G14054   2.863   2.098   7.639 -0.3524  1.3076  0.4392
  130OSM   C14F14055   2.874   2.162   7.838 -0.4652  0.2071  0.5399
  130OSM   H14F14056   2.808   2.245   7.807 -0.2718  0.0595 -0.2834
  130OSM   H14G14057   2.980   2.194   7.831 -0.3072 -0.4411 -0.1264
  130OSM   C15F14058   2.832   2.121   7.973  0.2309  0.0791 -1.3259
  130OSM   H15F14059   2.892   2.031   7.999 -0.9419 -0.3188  0.1116
  130OSM   H15G14060   2.723   2.096   7.971  0.4733 -1.1188 -0.4737
  130OSM   C16F14061   2.850   2.235   8.073 -0.2956  0.9395  0.2003
  130OSM   H16F14062   2.789   2.326   8.056 -0.2187  0.8209 -0.7998
  130OSM   H16G14063   2.957   2.264   8.063 -0.6617  2.0091 -0.8828
  130OSM   C17F14064   2.819   2.180   8.218 -0.6447 -0.6405  0.2205
  130OSM   H17F14065   2.908   2.118   8.238 -0.8271 -0.9378  0.1189
  130OSM   H17G14066   2.722   2.127   8.211 -1.1317 -0.0223  1.9526
  130OSM   C18F14067   2.823   2.290   8.320  0.5384  0.0872  0.4972
  130OSM   H18F14068   2.735   2.354   8.305  0.0930 -0.9900 -1.9357
  130OSM   H18G14069   2.917   2.348   8.312  0.0482  0.9214  0.7714
  130OSM   H18H14070   2.814   2.257   8.426  0.0872  0.4980  0.5863
  131OSM      N14071   1.875   4.272   6.020  0.8498  0.1096  0.2748
  131OSM    C1514072   1.994   4.335   5.963  0.1127 -0.4991  0.0407
  131OSM   H15A14073   1.958   4.390   5.877 -1.4608 -0.2812  0.8182
  131OSM   H15B14074   2.068   4.269   5.919  0.1320 -1.3187  1.2677
  131OSM   H15C14075   2.043   4.403   6.031 -0.9475  0.3768 -0.0459
  131OSM    C1414076   1.786   4.363   6.101 -0.0719  0.1474 -0.1197
  131OSM   H14A14077   1.753   4.447   6.043  3.9084  1.8050 -0.2544
  131OSM   H14B14078   1.842   4.401   6.185 -1.1628  1.3530  0.0973
  131OSM   H14C14079   1.698   4.307   6.131 -0.4559  1.2133  0.8161
  131OSM    C1314080   1.789   4.210   5.906 -0.3650  0.2477 -0.1848
  131OSM   H13A14081   1.759   4.284   5.833  0.9104  1.6103  0.6187
  131OSM   H13B14082   1.707   4.148   5.940 -1.3100  0.3068 -2.2118
  131OSM   H13C14083   1.848   4.135   5.857 -0.2731  0.7958 -0.9358
  131OSM    C1214084   1.928   4.168   6.116 -0.5987  0.0243  0.4619
  131OSM   H12A14085   1.967   4.227   6.198  1.7532 -2.1089  1.0001
  131OSM   H12B14086   2.008   4.112   6.070  0.4796  0.9950  1.1094
  131OSM    C1114087   1.831   4.060   6.174 -0.0863 -1.0217  0.1974
  131OSM   H11A14088   1.887   4.019   6.260  1.2675  2.2327  1.0156
  131OSM   H11B14089   1.826   3.977   6.100  1.5913 -2.8657  2.0163
  131OSM      P14090   1.572   4.026   6.160  0.4254 -0.0437 -0.1052
  131OSM    O1314091   1.452   4.110   6.178  0.2208 -0.4898  0.5025
  131OSM    O1414092   1.597   3.977   6.022 -0.0662  0.3723  0.0723
  131OSM    O1114093   1.568   3.903   6.267  0.2404 -0.5143  0.1385
  131OSM    O1214094   1.701   4.113   6.211 -0.4990  0.5708 -0.4435
  131OSM    C1S14095   1.503   3.938   6.396 -0.2671  0.3869  0.1475
  131OSM    H1S14096   1.392   3.939   6.397 -0.2937  0.9599  2.6357
  131OSM    H1T14097   1.541   4.032   6.442  2.6958 -1.4293  1.7442
  131OSM     NF14098   1.456   3.838   6.615 -0.1829 -0.0865 -0.5177
  131OSM    HNF14099   1.496   3.893   6.688  2.1235 -0.7185 -1.2424
  131OSM    C2S14100   1.540   3.825   6.495  0.9893  0.2343  0.4961
  131OSM    H2S14101   1.522   3.727   6.446  0.5634 -0.2252  1.5587
  131OSM    C3S14102   1.694   3.820   6.533 -0.0823  0.1338  0.1972
  131OSM    H3S14103   1.729   3.918   6.573  0.3837  0.2325 -0.4415
  131OSM     O314104   1.767   3.803   6.409 -0.0285 -0.1492 -0.2972
  131OSM    HO314105   1.697   3.825   6.347 -0.6252  0.2440  0.4903
  131OSM    C4S14106   1.725   3.708   6.626  0.3962 -0.1042  0.5150
  131OSM    H4S14107   1.704   3.733   6.730  2.2060  0.9711  0.6671
  131OSM    C5S14108   1.785   3.589   6.608  0.2747 -0.3122 -0.2242
  131OSM    H5S14109   1.822   3.574   6.506  1.8496  1.1709  0.0878
  131OSM    C6S14110   1.805   3.490   6.715  0.2888  0.5318  0.1981
  131OSM    H6S14111   1.913   3.463   6.710 -0.1808 -1.4160 -0.4256
  131OSM    H6T14112   1.736   3.411   6.681 -0.6568  0.7210  1.6043
  131OSM    C7S14113   1.760   3.524   6.863 -0.2817 -0.3126  0.0815
  131OSM    H7S14114   1.653   3.550   6.857 -0.3032 -0.4869 -0.3061
  131OSM    H7T14115   1.816   3.609   6.909 -1.4451  0.6120 -0.1704
  131OSM    C8S14116   1.757   3.405   6.951  0.0041 -0.4624 -0.0305
  131OSM    H8S14117   1.860   3.379   6.982  0.6630  1.3086 -0.6224
  131OSM    H8T14118   1.709   3.312   6.914 -0.1456 -0.2710 -0.3281
  131OSM    C9S14119   1.691   3.428   7.088 -0.0125 -0.4983  0.0537
  131OSM    H9S14120   1.582   3.428   7.066 -0.3004 -1.6694  1.2861
  131OSM    H9T14121   1.716   3.525   7.135 -1.8558 -0.5612  1.3169
  131OSM   C10S14122   1.720   3.312   7.184 -0.2200  0.1651 -0.1898
  131OSM   H10S14123   1.827   3.312   7.215 -0.8496 -0.4104  2.2205
  131OSM   H10T14124   1.688   3.217   7.136 -2.6849  0.1562  1.2855
  131OSM   C11S14125   1.630   3.315   7.310 -0.2531  0.3004  0.7110
  131OSM   H11S14126   1.627   3.214   7.358  0.6948 -0.6138 -1.0325
  131OSM   H11T14127   1.526   3.336   7.276  0.6715 -1.2721 -3.8419
  131OSM   C12S14128   1.669   3.424   7.405  0.1158  0.0448 -0.4702
  131OSM   H12S14129   1.661   3.518   7.347  0.0711  0.2909 -0.0696
  131OSM   H12T14130   1.776   3.414   7.433  0.6305  3.0084 -1.1124
  131OSM   C13S14131   1.574   3.420   7.520  0.1573  0.5880 -0.5321
  131OSM   H13S14132   1.567   3.312   7.548 -2.1401  0.6623 -0.5721
  131OSM   H13T14133   1.473   3.448   7.482 -1.0286 -0.2732  1.7727
  131OSM   C14S14134   1.619   3.508   7.644  0.4007  0.7131 -0.1446
  131OSM   H14S14135   1.623   3.612   7.607  0.5585  0.6499 -0.3123
  131OSM   H14T14136   1.720   3.467   7.666 -0.2474 -1.1441 -0.4010
  131OSM   C15S14137   1.538   3.493   7.775 -0.3489 -0.0579  0.2785
  131OSM   H15S14138   1.429   3.483   7.758  0.0311 -1.3358 -1.7367
  131OSM   H15T14139   1.563   3.576   7.846 -0.9777  0.2256  0.1729
  131OSM   C16S14140   1.585   3.364   7.849 -0.0630 -0.6816 -0.9780
  131OSM   H16S14141   1.692   3.371   7.876  0.0570  0.1980 -1.6163
  131OSM   H16T14142   1.574   3.279   7.777  1.6905 -1.4681 -0.3614
  131OSM   C17S14143   1.506   3.333   7.978  0.3673 -0.5518  0.3520
  131OSM   H17S14144   1.397   3.324   7.960 -0.2417  2.2972  2.0768
  131OSM   H17T14145   1.528   3.422   8.041 -0.8343  0.7288 -0.9747
  131OSM   C18S14146   1.548   3.202   8.033 -0.4473 -0.1926 -0.5416
  131OSM   H18S14147   1.565   3.133   7.947  0.0677  0.3640 -0.9074
  131OSM   H18T14148   1.468   3.163   8.099  2.3316 -0.7641  2.7632
  131OSM   H18U14149   1.643   3.212   8.089 -0.9345  0.1012  0.2397
  131OSM    C1F14150   1.327   3.803   6.615  0.3549 -0.5980  0.1457
  131OSM     OF14151   1.298   3.711   6.541  0.3775  0.3637 -0.1856
  131OSM    C2F14152   1.237   3.882   6.706  0.8000 -0.0619  0.8220
  131OSM    H2F14153   1.134   3.868   6.667  1.0053  2.2735 -0.7100
  131OSM    H2G14154   1.259   3.990   6.699 -0.7708  0.3928  2.1841
  131OSM    C3F14155   1.260   3.843   6.849  0.2344 -0.2913 -0.9738
  131OSM    H3F14156   1.192   3.902   6.914  1.7559  0.3549  0.0905
  131OSM    H3G14157   1.364   3.870   6.878  0.8494 -0.4288 -2.8931
  131OSM    C4F14158   1.235   3.694   6.866 -0.2737 -0.1709 -0.1298
  131OSM    H4F14159   1.314   3.633   6.817 -0.5345 -1.0752  0.5407
  131OSM    H4G14160   1.135   3.672   6.823  1.1481 -1.6442 -2.9948
  131OSM    C5F14161   1.234   3.646   7.017 -0.3346 -0.0991  0.6138
  131OSM    H5F14162   1.216   3.537   7.003 -1.6112  0.0249  1.0772
  131OSM    H5G14163   1.144   3.678   7.074  0.7080  1.1353  1.6417
  131OSM    C6F14164   1.366   3.683   7.085 -0.6597 -0.2553 -0.2338
  131OSM    H6F14165   1.382   3.793   7.087  1.4670 -0.5136  1.2841
  131OSM    H6G14166   1.450   3.647   7.022 -2.1196 -1.0972 -1.7375
  131OSM    C7F14167   1.388   3.637   7.227 -0.1794  0.5947  0.0940
  131OSM    H7F14168   1.490   3.667   7.259 -0.2958  0.2140  0.8419
  131OSM    H7G14169   1.376   3.527   7.235 -0.0949  0.5092 -0.8402
  131OSM    C8F14170   1.297   3.710   7.333  0.0585  0.0088 -0.4558
  131OSM    H8F14171   1.271   3.811   7.296 -2.5096  0.2115  1.6011
  131OSM    H8G14172   1.358   3.720   7.426 -0.3153 -1.4432 -0.0290
  131OSM    C9F14173   1.179   3.620   7.367  0.1086 -0.7452 -0.3250
  131OSM    H9F14174   1.126   3.591   7.275 -2.0684  1.1247  0.2314
  131OSM   C10F14175   1.139   3.565   7.483  0.1224 -0.4133 -0.2702
  131OSM   H10F14176   1.057   3.493   7.469 -0.8034  0.9917 -3.0230
  131OSM   C11F14177   1.200   3.578   7.622  0.3613  0.7573 -0.3076
  131OSM   H11F14178   1.188   3.683   7.658  0.0437  1.1168 -1.4148
  131OSM   H11G14179   1.309   3.565   7.606  0.2680  1.5085 -1.6657
  131OSM   C12F14180   1.137   3.484   7.727  0.1752  0.2399 -0.9200
  131OSM   H12F14181   1.195   3.489   7.822  3.1316 -1.8240 -2.4593
  131OSM   H12G14182   1.142   3.377   7.699  1.8111 -0.1003  0.5058
  131OSM   C13F14183   0.986   3.523   7.764 -0.6022 -0.6629  0.1258
  131OSM   H13F14184   0.917   3.509   7.677 -0.6195  0.7884 -0.1275
  131OSM   H13G14185   1.003   3.630   7.790  1.6874 -1.1238  0.6604
  131OSM   C14F14186   0.936   3.450   7.890 -0.3144  0.2104 -0.6013
  131OSM   H14F14187   0.943   3.340   7.878 -0.4009  0.1498 -0.1197
  131OSM   H14G14188   0.827   3.467   7.877 -0.9030 -2.1210  0.6064
  131OSM   C15F14189   0.997   3.506   8.021  0.8592  0.0589 -0.1037
  131OSM   H15F14190   1.012   3.616   8.020  0.8391  0.0611 -0.6919
  131OSM   H15G14191   1.095   3.454   8.031 -0.7019 -3.5398 -1.6748
  131OSM   C16F14192   0.917   3.491   8.151  0.4215  0.5793 -0.4547
  131OSM   H16F14193   0.895   3.383   8.168  1.4566  0.6003  1.2730
  131OSM   H16G14194   0.822   3.545   8.131  0.7178  0.6102 -1.8949
  131OSM   C17F14195   0.982   3.548   8.276  0.3362 -0.1705 -0.1434
  131OSM   H17F14196   0.906   3.578   8.351 -0.4153  1.0893 -1.3643
  131OSM   H17G14197   1.026   3.648   8.261 -2.2056  0.8480 -1.4141
  131OSM   C18F14198   1.080   3.453   8.354 -0.5064  0.1855  0.6783
  131OSM   H18F14199   1.017   3.368   8.388 -0.5970 -0.6018 -1.3163
  131OSM   H18G14200   1.117   3.512   8.440  2.9949  0.3292 -0.7513
  131OSM   H18H14201   1.170   3.428   8.294  0.1123 -0.7700  1.9544
  132OSM      N14202   5.007   4.409   5.982 -0.3269 -0.3624 -0.5181
  132OSM    C1514203   5.122   4.361   5.908 -0.2104 -0.0243  0.1134
  132OSM   H15A14204   5.169   4.275   5.953  0.4433  0.2752  0.0079
  132OSM   H15B14205   5.199   4.436   5.900 -1.3603  1.1921 -0.0348
  132OSM   H15C14206   5.094   4.334   5.808 -1.3591  0.8106  0.1889
  132OSM    C1414207   4.928   4.498   5.896  0.5594  0.0430  0.7323
  132OSM   H14A14208   4.980   4.586   5.863 -0.0683  0.9841  2.1998
  132OSM   H14B14209   4.842   4.535   5.950  2.2919  2.6822  1.8398
  132OSM   H14C14210   4.896   4.461   5.799  0.0186  0.0806  0.8924
  132OSM    C1314211   4.927   4.286   6.021  0.3323 -0.0898  0.0156
  132OSM   H13A14212   4.960   4.228   6.106  2.4701 -1.7331 -1.8181
  132OSM   H13B14213   4.925   4.216   5.938 -0.7485  1.9762 -1.8051
  132OSM   H13C14214   4.825   4.312   6.043  0.8264  1.7319  0.3165
  132OSM    C1214215   5.053   4.479   6.112  0.2065 -0.2103 -0.8327
  132OSM   H12A14216   4.974   4.503   6.183  1.4536  2.4294 -0.2313
  132OSM   H12B14217   5.087   4.573   6.072  0.3426 -0.7329 -1.9808
  132OSM    C1114218   5.160   4.406   6.194 -0.3787 -0.5198 -0.6085
  132OSM   H11A14219   5.190   4.469   6.280  0.0069 -0.7014 -0.6080
  132OSM   H11B14220   5.247   4.404   6.124 -1.1153  1.5810 -1.6550
  132OSM      P14221   5.202   4.152   6.199 -0.0116  0.1842 -0.3314
  132OSM    O1314222   5.113   4.060   6.124 -0.5616  0.8875 -0.2937
  132OSM    O1414223   5.330   4.188   6.133  0.1366 -0.5030  0.2695
  132OSM    O1114224   5.235   4.093   6.339  0.5271  0.5971  0.1925
  132OSM    O1214225   5.118   4.280   6.233 -0.9940  0.7044 -0.0316
  132OSM    C1S14226   5.276   4.172   6.449  0.5255 -0.8254  0.3668
  132OSM    H1S14227   5.199   4.246   6.480  1.5449  0.4364 -0.0134
  132OSM    H1T14228   5.357   4.241   6.416 -1.5729  0.5704 -2.2645
  132OSM     NF14229   5.323   4.177   6.703  0.5923  0.1268  0.6650
  132OSM    HNF14230   5.414   4.214   6.720  0.8631 -0.1476 -0.1218
  132OSM    C2S14231   5.310   4.089   6.582  0.4919 -0.1593 -1.0679
  132OSM    H2S14232   5.225   4.018   6.591 -1.2555  2.0607  1.3868
  132OSM    C3S14233   5.437   4.000   6.553  0.8963 -0.1326 -0.3825
  132OSM    H3S14234   5.528   4.063   6.547  0.0895  1.3293  1.5837
  132OSM     O314235   5.423   3.930   6.434 -0.1829 -0.7271  0.0278
  132OSM    HO314236   5.353   3.973   6.386 -2.3545 -2.6222  1.2763
  132OSM    C4S14237   5.467   3.908   6.672 -0.0556  0.1511  0.6193
  132OSM    H4S14238   5.396   3.829   6.699  0.9271 -1.2761 -0.8516
  132OSM    C5S14239   5.576   3.917   6.752 -0.0218  0.6873 -0.1707
  132OSM    H5S14240   5.644   3.998   6.721 -2.5326  2.4968 -1.3762
  132OSM    C6S14241   5.607   3.830   6.877  0.1792  0.1629  0.1733
  132OSM    H6S14242   5.708   3.785   6.868 -0.6936 -1.6994 -1.1187
  132OSM    H6T14243   5.540   3.741   6.884  0.5813 -0.1430  0.1636
  132OSM    C7S14244   5.608   3.916   7.005  0.3925  0.9006  1.1848
  132OSM    H7S14245   5.503   3.937   7.036  0.1673 -0.2065  1.1926
  132OSM    H7T14246   5.662   4.012   6.989 -1.2208  2.0174  2.1515
  132OSM    C8S14247   5.668   3.846   7.121  0.1660  0.1709  0.2859
  132OSM    H8S14248   5.778   3.840   7.105 -0.0430 -1.5760 -0.7325
  132OSM    H8T14249   5.655   3.737   7.136  0.2318  0.4863  3.3340
  132OSM    C9S14250   5.636   3.918   7.249 -0.1000  1.1843  0.1917
  132OSM    H9S14251   5.531   3.884   7.263 -0.1784  0.8697 -0.9920
  132OSM    H9T14252   5.643   4.024   7.214 -0.1710  1.6922  1.6484
  132OSM   C10S14253   5.735   3.882   7.362  0.6009  0.0055 -0.3216
  132OSM   H10S14254   5.836   3.917   7.331 -0.2418  1.7687 -1.2486
  132OSM   H10T14255   5.746   3.772   7.371  0.1876  0.0745  1.3993
  132OSM   C11S14256   5.679   3.932   7.492 -0.4402 -0.7761 -0.6229
  132OSM   H11S14257   5.605   4.012   7.468  0.1479 -0.1141 -0.2633
  132OSM   H11T14258   5.765   3.974   7.548  0.2357 -0.7525 -1.6559
  132OSM   C12S14259   5.612   3.823   7.583  0.1483 -0.3070  1.2352
  132OSM   H12S14260   5.676   3.734   7.598  3.2046  1.5951  0.3780
  132OSM   H12T14261   5.517   3.794   7.534  1.6731 -1.2648 -1.3900
  132OSM   C13S14262   5.562   3.884   7.724  0.1540  0.1375  0.1651
  132OSM   H13S14263   5.455   3.860   7.740 -0.4853  0.3608 -3.1035
  132OSM   H13T14264   5.566   3.995   7.724 -2.2749  0.4076 -3.6137
  132OSM   C14S14265   5.629   3.805   7.832 -0.5290  0.6435 -0.0866
  132OSM   H14S14266   5.739   3.810   7.817 -0.4128 -0.3796  0.3253
  132OSM   H14T14267   5.608   3.696   7.831  2.1517  0.0786 -1.2961
  132OSM   C15S14268   5.590   3.861   7.971  0.5443  0.2897  0.4088
  132OSM   H15S14269   5.479   3.862   7.979  0.4045  1.3919 -1.1146
  132OSM   H15T14270   5.620   3.968   7.969 -2.4830  1.2271 -0.6476
  132OSM   C16S14271   5.659   3.785   8.086 -0.2063  0.0075  0.3174
  132OSM   H16S14272   5.769   3.783   8.069 -0.2547 -3.3256 -0.2394
  132OSM   H16T14273   5.640   3.676   8.083  1.7823 -0.4286  1.6670
  132OSM   C17S14274   5.620   3.841   8.225 -0.0523  0.1585 -0.4539
  132OSM   H17S14275   5.656   3.946   8.232  0.6870 -0.1154 -0.0290
  132OSM   H17T14276   5.677   3.787   8.304 -0.8256  1.6946  1.2091
  132OSM   C18S14277   5.468   3.828   8.262  0.1437 -0.3334 -0.0635
  132OSM   H18S14278   5.459   3.840   8.372  0.4276  0.8509 -0.1573
  132OSM   H18T14279   5.438   3.722   8.247 -0.9934 -0.3270  1.8518
  132OSM   H18U14280   5.404   3.895   8.201  0.3585  1.2058  1.3366
  132OSM    C1F14281   5.228   4.233   6.763 -0.7319  0.4453 -0.6700
  132OSM     OF14282   5.114   4.230   6.725  0.1082 -0.1013  0.1139
  132OSM    C2F14283   5.266   4.328   6.872 -0.2543  0.1886 -0.0192
  132OSM    H2F14284   5.349   4.390   6.834  0.1259 -1.4479 -2.0803
  132OSM    H2G14285   5.296   4.262   6.957 -1.7986 -1.2691 -0.5352
  132OSM    C3F14286   5.160   4.424   6.917  0.3327 -0.1028 -0.6959
  132OSM    H3F14287   5.064   4.370   6.928  0.5766 -0.5599 -0.7713
  132OSM    H3G14288   5.156   4.511   6.848 -1.7498  1.1168  0.8404
  132OSM    C4F14289   5.208   4.480   7.059 -0.0312 -0.1901  0.7990
  132OSM    H4F14290   5.315   4.511   7.054  0.3502 -1.5203  0.2622
  132OSM    H4G14291   5.216   4.393   7.127  1.9029  0.0225  0.9020
  132OSM    C5F14292   5.110   4.584   7.120  0.3114 -0.6465  0.3560
  132OSM    H5F14293   5.008   4.540   7.129 -0.5127  1.2205  0.6188
  132OSM    H5G14294   5.107   4.672   7.053  2.1631  0.1613  1.2777
  132OSM    C6F14295   5.153   4.641   7.256 -0.5572 -0.1606 -0.6938
  132OSM    H6F14296   5.179   4.563   7.331  2.3544  1.8490  0.5720
  132OSM    H6G14297   5.072   4.709   7.292 -1.7623 -2.1384  0.5711
  132OSM    C7F14298   5.271   4.739   7.255  0.1604  0.6359  1.1018
  132OSM    H7F14299   5.251   4.827   7.189 -0.1476  1.5738  2.3972
  132OSM    H7G14300   5.354   4.683   7.206 -1.1891 -0.2744 -0.2119
  132OSM    C8F14301   5.306   4.775   7.403 -0.7007  0.1226  0.4801
  132OSM    H8F14302   5.348   4.680   7.442 -1.8983 -1.2739 -1.4461
  132OSM    H8G14303   5.214   4.808   7.456 -0.5883 -0.7261  1.2183
  132OSM    C9F14304   5.409   4.886   7.414  0.5821  0.9282 -0.2356
  132OSM    H9F14305   5.414   4.962   7.335 -0.3585  0.4229 -0.7973
  132OSM   C10F14306   5.489   4.896   7.518  0.0605  0.4092  0.3037
  132OSM   H10F14307   5.567   4.973   7.506 -1.1134  1.8925  1.7188
  132OSM   C11F14308   5.495   4.817   7.646 -0.6546 -0.1187 -0.0615
  132OSM   H11F14309   5.407   4.750   7.653 -0.2945 -0.5103  1.0456
  132OSM   H11G14310   5.487   4.893   7.727  0.8197  0.7084 -0.6448
  132OSM   C12F14311   5.621   4.727   7.667  0.5882 -0.3479 -0.6553
  132OSM   H12F14312   5.715   4.786   7.674  0.7423 -0.6297 -0.3122
  132OSM   H12G14313   5.634   4.658   7.581  0.7114  0.7668 -1.5645
  132OSM   C13F14314   5.616   4.655   7.807  0.2412  0.4759 -1.1652
  132OSM   H13F14315   5.684   4.568   7.796  2.5692  2.2992 -2.0615
  132OSM   H13G14316   5.513   4.619   7.827  0.1827  1.4056  0.4305
  132OSM   C14F14317   5.669   4.747   7.918  0.5581 -0.6977  0.2305
  132OSM   H14F14318   5.597   4.832   7.924  0.0968 -0.9183 -1.4756
  132OSM   H14G14319   5.769   4.785   7.891  0.9070  0.4791  2.8630
  132OSM   C15F14320   5.679   4.691   8.059 -0.3308  0.4268 -0.4253
  132OSM   H15F14321   5.780   4.645   8.062  0.1945  1.2365 -2.9421
  132OSM   H15G14322   5.591   4.625   8.072 -1.1016  1.4426 -0.3618
  132OSM   C16F14323   5.694   4.798   8.172 -0.0791  0.1113 -0.0585
  132OSM   H16F14324   5.603   4.862   8.166  1.7564  2.8593 -0.5487
  132OSM   H16G14325   5.775   4.868   8.142  1.5028 -0.9048  1.6725
  132OSM   C17F14326   5.735   4.746   8.308  1.1386  0.0155 -0.5893
  132OSM   H17F14327   5.843   4.716   8.307  0.9281 -1.0133  1.6386
  132OSM   H17G14328   5.672   4.660   8.338 -0.5027  0.8854 -1.4294
  132OSM   C18F14329   5.729   4.840   8.432  0.2551  0.5000 -0.3626
  132OSM   H18F14330   5.651   4.912   8.399 -0.7768 -1.7812 -3.2777
  132OSM   H18G14331   5.826   4.891   8.451  0.2143 -0.2036  2.1209
  132OSM   H18H14332   5.710   4.781   8.525  3.4715 -0.5359 -0.2263
  133OSM      N14333   3.517   0.116   6.179 -0.3021  0.1524 -0.1987
  133OSM    C1514334   3.399   0.161   6.258 -0.0516 -0.2190 -0.1505
  133OSM   H15A14335   3.306   0.146   6.206  1.2862 -2.3873 -2.1332
  133OSM   H15B14336   3.404   0.262   6.297  0.0106 -0.7757  1.3449
  133OSM   H15C14337   3.404   0.104   6.349  0.1228  0.4921  0.2981
  133OSM    C1414338   3.503  -0.017   6.117  0.1542  0.9203 -0.4738
  133OSM   H14A14339   3.511  -0.097   6.188 -1.1054  0.7109 -0.5499
  133OSM   H14B14340   3.573  -0.039   6.038 -0.0797  0.8862 -0.6740
  133OSM   H14C14341   3.405  -0.025   6.073  0.2004 -0.2716 -0.3927
  133OSM    C1314342   3.515   0.212   6.064 -0.3175 -0.3993  0.2683
  133OSM   H13A14343   3.429   0.192   6.001  1.5302 -3.1142 -1.6033
  133OSM   H13B14344   3.603   0.192   6.004 -0.6795  2.3218 -1.3220
  133OSM   H13C14345   3.503   0.314   6.097 -3.0854 -0.8273  0.8329
  133OSM    C1214346   3.654   0.123   6.249  0.5012  0.3264 -0.4233
  133OSM   H12A14347   3.676   0.228   6.264 -1.3455  0.6079  0.6564
  133OSM   H12B14348   3.729   0.086   6.181 -1.8453 -1.2397 -2.3619
  133OSM    C1114349   3.668   0.044   6.384 -0.1498  0.2892 -0.0561
  133OSM   H11A14350   3.580   0.066   6.447 -0.3006 -1.0230  0.2332
  133OSM   H11B14351   3.746   0.085   6.451 -2.8266  2.7829  1.7589
  133OSM      P14352   3.817  -0.165   6.360 -0.0702 -0.0902  0.4146
  133OSM    O1314353   3.808  -0.302   6.318  0.0471  0.2334 -0.3870
  133OSM    O1414354   3.900  -0.069   6.279 -0.1933  0.1801  0.6217
  133OSM    O1114355   3.874  -0.161   6.509 -0.3293 -0.0484 -0.3010
  133OSM    O1214356   3.667  -0.101   6.370 -0.1552  0.0961  0.1932
  133OSM    C1S14357   3.809  -0.237   6.612 -0.1877  0.1182  0.0170
  133OSM    H1S14358   3.829  -0.346   6.600  1.4699  0.2981  0.9771
  133OSM    H1T14359   3.698  -0.236   6.624 -0.1461 -1.5664  0.9342
  133OSM     NF14360   3.808  -0.279   6.866 -0.1527 -0.1330 -0.0415
  133OSM    HNF14361   3.715  -0.263   6.896 -0.3590 -1.7274  0.2542
  133OSM    C2S14362   3.855  -0.189   6.758 -0.1932 -0.1047  0.7287
  133OSM    H2S14363   3.965  -0.193   6.772  0.1229 -3.8435 -1.4996
  133OSM    C3S14364   3.810  -0.039   6.777  0.3397  0.4891  0.2072
  133OSM    H3S14365   3.700  -0.026   6.769  0.3709  0.0421 -1.1053
  133OSM     O314366   3.843   0.046   6.671  0.3356  0.6919 -0.5638
  133OSM    HO314367   3.873  -0.019   6.607 -2.3736  0.5215 -1.7848
  133OSM    C4S14368   3.855   0.019   6.903 -0.1840 -0.2221  0.0788
  133OSM    H4S14369   3.965   0.017   6.906 -0.1908 -1.9606  0.0227
  133OSM    C5S14370   3.781   0.048   7.008  0.4170  0.2427  0.1369
  133OSM    H5S14371   3.672   0.034   7.017  0.5375 -0.6813  0.1816
  133OSM    C6S14372   3.831   0.105   7.142 -0.1195 -0.1932 -0.7586
  133OSM    H6S14373   3.765   0.191   7.169  0.9171  0.3064  0.2512
  133OSM    H6T14374   3.930   0.154   7.132 -0.3967  1.0682  1.8287
  133OSM    C7S14375   3.828   0.004   7.265  0.1468 -0.7250  0.3858
  133OSM    H7S14376   3.893  -0.085   7.248 -0.0027 -1.1154  1.7769
  133OSM    H7T14377   3.723  -0.024   7.286  0.0231  1.6621  3.7053
  133OSM    C8S14378   3.869   0.077   7.388 -0.0369 -0.6650  0.4528
  133OSM    H8S14379   3.796   0.161   7.394  1.0986  0.2866  1.5422
  133OSM    H8T14380   3.967   0.128   7.375 -1.0943  1.0043 -1.6015
  133OSM    C9S14381   3.874  -0.023   7.509  0.1909 -0.4147  0.4699
  133OSM    H9S14382   3.956  -0.098   7.503  0.1956 -0.4091  0.4649
  133OSM    H9T14383   3.776  -0.074   7.508 -0.1648  0.1926 -1.6301
  133OSM   C10S14384   3.877   0.061   7.640  0.8212 -0.9753 -0.6629
  133OSM   H10S14385   3.806   0.146   7.643  1.0495 -0.7891  1.6896
  133OSM   H10T14386   3.976   0.111   7.641 -0.9625  3.0103  2.1078
  133OSM   C11S14387   3.871  -0.031   7.767 -0.1453 -0.0615 -0.0174
  133OSM   H11S14388   3.965  -0.087   7.752  0.1860  1.0398 -2.4210
  133OSM   H11T14389   3.783  -0.099   7.763 -0.7245  0.4348  2.4179
  133OSM   C12S14390   3.888   0.049   7.890 -0.1043  0.1180 -1.0990
  133OSM   H12S14391   3.786   0.081   7.919  0.4709  0.7375  0.3243
  133OSM   H12T14392   3.954   0.138   7.885 -0.7205  0.5112 -3.6322
  133OSM   C13S14393   3.928  -0.048   8.001 -0.1407  0.8337 -0.4386
  133OSM   H13S14394   4.026  -0.088   7.971  0.8373  1.8343  1.2689
  133OSM   H13T14395   3.853  -0.130   8.007 -0.7977  1.4620  0.2868
  133OSM   C14S14396   3.949   0.021   8.136  0.0421 -0.1565 -0.4707
  133OSM   H14S14397   3.963   0.131   8.120  0.8199 -0.1474  0.1994
  133OSM   H14T14398   4.043  -0.003   8.191  1.0019  1.7913 -1.1574
  133OSM   C15S14399   3.835   0.013   8.239 -0.0574 -0.2361 -0.2649
  133OSM   H15S14400   3.739   0.044   8.192  0.0644  2.2886  0.9696
  133OSM   H15T14401   3.864   0.093   8.310 -0.5518 -0.7669  0.5577
  133OSM   C16S14402   3.818  -0.113   8.316  0.3453  0.1636  0.0284
  133OSM   H16S14403   3.904  -0.126   8.386  0.1532  0.9226  0.4178
  133OSM   H16T14404   3.823  -0.208   8.259  1.3818 -0.4421  1.0744
  133OSM   C17S14405   3.690  -0.122   8.408  0.0300  0.4326 -0.8890
  133OSM   H17S14406   3.600  -0.128   8.343 -0.9987  0.8688  0.4604
  133OSM   H17T14407   3.682  -0.024   8.458  1.4115  0.7859 -1.3184
  133OSM   C18S14408   3.698  -0.214   8.528  0.0333 -0.4645  0.1126
  133OSM   H18S14409   3.720  -0.319   8.499  1.4204  0.2206 -1.4877
  133OSM   H18T14410   3.602  -0.211   8.585 -0.1631 -1.1039 -0.1716
  133OSM   H18U14411   3.779  -0.187   8.599  0.4781 -1.8862  0.1679
  133OSM    C1F14412   3.880  -0.391   6.888 -0.0575  0.4862 -0.1236
  133OSM     OF14413   3.983  -0.417   6.830 -0.1148 -0.1852 -0.3395
  133OSM    C2F14414   3.831  -0.487   6.990  0.3018 -0.7344 -0.6641
  133OSM    H2F14415   3.881  -0.586   6.991  0.3483 -0.8809  3.6561
  133OSM    H2G14416   3.721  -0.496   6.979  0.1194  1.1449 -0.7207
  133OSM    C3F14417   3.850  -0.437   7.136 -0.5343 -0.7292  0.5864
  133OSM    H3F14418   3.811  -0.334   7.147 -3.5324 -1.6904 -0.1175
  133OSM    H3G14419   3.958  -0.431   7.162 -0.4301 -0.7180  0.1647
  133OSM    C4F14420   3.777  -0.533   7.233 -0.4985 -0.8788 -0.8236
  133OSM    H4F14421   3.783  -0.641   7.209  2.4450 -0.8399 -0.5903
  133OSM    H4G14422   3.670  -0.501   7.237 -0.4367 -0.8081  0.6154
  133OSM    C5F14423   3.840  -0.528   7.376 -0.1360 -0.0634  0.6484
  133OSM    H5F14424   3.949  -0.550   7.371 -0.3806 -2.0816  2.6343
  133OSM    H5G14425   3.798  -0.610   7.438 -0.1587 -0.0988  0.5869
  133OSM    C6F14426   3.830  -0.388   7.442  0.2240 -0.2438 -0.6470
  133OSM    H6F14427   3.723  -0.360   7.456  0.7690  0.6779  2.4901
  133OSM    H6G14428   3.884  -0.310   7.385 -1.9247  1.8195 -0.0238
  133OSM    C7F14429   3.888  -0.392   7.587  0.4275  0.0362  0.1414
  133OSM    H7F14430   3.907  -0.287   7.618  1.4835  0.0158 -0.3703
  133OSM    H7G14431   3.987  -0.441   7.603 -1.0879 -2.5955  2.2898
  133OSM    C8F14432   3.803  -0.460   7.697  0.3040 -0.6982 -0.2306
  133OSM    H8F14433   3.817  -0.569   7.684  0.1259 -0.8442  0.7218
  133OSM    H8G14434   3.701  -0.436   7.660  0.5948  0.6451 -0.2118
  133OSM    C9F14435   3.805  -0.411   7.840 -0.5364 -0.3553 -0.0149
  133OSM    H9F14436   3.763  -0.310   7.849  0.9518  0.4623 -1.5309
  133OSM   C10F14437   3.870  -0.461   7.945  0.6346 -0.0566  0.2578
  133OSM   H10F14438   3.852  -0.419   8.045  2.2253 -0.7585  0.8717
  133OSM   C11F14439   3.955  -0.582   7.943 -0.3244 -0.1826 -0.7846
  133OSM   H11F14440   4.045  -0.560   8.004 -0.2275 -1.0363 -0.6083
  133OSM   H11G14441   3.971  -0.617   7.839 -2.5313  0.7138 -1.4908
  133OSM   C12F14442   3.885  -0.702   8.013 -0.2482  0.3912  0.0483
  133OSM   H12F14443   3.950  -0.791   8.001 -0.9274 -0.0127 -0.8063
  133OSM   H12G14444   3.802  -0.739   7.948 -0.2455  0.3083  0.0913
  133OSM   C13F14445   3.841  -0.691   8.158  0.5450  0.0667  0.1412
  133OSM   H13F14446   3.807  -0.794   8.179 -0.7959  0.2674 -0.9284
  133OSM   H13G14447   3.747  -0.635   8.174  0.1133 -1.1786  2.5093
  133OSM   C14F14448   3.949  -0.642   8.260  0.5706 -0.0647 -0.4225
  133OSM   H14F14449   4.016  -0.562   8.220  2.3058 -1.9703 -1.5298
  133OSM   H14G14450   4.021  -0.721   8.292  1.1519  0.9881  0.9463
  133OSM   C15F14451   3.887  -0.576   8.390 -0.0813 -0.0191 -0.1039
  133OSM   H15F14452   3.831  -0.491   8.346 -0.7410 -1.5682 -2.4312
  133OSM   H15G14453   3.967  -0.532   8.453  0.9621  0.7856 -1.9186
  133OSM   C16F14454   3.800  -0.668   8.473 -0.0416  0.4745 -0.1635
  133OSM   H16F14455   3.862  -0.746   8.522 -0.4912  0.6401  0.6738
  133OSM   H16G14456   3.733  -0.724   8.404 -1.5221 -1.4560  2.6549
  133OSM   C17F14457   3.712  -0.589   8.566 -0.7378 -0.3630 -0.5207
  133OSM   H17F14458   3.651  -0.650   8.635  0.0487 -0.4192  0.1442
  133OSM   H17G14459   3.649  -0.521   8.506  0.6874  1.8783  0.3669
  133OSM   C18F14460   3.794  -0.505   8.667  0.0397  0.5148 -0.1931
  133OSM   H18F14461   3.723  -0.442   8.725  1.5781  0.1829  2.1695
  133OSM   H18G14462   3.867  -0.439   8.617  2.2999 -1.9876 -0.4527
  133OSM   H18H14463   3.843  -0.572   8.741  1.6691  0.0115 -1.6562
  134OSM      N14464   4.906   0.530   6.051  0.3383  0.1895  0.3989
  134OSM    C1514465   4.906   0.393   5.990  0.1413  0.0747  0.0895
  134OSM   H15A14466   4.888   0.388   5.884  1.2962 -3.1617 -0.0901
  134OSM   H15B14467   4.842   0.333   6.053 -0.4004  0.2457 -0.2978
  134OSM   H15C14468   5.007   0.355   5.999 -0.4656 -1.5024  0.5643
  134OSM    C1414469   4.776   0.605   6.033 -0.3189  0.4601  0.5318
  134OSM   H14A14470   4.691   0.555   6.078 -0.4176  1.4729  1.5103
  134OSM   H14B14471   4.757   0.643   5.934  1.0875  0.3832  0.2110
  134OSM   H14C14472   4.794   0.691   6.096  4.1736  0.5795 -0.6127
  134OSM    C1314473   4.937   0.509   6.193  0.4840 -0.0098 -0.2678
  134OSM   H13A14474   5.027   0.456   6.219  0.3322 -0.8758 -1.4616
  134OSM   H13B14475   4.868   0.446   6.247 -0.2719  0.7716 -0.2840
  134OSM   H13C14476   4.947   0.603   6.246 -2.1925  0.0819  0.2022
  134OSM    C1214477   5.020   0.603   5.981 -0.5402 -0.4397  0.2561
  134OSM   H12A14478   5.003   0.596   5.875 -2.2117  0.9135  0.3803
  134OSM   H12B14479   5.111   0.551   6.005 -1.8933 -2.1585  2.0351
  134OSM    C1114480   5.039   0.755   6.019 -0.3414 -0.1818 -0.1356
  134OSM   H11A14481   4.960   0.811   5.964  1.2131  0.7035 -1.5719
  134OSM   H11B14482   5.131   0.788   5.965  0.4663  1.5003  2.1197
  134OSM      P14483   4.974   0.877   6.223  0.1404 -0.4321  0.1669
  134OSM    O1314484   5.046   1.009   6.209 -0.2536  0.1428 -0.1127
  134OSM    O1414485   4.834   0.864   6.168  0.2167  0.2440 -0.2858
  134OSM    O1114486   4.965   0.839   6.375 -0.7828 -0.1383  0.1541
  134OSM    O1214487   5.066   0.780   6.156  0.2988 -0.1001 -0.2224
  134OSM    C1S14488   5.073   0.829   6.472 -0.0120 -0.1306  0.6903
  134OSM    H1S14489   5.108   0.933   6.487  0.2958 -0.1876  0.3734
  134OSM    H1T14490   5.156   0.765   6.435  1.0558  2.6787 -2.1869
  134OSM     NF14491   5.117   0.768   6.717  0.0639 -0.2354 -0.2869
  134OSM    HNF14492   5.150   0.676   6.738  0.8125 -0.2467 -1.4490
  134OSM    C2S14493   5.016   0.779   6.610 -0.4379 -0.2645  0.0576
  134OSM    H2S14494   4.943   0.857   6.642  2.0287  2.1900  0.0355
  134OSM    C3S14495   4.935   0.648   6.591  0.4536 -0.0073  0.1059
  134OSM    H3S14496   5.002   0.562   6.568  1.3138  0.9656 -1.1197
  134OSM     O314497   4.851   0.647   6.483  0.0867  0.2178  0.2474
  134OSM    HO314498   4.884   0.728   6.444  0.2675 -0.1783 -0.4448
  134OSM    C4S14499   4.856   0.627   6.724  0.1179 -0.1457 -0.2951
  134OSM    H4S14500   4.920   0.609   6.812  0.1256 -0.7026 -0.4118
  134OSM    C5S14501   4.724   0.624   6.749  0.0138  0.6971  0.4725
  134OSM    H5S14502   4.654   0.629   6.664  1.2186  1.4295 -0.5087
  134OSM    C6S14503   4.654   0.596   6.883  0.4006  1.2103 -0.0356
  134OSM    H6S14504   4.612   0.493   6.872  1.5208  0.9433 -2.4531
  134OSM    H6T14505   4.571   0.668   6.894  0.1494  0.9333 -0.0907
  134OSM    C7S14506   4.745   0.594   7.007  0.8257  0.2653 -0.6193
  134OSM    H7S14507   4.785   0.698   7.010 -0.7396  0.8781  0.8767
  134OSM    H7T14508   4.836   0.532   6.989  0.6209 -0.5782  0.9969
  134OSM    C8S14509   4.672   0.568   7.138  0.2950  0.3473 -0.7423
  134OSM    H8S14510   4.611   0.476   7.127 -1.6528  1.3751  0.8054
  134OSM    H8T14511   4.602   0.653   7.149  0.2270  0.3625 -1.2663
  134OSM    C9S14512   4.767   0.566   7.265  0.3714  0.2146 -0.2110
  134OSM    H9S14513   4.800   0.671   7.279 -0.4647  0.7089 -1.6893
  134OSM    H9T14514   4.857   0.502   7.262  0.6157  0.4307  1.4848
  134OSM   C10S14515   4.691   0.520   7.393  0.5053 -0.0483  0.0337
  134OSM   H10S14516   4.668   0.412   7.389 -1.4232  0.3414 -0.4292
  134OSM   H10T14517   4.593   0.571   7.406  0.1895 -0.7785  0.5496
  134OSM   C11S14518   4.777   0.541   7.517  0.2719  0.6011  0.1605
  134OSM   H11S14519   4.821   0.642   7.528  1.5409  0.4001 -2.3391
  134OSM   H11T14520   4.872   0.484   7.507 -0.4356 -1.0632  2.1996
  134OSM   C12S14521   4.708   0.488   7.644 -0.4975 -0.2432  0.2760
  134OSM   H12S14522   4.660   0.393   7.612 -1.3446  0.9276 -2.1668
  134OSM   H12T14523   4.635   0.570   7.664  1.0827  1.4178 -0.4988
  134OSM   C13S14524   4.793   0.472   7.771 -0.2133  0.1271  0.9282
  134OSM   H13S14525   4.843   0.567   7.800 -0.7718  0.0459  2.2222
  134OSM   H13T14526   4.878   0.407   7.744 -0.0619  1.2612 -1.7147
  134OSM   C14S14527   4.727   0.412   7.892  0.1676 -0.2001  0.1757
  134OSM   H14S14528   4.707   0.303   7.881  0.9853 -0.7034  2.8567
  134OSM   H14T14529   4.629   0.463   7.902 -0.8932 -2.0050 -0.4608
  134OSM   C15S14530   4.791   0.444   8.028  0.0497 -0.0617  0.0387
  134OSM   H15S14531   4.717   0.485   8.100  1.8357 -0.0581  1.9767
  134OSM   H15T14532   4.873   0.512   7.998 -2.0505  1.6949 -2.0827
  134OSM   C16S14533   4.839   0.317   8.095  0.3259  0.3114 -0.3383
  134OSM   H16S14534   4.921   0.287   8.026 -0.1048  1.1661 -1.2491
  134OSM   H16T14535   4.755   0.246   8.083  0.7624 -0.5295  1.2555
  134OSM   C17S14536   4.875   0.326   8.242 -0.0594 -0.0311  0.6271
  134OSM   H17S14537   4.944   0.413   8.249  0.9367 -0.5104 -1.9190
  134OSM   H17T14538   4.938   0.239   8.269 -0.0158 -1.1615 -2.6579
  134OSM   C18S14539   4.759   0.345   8.334 -0.4565  0.4422  0.5895
  134OSM   H18S14540   4.784   0.332   8.442 -4.0210 -0.6007  1.4286
  134OSM   H18T14541   4.682   0.269   8.308  0.0285  0.2485 -0.3033
  134OSM   H18U14542   4.710   0.445   8.339  0.8945  1.1720 -0.2560
  134OSM    C1F14543   5.169   0.875   6.783 -0.3002  0.4409  0.7200
  134OSM     OF14544   5.134   0.986   6.754 -0.1279  0.0657 -0.3591
  134OSM    C2F14545   5.275   0.847   6.877 -0.7425 -0.3167  0.0547
  134OSM    H2F14546   5.356   0.922   6.858 -1.2952 -0.1071 -1.6659
  134OSM    H2G14547   5.307   0.741   6.870 -0.6161 -0.2069 -1.3750
  134OSM    C3F14548   5.225   0.861   7.024 -0.4948  0.1813 -0.5591
  134OSM    H3F14549   5.142   0.790   7.045 -0.2612  0.1177  0.1999
  134OSM    H3G14550   5.172   0.959   7.024 -2.2063 -0.5951 -4.0294
  134OSM    C4F14551   5.328   0.857   7.135 -0.3344  0.2968 -0.0592
  134OSM    H4F14552   5.388   0.950   7.130 -1.8738  1.2743 -1.1324
  134OSM    H4G14553   5.380   0.760   7.117 -0.5783  0.0436  0.5773
  134OSM    C5F14554   5.272   0.858   7.274 -0.5385  0.0089  0.7877
  134OSM    H5F14555   5.202   0.775   7.298 -0.1043 -0.2498  1.1800
  134OSM    H5G14556   5.217   0.955   7.281  0.6019  0.7633 -0.3686
  134OSM    C6F14557   5.377   0.841   7.374 -0.2836  0.3568  0.2719
  134OSM    H6F14558   5.468   0.884   7.326  0.0034 -0.1370  0.3657
  134OSM    H6G14559   5.393   0.731   7.381  1.3879  0.5753  0.3776
  134OSM    C7F14560   5.343   0.909   7.509 -0.4692  0.3496 -0.1671
  134OSM    H7F14561   5.298   1.009   7.494  0.1439  0.5599 -0.6404
  134OSM    H7G14562   5.441   0.937   7.554 -1.2771  0.1890  1.8012
  134OSM    C8F14563   5.277   0.811   7.615 -0.1958  0.2546 -0.2326
  134OSM    H8F14564   5.345   0.724   7.609  0.5866  0.9054 -4.7938
  134OSM    H8G14565   5.179   0.776   7.577 -1.2898  0.0929  2.5642
  134OSM    C9F14566   5.271   0.889   7.745  0.3396  0.7540 -0.6549
  134OSM    H9F14567   5.175   0.938   7.767 -0.2140 -0.1935 -0.9336
  134OSM   C10F14568   5.359   0.891   7.841  0.4871 -0.0969 -0.3592
  134OSM   H10F14569   5.322   0.937   7.934 -0.5932  1.8863 -1.6854
  134OSM   C11F14570   5.484   0.813   7.848 -0.3685 -0.8541  0.5766
  134OSM   H11F14571   5.572   0.880   7.840 -0.4982 -0.5262  1.6998
  134OSM   H11G14572   5.504   0.743   7.764  0.6923 -2.0891  1.8157
  134OSM   C12F14573   5.487   0.748   7.987 -0.2825  0.2003 -0.3348
  134OSM   H12F14574   5.394   0.689   8.000 -0.4390  0.6442  0.6498
  134OSM   H12G14575   5.498   0.825   8.067 -0.2517 -1.7716  1.6421
  134OSM   C13F14576   5.598   0.639   8.008  0.2018  0.8672 -0.1792
  134OSM   H13F14577   5.694   0.694   8.021  0.1867  0.5180  1.8476
  134OSM   H13G14578   5.609   0.573   7.920  1.8974  0.6751  0.1282
  134OSM   C14F14579   5.580   0.550   8.126  0.3402 -0.8863  0.0251
  134OSM   H14F14580   5.479   0.506   8.139 -1.7952  3.6521  0.6299
  134OSM   H14G14581   5.589   0.610   8.219  0.7788 -0.0506 -0.5451
  134OSM   C15F14582   5.690   0.450   8.129 -0.8423  0.0268 -0.4663
  134OSM   H15F14583   5.788   0.503   8.131 -1.0272  0.5590 -2.5506
  134OSM   H15G14584   5.681   0.375   8.047  1.5885 -0.5779 -0.2784
  134OSM   C16F14585   5.679   0.365   8.256  0.2284 -0.2583 -0.0598
  134OSM   H16F14586   5.742   0.274   8.262 -0.1744 -0.4510  2.9101
  134OSM   H16G14587   5.573   0.333   8.254  0.1867 -0.1418  0.3002
  134OSM   C17F14588   5.717   0.436   8.382 -0.6247 -0.3834  0.0970
  134OSM   H17F14589   5.653   0.525   8.396  0.0426  0.0980  0.1370
  134OSM   H17G14590   5.825   0.459   8.390 -0.7414  0.5028 -0.6525
  134OSM   C18F14591   5.687   0.341   8.504 -0.2171  0.0005 -0.6102
  134OSM   H18F14592   5.620   0.260   8.470  1.7660 -1.7128 -0.6740
  134OSM   H18G14593   5.660   0.390   8.600  1.9348  1.4248 -0.6415
  134OSM   H18H14594   5.779   0.284   8.529 -0.7674 -0.3641  0.6571
  135OSM      N14595   4.218   1.311   6.182 -0.2678  0.8769  0.5774
  135OSM    C1514596   4.077   1.368   6.159 -0.1386 -0.5040 -0.3419
  135OSM   H15A14597   4.069   1.475   6.171 -1.4724 -0.7865  1.8645
  135OSM   H15B14598   4.007   1.332   6.233  1.7295  0.1974  1.9025
  135OSM   H15C14599   4.046   1.348   6.058  1.1229 -3.4124 -0.2262
  135OSM    C1414600   4.224   1.172   6.146  0.6394  0.7803 -0.1059
  135OSM   H14A14601   4.318   1.123   6.168  0.3868  0.8709  1.2761
  135OSM   H14B14602   4.186   1.154   6.047  1.7832 -1.8849 -0.1486
  135OSM   H14C14603   4.162   1.107   6.206  2.1762  0.4670  1.2083
  135OSM    C1314604   4.306   1.376   6.084 -0.0928 -0.1628  0.3167
  135OSM   H13A14605   4.406   1.339   6.102  0.0065 -0.2362 -0.3533
  135OSM   H13B14606   4.305   1.482   6.104 -0.5271 -0.4416  1.9024
  135OSM   H13C14607   4.276   1.364   5.981 -1.1793  1.3972  0.4155
  135OSM    C1214608   4.263   1.323   6.327  0.1976 -0.0389  0.3070
  135OSM   H12A14609   4.187   1.283   6.393 -0.0815  0.1562  0.1046
  135OSM   H12B14610   4.261   1.430   6.341 -1.7506  0.1743 -1.1200
  135OSM    C1114611   4.395   1.262   6.363 -0.3497 -0.5766 -0.0076
  135OSM   H11A14612   4.407   1.161   6.317  0.8450 -0.8305  0.8047
  135OSM   H11B14613   4.390   1.235   6.471 -0.2077 -2.7079 -0.4885
  135OSM      P14614   4.638   1.312   6.270  0.3160 -0.0682  0.4958
  135OSM    O1314615   4.593   1.268   6.136 -0.4646 -0.2447 -0.2023
  135OSM    O1414616   4.739   1.426   6.276  0.3880  0.1992 -0.5926
  135OSM    O1114617   4.687   1.191   6.357 -0.2604  0.5334 -0.2508
  135OSM    O1214618   4.501   1.359   6.346 -0.1147  0.6944  0.4482
  135OSM    C1S14619   4.822   1.189   6.408 -0.1316 -0.3754  0.5148
  135OSM    H1S14620   4.902   1.245   6.354  1.8123 -4.2444 -1.0336
  135OSM    H1T14621   4.866   1.089   6.389  1.3371  0.4790 -0.8128
  135OSM     NF14622   4.995   1.197   6.576  0.0621  0.6353 -0.2818
  135OSM    HNF14623   5.031   1.112   6.613  1.7638  1.4336 -0.0242
  135OSM    C2S14624   4.850   1.204   6.559  0.7846  0.1817 -0.1723
  135OSM    H2S14625   4.806   1.299   6.596  1.2187  0.4481 -0.3318
  135OSM    C3S14626   4.767   1.089   6.636  0.3467  0.0762  0.5557
  135OSM    H3S14627   4.802   0.987   6.606  0.4077 -0.0480  1.0524
  135OSM     O314628   4.629   1.097   6.613 -0.2232 -0.2778 -0.6152
  135OSM    HO314629   4.607   1.153   6.539 -3.1429 -1.5017 -0.7905
  135OSM    C4S14630   4.793   1.107   6.779  0.4204 -0.5131 -0.0040
  135OSM    H4S14631   4.815   1.210   6.813 -0.9504  0.1465 -1.0167
  135OSM    C5S14632   4.783   1.003   6.866  0.2255  0.5850 -0.0908
  135OSM    H5S14633   4.738   0.915   6.819 -1.5842  1.7100 -0.5777
  135OSM    C6S14634   4.813   0.998   7.012 -0.1435  0.3403 -0.5099
  135OSM    H6S14635   4.881   0.914   7.039 -0.3229  0.3515 -0.0205
  135OSM    H6T14636   4.723   0.993   7.076  0.9091 -0.4489  0.9684
  135OSM    C7S14637   4.886   1.129   7.064  0.0437 -0.5994  0.2281
  135OSM    H7S14638   4.814   1.213   7.054  1.1049  0.4902  1.3904
  135OSM    H7T14639   4.963   1.155   6.989  0.4445 -0.7356  0.5903
  135OSM    C8S14640   4.945   1.127   7.200  0.6932 -0.6713 -0.1852
  135OSM    H8S14641   4.980   1.227   7.233  0.7280 -1.2547  1.6934
  135OSM    H8T14642   5.035   1.062   7.194  0.6116 -0.8330  0.2896
  135OSM    C9S14643   4.849   1.050   7.300  0.1810 -0.8642  1.3740
  135OSM    H9S14644   4.854   0.943   7.268  0.7467 -0.4992  0.1738
  135OSM    H9T14645   4.744   1.085   7.296  0.6064  0.4673  1.4015
  135OSM   C10S14646   4.891   1.064   7.446 -0.6373  0.7389 -0.3860
  135OSM   H10S14647   4.888   1.173   7.466 -0.1896  0.7854 -0.5602
  135OSM   H10T14648   4.998   1.035   7.453 -0.2769  1.9542 -0.7157
  135OSM   C11S14649   4.805   0.971   7.529  0.7737  0.7270 -0.0533
  135OSM   H11S14650   4.787   0.870   7.488  0.1799  1.0189 -0.5351
  135OSM   H11T14651   4.706   1.021   7.532  0.5250  0.5277 -2.8376
  135OSM   C12S14652   4.844   0.969   7.678 -0.1277 -0.2358  0.2241
  135OSM   H12S14653   4.823   1.072   7.714 -1.0795 -0.2419 -0.2755
  135OSM   H12T14654   4.947   0.936   7.703 -0.1784 -1.0708 -0.6077
  135OSM   C13S14655   4.763   0.869   7.768  0.4749  0.3997  0.1453
  135OSM   H13S14656   4.760   0.776   7.708  3.3395  0.3972 -0.1338
  135OSM   H13T14657   4.656   0.898   7.776  0.4844  0.0640  1.8073
  135OSM   C14S14658   4.826   0.863   7.911  0.3245  0.1840  0.1341
  135OSM   H14S14659   4.868   0.959   7.950 -2.9439  0.5578  3.2952
  135OSM   H14T14660   4.912   0.794   7.905 -0.2098 -0.4494 -0.3001
  135OSM   C15S14661   4.730   0.814   8.013  0.5229  0.4289 -0.0673
  135OSM   H15S14662   4.695   0.710   7.994 -2.0377  1.2201 -0.0074
  135OSM   H15T14663   4.640   0.879   8.019 -0.2474 -0.7303  1.9456
  135OSM   C16S14664   4.795   0.820   8.155  0.6041 -0.2855 -0.8525
  135OSM   H16S14665   4.891   0.764   8.148 -0.2254 -1.7509 -0.9778
  135OSM   H16T14666   4.723   0.763   8.218  0.2966 -0.7784 -1.6387
  135OSM   C17S14667   4.805   0.965   8.207 -0.7442  0.2633  0.0477
  135OSM   H17S14668   4.706   1.000   8.243  0.3532 -0.0092  3.7539
  135OSM   H17T14669   4.848   1.031   8.129  2.0564 -1.8338 -0.3324
  135OSM   C18S14670   4.909   0.990   8.314  0.0995 -0.3693  0.0580
  135OSM   H18S14671   5.010   0.971   8.272 -0.3539 -1.8655 -0.3955
  135OSM   H18T14672   4.905   0.925   8.404  0.6126  0.2337  0.5314
  135OSM   H18U14673   4.915   1.098   8.341  0.2742 -0.3609 -0.0132
  135OSM    C1F14674   5.080   1.295   6.552  0.4336  0.3950 -0.2537
  135OSM     OF14675   5.044   1.393   6.491 -0.6887  0.3228 -0.1568
  135OSM    C2F14676   5.225   1.265   6.586  0.5397 -0.5019 -0.6704
  135OSM    H2F14677   5.291   1.298   6.503  1.6025 -0.5873  0.1165
  135OSM    H2G14678   5.229   1.155   6.602 -0.7295 -0.4121  0.4822
  135OSM    C3F14679   5.277   1.344   6.704  0.0360 -0.0671 -0.8180
  135OSM    H3F14680   5.228   1.443   6.692 -2.1925 -1.3917 -4.1496
  135OSM    H3G14681   5.386   1.363   6.708  0.1986 -0.8818 -1.2144
  135OSM    C4F14682   5.232   1.275   6.831  0.0377 -0.3901 -0.7353
  135OSM    H4F14683   5.276   1.173   6.838  1.7525  0.2463 -1.6440
  135OSM    H4G14684   5.123   1.256   6.839  0.4070 -2.9968 -1.0541
  135OSM    C5F14685   5.290   1.347   6.951 -0.2477 -0.3168  0.4365
  135OSM    H5F14686   5.252   1.450   6.957  2.1942  0.7740 -1.1311
  135OSM    H5G14687   5.400   1.345   6.930 -0.4998 -0.8712 -0.9148
  135OSM    C6F14688   5.265   1.265   7.076  0.2712  0.6644 -0.2267
  135OSM    H6F14689   5.318   1.168   7.069 -1.8032 -0.4836 -0.5950
  135OSM    H6G14690   5.157   1.240   7.070  0.5283 -0.6838  0.4167
  135OSM    C7F14691   5.286   1.337   7.216 -0.3154 -0.1286 -0.2553
  135OSM    H7F14692   5.217   1.423   7.231 -0.9755 -0.9461  1.7948
  135OSM    H7G14693   5.386   1.386   7.217 -0.8507  1.0063  0.0675
  135OSM    C8F14694   5.281   1.250   7.343 -0.8766  0.3567 -0.1546
  135OSM    H8F14695   5.339   1.159   7.318  0.4933  1.5723 -1.6323
  135OSM    H8G14696   5.176   1.222   7.367 -0.8798  1.2937  1.0520
  135OSM    C9F14697   5.325   1.310   7.479  0.6573 -0.5444  0.3510
  135OSM    H9F14698   5.418   1.369   7.476  0.0045  0.4827 -0.5022
  135OSM   C10F14699   5.256   1.311   7.597 -0.2041 -0.1621  0.0065
  135OSM   H10F14700   5.298   1.366   7.683  1.8277  1.2394 -1.7679
  135OSM   C11F14701   5.120   1.249   7.616 -0.0533 -0.6371 -0.9322
  135OSM   H11F14702   5.124   1.138   7.620  0.1580 -0.5968  1.9340
  135OSM   H11G14703   5.064   1.282   7.526  0.9065 -0.8175 -1.6091
  135OSM   C12F14704   5.033   1.300   7.736  0.3320  0.0152 -0.0116
  135OSM   H12F14705   4.937   1.245   7.729  0.7033 -0.5743 -0.6117
  135OSM   H12G14706   5.009   1.408   7.720 -2.5195 -0.3036  1.5044
  135OSM   C13F14707   5.105   1.271   7.863  0.0781 -0.8739  0.3362
  135OSM   H13F14708   5.185   1.348   7.865 -0.7962  0.1801 -1.9565
  135OSM   H13G14709   5.151   1.170   7.864  0.0338 -0.8998 -0.0886
  135OSM   C14F14710   5.023   1.277   8.000 -0.3239  0.1373 -1.1854
  135OSM   H14F14711   4.955   1.190   7.994 -1.8736  1.1558  0.4426
  135OSM   H14G14712   4.961   1.370   8.003  0.2208  0.4868  0.6538
  135OSM   C15F14713   5.108   1.266   8.134 -0.4967  0.1532  0.1896
  135OSM   H15F14714   5.172   1.175   8.131  1.4950  1.3420  2.7567
  135OSM   H15G14715   5.041   1.269   8.222 -0.6366 -0.0776  0.0928
  135OSM   C16F14716   5.207   1.382   8.153 -0.4275  0.0579 -0.9562
  135OSM   H16F14717   5.160   1.482   8.144 -0.6927  0.1463  0.9945
  135OSM   H16G14718   5.282   1.386   8.072 -0.5792  1.3887 -1.0412
  135OSM   C17F14719   5.280   1.376   8.289  0.7378  0.5552 -0.0243
  135OSM   H17F14720   5.343   1.285   8.290  2.2207  1.5127  1.8073
  135OSM   H17G14721   5.201   1.360   8.365 -0.5277  0.0908 -1.3974
  135OSM   C18F14722   5.377   1.496   8.313 -0.2509  0.4554  0.2107
  135OSM   H18F14723   5.326   1.594   8.305 -2.4563 -0.7464 -1.6637
  135OSM   H18G14724   5.454   1.491   8.233  3.0042  1.7757  3.0276
  135OSM   H18H14725   5.430   1.489   8.410  2.9872  2.9618 -1.1852
  136OSM      N14726   0.435   6.491   5.920  0.4453 -0.0579  0.3433
  136OSM    C1514727   0.302   6.433   5.962 -0.0870 -0.8291 -0.2071
  136OSM   H15A14728   0.256   6.414   5.866  1.9430 -0.1052 -1.3922
  136OSM   H15B14729   0.250   6.506   6.020  1.2139 -0.1476  0.1403
  136OSM   H15C14730   0.313   6.335   6.006  3.0208 -0.6412 -0.3542
  136OSM    C1414731   0.522   6.392   5.852 -0.2984  0.1937 -0.6105
  136OSM   H14A14732   0.501   6.293   5.889  1.4881  0.2920  0.7972
  136OSM   H14B14733   0.628   6.414   5.858 -0.2328 -0.0738 -0.7711
  136OSM   H14C14734   0.500   6.386   5.746 -0.7399  0.0823 -0.5135
  136OSM    C1314735   0.420   6.610   5.834 -0.2936  0.2553  0.0531
  136OSM   H13A14736   0.404   6.704   5.885  2.3530  1.4481 -1.0939
  136OSM   H13B14737   0.347   6.583   5.760 -0.8687  0.6045  0.4899
  136OSM   H13C14738   0.512   6.622   5.777  0.6590 -3.9299  0.4161
  136OSM    C1214739   0.509   6.539   6.047  0.6457  0.3173 -0.2347
  136OSM   H12A14740   0.599   6.590   6.019  2.0358 -1.5758  0.5690
  136OSM   H12B14741   0.532   6.453   6.108  0.6624  0.4236 -0.0887
  136OSM    C1114742   0.441   6.637   6.151  0.1316 -0.1442  0.4272
  136OSM   H11A14743   0.513   6.636   6.235 -0.7085 -1.3979  1.1782
  136OSM   H11B14744   0.344   6.596   6.186 -0.9771  3.8007  2.5244
  136OSM      P14745   0.545   6.866   6.085 -0.4438  0.3432  0.2467
  136OSM    O1314746   0.669   6.804   6.031  0.1562  0.0157  0.1858
  136OSM    O1414747   0.498   6.990   6.021  0.0794  0.2763 -0.5761
  136OSM    O1114748   0.562   6.880   6.244 -0.1473  0.7296 -0.3005
  136OSM    O1214749   0.418   6.770   6.085 -0.1815  0.8612 -0.0307
  136OSM    C1S14750   0.448   6.926   6.314  0.0851 -0.3535  0.3785
  136OSM    H1S14751   0.379   6.841   6.330 -0.3840 -0.0962 -0.2211
  136OSM    H1T14752   0.394   7.008   6.262 -0.9235 -0.2674  1.5266
  136OSM     NF14753   0.351   7.002   6.532  0.5178 -0.2180  0.1736
  136OSM    HNF14754   0.315   7.095   6.532 -0.7573 -0.6679 -1.1347
  136OSM    C2S14755   0.479   6.982   6.460  0.1631  0.4615 -0.3204
  136OSM    H2S14756   0.540   6.901   6.507 -0.1732 -1.1014 -2.4198
  136OSM    C3S14757   0.569   7.110   6.441 -0.1534  0.4640 -0.5779
  136OSM    H3S14758   0.502   7.192   6.407 -1.0454  1.4021  2.9837
  136OSM     O314759   0.680   7.084   6.353  0.5115 -0.2171  0.2659
  136OSM    HO314760   0.669   6.995   6.319 -2.0131  0.6636 -1.4832
  136OSM    C4S14761   0.619   7.162   6.579 -0.2084  0.3347  0.3657
  136OSM    H4S14762   0.537   7.216   6.631  0.8731  1.9042  0.4999
  136OSM    C5S14763   0.739   7.134   6.640  0.3935 -0.3503 -0.1263
  136OSM    H5S14764   0.814   7.070   6.592  0.6360 -0.0496 -0.1492
  136OSM    C6S14765   0.775   7.185   6.778  0.4940 -0.9527  1.0489
  136OSM    H6S14766   0.751   7.293   6.781 -0.8939 -1.0137 -2.3348
  136OSM    H6T14767   0.885   7.182   6.792  0.8757 -0.9478 -1.3935
  136OSM    C7S14768   0.703   7.101   6.883  0.4358 -1.0344 -0.0946
  136OSM    H7S14769   0.710   6.993   6.858 -0.1054 -1.3615  1.0711
  136OSM    H7T14770   0.596   7.128   6.879  0.9406  1.1844 -0.0589
  136OSM    C8S14771   0.759   7.126   7.024 -0.1982 -0.9023 -0.1594
  136OSM    H8S14772   0.716   7.221   7.064 -0.9358 -2.1553  2.1811
  136OSM    H8T14773   0.868   7.144   7.015 -0.3764  1.0888  1.0727
  136OSM    C9S14774   0.724   7.008   7.111  0.9417 -0.4576  0.8681
  136OSM    H9S14775   0.762   6.914   7.064  0.9392  0.3266 -0.7735
  136OSM    H9T14776   0.614   6.989   7.117  0.7689  0.7089  1.5763
  136OSM   C10S14777   0.793   7.001   7.254 -0.1131  0.3343 -0.2008
  136OSM   H10S14778   0.762   7.086   7.318 -0.0406  0.2921 -0.1086
  136OSM   H10T14779   0.904   6.999   7.250 -0.0800  1.4376 -0.0807
  136OSM   C11S14780   0.743   6.874   7.326 -0.0360  0.0405  0.2855
  136OSM   H11S14781   0.784   6.781   7.281  1.7573  0.9678 -0.0429
  136OSM   H11T14782   0.632   6.866   7.335 -0.0478 -0.3005 -0.1136
  136OSM   C12S14783   0.798   6.874   7.472  0.1729  0.2716  0.5385
  136OSM   H12S14784   0.766   6.969   7.519 -2.0660 -0.8492  1.4243
  136OSM   H12T14785   0.908   6.860   7.473 -0.0001 -2.0430 -1.6011
  136OSM   C13S14786   0.757   6.748   7.556  0.3467 -0.4382 -0.0007
  136OSM   H13S14787   0.789   6.652   7.511  0.7764 -0.5016  0.4286
  136OSM   H13T14788   0.651   6.761   7.588  0.5563  1.7144 -0.0779
  136OSM   C14S14789   0.826   6.758   7.696  0.1135 -0.1602 -0.0719
  136OSM   H14S14790   0.841   6.862   7.730  0.2029  0.4969 -1.9994
  136OSM   H14T14791   0.930   6.718   7.690  0.1693 -1.0896  4.0921
  136OSM   C15S14792   0.760   6.683   7.810 -0.5331 -0.0141 -0.4205
  136OSM   H15S14793   0.743   6.576   7.784 -1.2590  0.0558 -0.2375
  136OSM   H15T14794   0.659   6.721   7.837 -0.5369  1.6088 -2.4846
  136OSM   C16S14795   0.851   6.695   7.941 -0.1511  0.1161  1.0414
  136OSM   H16S14796   0.847   6.793   7.994  0.9796  0.2227  0.9575
  136OSM   H16T14797   0.955   6.686   7.903 -0.5331  2.5308 -0.8692
  136OSM   C17S14798   0.830   6.582   8.046 -1.2010  0.6411  0.4815
  136OSM   H17S14799   0.891   6.605   8.135 -0.6077 -1.6448  0.7311
  136OSM   H17T14800   0.857   6.482   8.006 -0.2879  1.6117 -1.4857
  136OSM   C18S14801   0.684   6.571   8.078 -0.1060  0.8635 -0.1215
  136OSM   H18S14802   0.627   6.665   8.093 -1.6435 -0.1653  0.6753
  136OSM   H18T14803   0.661   6.511   8.168  0.3787 -0.3512 -0.7894
  136OSM   H18U14804   0.631   6.523   7.993  1.2300  0.1885 -0.6065
  136OSM    C1F14805   0.276   6.897   6.575  0.2105 -0.3216  0.0115
  136OSM     OF14806   0.317   6.783   6.564 -0.5877 -0.2994 -0.5484
  136OSM    C2F14807   0.144   6.918   6.634 -0.1666 -0.2544  0.6126
  136OSM    H2F14808   0.077   6.832   6.615 -1.0920  0.0731  2.2062
  136OSM    H2G14809   0.104   7.014   6.598  3.8149  1.1932 -0.4319
  136OSM    C3F14810   0.147   6.930   6.787 -0.3771 -0.0827 -0.8203
  136OSM    H3F14811   0.212   7.018   6.807  1.0575 -1.3965  0.7147
  136OSM    H3G14812   0.192   6.842   6.839  0.2657  2.0306  2.5048
  136OSM    C4F14813   0.009   6.960   6.850 -0.0992  0.5547 -0.0845
  136OSM    H4F14814  -0.063   6.889   6.804 -0.0688  0.5250 -0.0861
  136OSM    H4G14815  -0.007   7.063   6.811  1.5852 -0.2292 -3.1264
  136OSM    C5F14816   0.006   6.964   7.001  0.0855  0.4742 -0.1217
  136OSM    H5F14817   0.083   7.034   7.041  0.4876 -1.4672  2.7587
  136OSM    H5G14818   0.026   6.866   7.048 -0.4606  0.4043 -0.0265
  136OSM    C6F14819  -0.124   7.007   7.071  0.5970 -0.3462 -0.0230
  136OSM    H6F14820  -0.150   7.107   7.030  1.2663  1.0499  2.7189
  136OSM    H6G14821  -0.099   7.024   7.178 -0.7823 -0.8468  0.4017
  136OSM    C7F14822  -0.240   6.907   7.052 -0.5393 -0.1224 -0.0792
  136OSM    H7F14823  -0.212   6.820   6.988 -1.8951 -1.5408  1.1858
  136OSM    H7G14824  -0.321   6.966   7.004  0.9354  1.1438 -1.1083
  136OSM    C8F14825  -0.301   6.846   7.177 -0.6319 -0.2627 -0.2394
  136OSM    H8F14826  -0.387   6.783   7.148 -1.3672 -0.3140  1.8734
  136OSM    H8G14827  -0.342   6.929   7.238 -0.5739  1.0476 -1.9166
  136OSM    C9F14828  -0.201   6.763   7.254 -0.1311 -0.4551 -0.0549
  136OSM    H9F14829  -0.142   6.706   7.181 -0.1576 -1.6554  0.8260
  136OSM   C10F14830  -0.174   6.761   7.384  1.2312  0.1841  0.7788
  136OSM   H10F14831  -0.111   6.678   7.422 -0.2624 -1.1742  0.3778
  136OSM   C11F14832  -0.248   6.840   7.492 -0.1340 -0.4916 -0.1977
  136OSM   H11F14833  -0.310   6.771   7.553 -3.4208  1.0602 -1.5508
  136OSM   H11G14834  -0.322   6.908   7.445  0.3288  0.3014  0.2064
  136OSM   C12F14835  -0.142   6.912   7.587  0.4109  0.0939  0.5154
  136OSM   H12F14836  -0.184   6.995   7.648  1.4940 -0.3953  1.9862
  136OSM   H12G14837  -0.063   6.950   7.519 -0.2639 -0.1671 -0.4328
  136OSM   C13F14838  -0.090   6.813   7.689  1.0482  0.0003 -0.3328
  136OSM   H13F14839   0.002   6.856   7.733 -0.4528  1.0205  1.9863
  136OSM   H13G14840  -0.065   6.714   7.646 -0.5668 -0.3450 -0.5508
  136OSM   C14F14841  -0.192   6.791   7.810  0.8829 -0.3547 -0.2298
  136OSM   H14F14842  -0.170   6.703   7.874  0.3239 -0.3769 -0.0683
  136OSM   H14G14843  -0.298   6.783   7.778 -0.0521  1.5509  2.0590
  136OSM   C15F14844  -0.192   6.914   7.900 -0.2566 -0.0404  0.7687
  136OSM   H15F14845  -0.226   7.002   7.843  2.0502  0.0149 -0.6539
  136OSM   H15G14846  -0.084   6.919   7.925  0.4713 -1.7595 -1.6335
  136OSM   C16F14847  -0.272   6.895   8.033  0.4177 -0.1266  0.5807
  136OSM   H16F14848  -0.262   6.791   8.071  0.3002 -0.9906 -1.6347
  136OSM   H16G14849  -0.378   6.918   8.009  0.8297  0.6348 -0.5988
  136OSM   C17F14850  -0.228   6.995   8.141  0.4245 -0.0428  0.2371
  136OSM   H17F14851  -0.311   7.005   8.214 -0.0579  0.0670 -0.3214
  136OSM   H17G14852  -0.204   7.091   8.090  0.7250 -0.0092  0.4400
  136OSM   C18F14853  -0.110   6.943   8.219  0.2694  0.4455  0.0476
  136OSM   H18F14854  -0.075   7.038   8.266 -3.5395  1.0936  1.9987
  136OSM   H18G14855  -0.033   6.918   8.144 -0.4795  1.5586 -1.1324
  136OSM   H18H14856  -0.131   6.864   8.294 -2.9746 -0.0924 -1.2726
  137OSM      N14857   5.701   6.245   6.296  0.2964 -0.1693  0.5181
  137OSM    C1514858   5.638   6.139   6.215  0.1556 -0.2094 -0.2997
  137OSM   H15A14859   5.532   6.150   6.226  0.3275  0.7297  0.6029
  137OSM   H15B14860   5.677   6.049   6.260  0.5608  0.7441  1.3114
  137OSM   H15C14861   5.682   6.142   6.116 -0.9338 -2.8211 -0.9242
  137OSM    C1414862   5.848   6.248   6.283 -0.4262 -0.0936  0.4764
  137OSM   H14A14863   5.899   6.161   6.321 -1.0647 -0.7915 -0.2570
  137OSM   H14B14864   5.888   6.336   6.332 -2.2695  1.2580 -0.3343
  137OSM   H14C14865   5.868   6.263   6.178 -0.4252  0.8502  0.6025
  137OSM    C1314866   5.652   6.377   6.257  0.2165 -0.0004  0.8595
  137OSM   H13A14867   5.714   6.408   6.174  0.1250 -0.5566  0.5842
  137OSM   H13B14868   5.664   6.450   6.336 -1.0082  1.2571 -0.0463
  137OSM   H13C14869   5.552   6.380   6.216  0.8525  0.2688 -0.7580
  137OSM    C1214870   5.660   6.214   6.439  0.4034 -0.1076  0.2646
  137OSM   H12A14871   5.703   6.292   6.500  0.6374  1.2877 -1.5940
  137OSM   H12B14872   5.694   6.118   6.475 -2.6973 -1.4652 -0.1037
  137OSM    C1114873   5.512   6.242   6.471  0.4185  0.3846 -0.4528
  137OSM   H11A14874   5.479   6.345   6.441  2.0691  1.1152  0.1277
  137OSM   H11B14875   5.511   6.243   6.582 -0.7954 -0.8719 -0.4237
  137OSM      P14876   5.286   6.145   6.408  0.4772 -0.0330  0.3956
  137OSM    O1314877   5.257   6.220   6.283  0.1173 -0.5942  0.1925
  137OSM    O1414878   5.216   6.016   6.426 -0.0347 -0.1593 -0.3067
  137OSM    O1114879   5.237   6.229   6.532  0.1374  0.0791 -0.1301
  137OSM    O1214880   5.440   6.134   6.424 -0.1556 -0.6578  0.3078
  137OSM    C1S14881   5.247   6.168   6.659 -0.7228 -0.0117 -0.1667
  137OSM    H1S14882   5.338   6.216   6.702 -0.5550  0.1852 -0.7367
  137OSM    H1T14883   5.262   6.059   6.655 -0.6320 -0.0004 -0.1129
  137OSM     NF14884   5.166   6.160   6.892 -0.5814  0.5985  0.1520
  137OSM    HNF14885   5.176   6.061   6.892  0.8941  0.7120  0.6972
  137OSM    C2S14886   5.133   6.208   6.759 -0.2602  0.1376  0.8110
  137OSM    H2S14887   5.115   6.318   6.761 -0.0251  0.1615  1.5376
  137OSM    C3S14888   4.997   6.147   6.708  0.0106 -0.3285 -0.1205
  137OSM    H3S14889   5.003   6.037   6.694 -0.4838 -0.2294 -1.2645
  137OSM     O314890   4.962   6.187   6.573 -0.0510  0.4269 -0.9526
  137OSM    HO314891   5.047   6.220   6.542  0.7030 -0.4562  0.1080
  137OSM    C4S14892   4.883   6.183   6.795  0.1503  0.0114 -0.4736
  137OSM    H4S14893   4.848   6.287   6.787 -0.5099 -0.2806 -1.6055
  137OSM    C5S14894   4.820   6.103   6.884 -0.0537  0.0489  0.2554
  137OSM    H5S14895   4.851   5.998   6.883  1.1159  0.3803 -0.5358
  137OSM    C6S14896   4.711   6.138   6.983 -0.0115 -0.0225 -0.4296
  137OSM    H6S14897   4.630   6.062   6.990 -1.6800  1.6178 -1.0621
  137OSM    H6T14898   4.676   6.240   6.955  0.0952  0.0377 -0.3402
  137OSM    C7S14899   4.771   6.149   7.126 -0.3842  0.1041 -0.2544
  137OSM    H7S14900   4.835   6.239   7.118 -2.1968  1.4872  0.1422
  137OSM    H7T14901   4.823   6.054   7.150 -0.8838 -0.4056 -1.1623
  137OSM    C8S14902   4.657   6.178   7.223 -0.1421  0.1164  0.4837
  137OSM    H8S14903   4.564   6.123   7.195 -0.2047  1.6328 -2.7283
  137OSM    H8T14904   4.622   6.283   7.217 -1.2446 -0.3034 -1.0368
  137OSM    C9S14905   4.691   6.143   7.362 -0.5817 -0.5363 -0.0394
  137OSM    H9S14906   4.769   6.216   7.392  0.5291 -1.5246 -0.4242
  137OSM    H9T14907   4.735   6.041   7.354 -0.4217 -0.4716  0.0063
  137OSM   C10S14908   4.569   6.157   7.457  0.4321 -0.1697  0.3332
  137OSM   H10S14909   4.492   6.088   7.418  0.6281 -0.4639  0.4564
  137OSM   H10T14910   4.524   6.258   7.449  0.0332 -0.3204  0.6423
  137OSM   C11S14911   4.594   6.133   7.607  0.1602  0.4934  0.4053
  137OSM   H11S14912   4.652   6.220   7.644 -0.0203  1.6358 -1.8809
  137OSM   H11T14913   4.657   6.042   7.618  1.2197  0.6911 -3.0615
  137OSM   C12S14914   4.460   6.104   7.667  0.0646 -0.3134 -0.1274
  137OSM   H12S14915   4.411   6.017   7.617  3.5103 -2.1570 -0.5956
  137OSM   H12T14916   4.395   6.194   7.667 -0.5650 -0.7009 -2.3636
  137OSM   C13S14917   4.482   6.038   7.806  0.1210 -1.1519 -0.2688
  137OSM   H13S14918   4.584   6.068   7.840 -0.7859  1.8439  0.1131
  137OSM   H13T14919   4.480   5.927   7.801 -0.2704 -1.2785  1.7766
  137OSM   C14S14920   4.392   6.087   7.920 -0.1622  0.5561  0.4370
  137OSM   H14S14921   4.289   6.079   7.879  1.0665 -1.8588 -2.5307
  137OSM   H14T14922   4.403   6.196   7.937 -2.1550  0.7726  0.6261
  137OSM   C15S14923   4.407   6.010   8.051 -0.3328  0.6941 -0.2329
  137OSM   H15S14924   4.516   5.995   8.068 -0.2351 -1.5106 -2.2441
  137OSM   H15T14925   4.373   5.904   8.046 -0.0042  0.3374  2.8262
  137OSM   C16S14926   4.343   6.060   8.184  0.1817  0.2776 -0.2526
  137OSM   H16S14927   4.240   6.097   8.161 -0.5774 -1.9370 -0.6175
  137OSM   H16T14928   4.397   6.148   8.225  0.6844 -0.0208 -0.2639
  137OSM   C17S14929   4.346   5.960   8.300  0.5207 -0.4100  0.3153
  137OSM   H17S14930   4.305   5.863   8.266  2.1807 -0.7112 -0.9596
  137OSM   H17T14931   4.272   6.010   8.366  0.8475  0.4351  0.0624
  137OSM   C18S14932   4.482   5.938   8.356 -0.4604  0.5428  0.4873
  137OSM   H18S14933   4.532   6.034   8.382  0.7080 -0.3039  1.5035
  137OSM   H18T14934   4.549   5.889   8.282 -1.3636 -0.0426  0.0341
  137OSM   H18U14935   4.485   5.859   8.435 -0.3807 -2.4001 -2.2726
  137OSM    C1F14936   5.213   6.234   6.989 -0.4071 -0.1200 -0.1602
  137OSM     OF14937   5.252   6.346   6.968 -0.1928 -0.2071  0.0764
  137OSM    C2F14938   5.229   6.170   7.128  0.9496 -0.3501 -0.0935
  137OSM    H2F14939   5.329   6.121   7.121  1.5132  0.9422 -1.9646
  137OSM    H2G14940   5.151   6.093   7.146 -0.4496  1.0174 -0.1922
  137OSM    C3F14941   5.226   6.270   7.252  0.5396  0.2392 -0.4452
  137OSM    H3F14942   5.142   6.340   7.235 -1.0129 -2.2916 -5.3494
  137OSM    H3G14943   5.324   6.321   7.243  1.5668 -1.3693  0.9325
  137OSM    C4F14944   5.226   6.203   7.391  0.2875 -0.9307 -0.9034
  137OSM    H4F14945   5.296   6.249   7.464  0.7567 -1.7077 -0.8548
  137OSM    H4G14946   5.262   6.099   7.373 -1.3925 -1.6493 -0.2774
  137OSM    C5F14947   5.083   6.185   7.442 -0.2539  0.4081 -0.0693
  137OSM    H5F14948   5.034   6.123   7.363  1.9530  1.8462 -2.7401
  137OSM    H5G14949   5.034   6.282   7.465 -0.2817  0.5560 -0.7314
  137OSM    C6F14950   5.070   6.099   7.569  0.0927 -0.1310  0.5723
  137OSM    H6F14951   5.137   6.013   7.552  3.4806  2.9777 -4.9464
  137OSM    H6G14952   4.963   6.069   7.570 -0.5780  1.9866 -0.6717
  137OSM    C7F14953   5.105   6.172   7.701  0.7207  0.3021 -0.2871
  137OSM    H7F14954   5.045   6.266   7.700  1.7433  0.9766 -0.5397
  137OSM    H7G14955   5.214   6.196   7.700  1.1246 -1.4178 -0.1725
  137OSM    C8F14956   5.073   6.095   7.826  0.0691  0.1393 -0.3785
  137OSM    H8F14957   5.126   6.151   7.906 -0.4301  0.8078 -0.5100
  137OSM    H8G14958   5.122   5.996   7.815 -1.1193 -0.7188  1.6127
  137OSM    C9F14959   4.924   6.090   7.861 -0.1897  0.2979 -0.6353
  137OSM    H9F14960   4.863   6.117   7.774 -0.9772  2.2467  0.4416
  137OSM   C10F14961   4.864   6.060   7.981 -0.7434  0.3380  0.0546
  137OSM   H10F14962   4.754   6.058   7.974 -0.6973  1.6649 -2.0571
  137OSM   C11F14963   4.933   6.025   8.108  0.2111  0.3372 -0.0367
  137OSM   H11F14964   5.007   6.104   8.133  0.5636  0.5020 -1.4796
  137OSM   H11G14965   4.979   5.925   8.090 -2.2881 -0.6711 -1.3451
  137OSM   C12F14966   4.822   6.015   8.220  0.7607 -0.4397  0.1601
  137OSM   H12F14967   4.764   5.922   8.202  0.7151 -0.5021  0.6119
  137OSM   H12G14968   4.763   6.109   8.208  1.3222 -0.0474  0.4173
  137OSM   C13F14969   4.887   6.009   8.360  0.3683  0.2864 -0.7323
  137OSM   H13F14970   4.944   5.914   8.373  0.4551  0.6384  1.9858
  137OSM   H13G14971   4.805   6.012   8.434  1.0626  0.1387  0.0641
  137OSM   C14F14972   4.974   6.127   8.407  0.5693  0.7638  0.2003
  137OSM   H14F14973   4.920   6.223   8.418 -0.2473  0.2129  1.1387
  137OSM   H14G14974   5.062   6.141   8.341  2.5149 -0.9814  2.2518
  137OSM   C15F14975   5.039   6.101   8.540  0.3631  0.3143  0.5544
  137OSM   H15F14976   5.114   6.177   8.571  0.4952  0.0305  0.9365
  137OSM   H15G14977   5.089   6.002   8.538 -0.6804 -0.2369 -0.9100
  137OSM   C16F14978   4.931   6.108   8.653 -0.4055  0.9102  0.3432
  137OSM   H16F14979   4.868   6.016   8.659 -1.0985  1.3626  0.1158
  137OSM   H16G14980   4.866   6.197   8.638 -1.0074  0.5116  0.5525
  137OSM   C17F14981   4.992   6.128   8.794 -0.2571  0.0119 -0.1044
  137OSM   H17F14982   4.911   6.150   8.867 -1.8683  1.6077 -2.2398
  137OSM   H17G14983   5.053   6.221   8.798  1.3000 -0.9362 -0.5955
  137OSM   C18F14984   5.078   6.015   8.857 -0.4979  1.1513  0.0270
  137OSM   H18F14985   5.017   5.922   8.863 -1.4336  1.6619 -1.3042
  137OSM   H18G14986   5.123   6.041   8.955  1.4225  1.0390 -0.7783
  137OSM   H18H14987   5.160   5.992   8.786 -1.8864 -2.6471 -0.5764
  138OSM      N14988   5.943   1.778   5.913  0.0879 -0.5139  0.0752
  138OSM    C1514989   6.032   1.657   5.884  0.4363 -0.5085 -0.6899
  138OSM   H15A14990   5.994   1.575   5.943 -1.8935  0.1534 -1.1768
  138OSM   H15B14991   6.136   1.671   5.911  1.1276 -2.8758 -1.7850
  138OSM   H15C14992   6.036   1.629   5.780  0.9299  1.5466 -1.2554
  138OSM    C1414993   5.985   1.815   6.053  0.0606 -0.4367 -0.5903
  138OSM   H14A14994   6.074   1.876   6.051 -0.3964  0.2287 -2.4423
  138OSM   H14B14995   6.007   1.727   6.112 -0.9543  0.0902  0.6266
  138OSM   H14C14996   5.907   1.863   6.109 -0.3578  1.9193 -3.0249
  138OSM    C1314997   5.979   1.876   5.813 -0.0522  0.0799  0.0456
  138OSM   H13A14998   6.086   1.894   5.811 -0.1070  0.3331 -1.2843
  138OSM   H13B14999   5.923   1.968   5.820 -0.5169 -0.3322  4.1908
  138OSM   H13C15000   5.948   1.855   5.712 -0.8558  2.4215 -0.2612
  138OSM    C1215001   5.794   1.755   5.904  0.6812  0.2461 -0.4081
  138OSM   H12A15002   5.779   1.720   5.803  0.0306  0.5750 -0.4309
  138OSM   H12B15003   5.748   1.852   5.915 -0.1979 -0.4330  3.0835
  138OSM    C1115004   5.715   1.662   6.007  0.4982 -0.2038  0.4318
  138OSM   H11A15005   5.606   1.678   5.998  0.2902 -0.4354  2.2784
  138OSM   H11B15006   5.743   1.692   6.110 -2.6065  0.1063  1.2781
  138OSM      P15007   5.740   1.408   6.081  0.0015 -0.0597 -0.0748
  138OSM    O1315008   5.642   1.310   6.028 -0.3522  0.1002  0.8112
  138OSM    O1415009   5.876   1.354   6.111 -0.1819 -0.0927 -0.3247
  138OSM    O1115010   5.657   1.463   6.205 -0.4333 -0.0233 -0.9315
  138OSM    O1215011   5.754   1.527   5.975  0.7740 -0.0520 -0.6814
  138OSM    C1S15012   5.723   1.503   6.328  0.2027 -0.6947  0.4829
  138OSM    H1S15013   5.830   1.529   6.312  0.4003 -1.2248  0.8994
  138OSM    H1T15014   5.738   1.414   6.393  1.5110 -0.4698  0.5129
  138OSM     NF15015   5.722   1.672   6.499  0.1260  0.4919 -0.2879
  138OSM    HNF15016   5.718   1.628   6.589  0.4331 -1.7717 -1.3100
  138OSM    C2S15017   5.640   1.610   6.401 -0.2789 -0.2190  0.3005
  138OSM    H2S15018   5.614   1.688   6.326  0.8390 -1.5242 -1.5102
  138OSM    C3S15019   5.507   1.550   6.451 -0.4462  0.0404 -0.6419
  138OSM    H3S15020   5.518   1.454   6.506  1.9977  0.0115 -1.0425
  138OSM     O315021   5.418   1.516   6.345  0.2956 -0.6150 -0.0642
  138OSM    HO315022   5.460   1.541   6.262 -2.3440 -0.0693 -1.3212
  138OSM    C4S15023   5.428   1.648   6.542  0.0567  0.5980 -0.6257
  138OSM    H4S15024   5.439   1.622   6.648  0.3608  0.8621 -0.5920
  138OSM    C5S15025   5.347   1.751   6.502 -0.7492 -0.2291 -0.8912
  138OSM    H5S15026   5.346   1.763   6.393  2.4434 -4.4494 -1.6656
  138OSM    C6S15027   5.265   1.837   6.598 -0.8351  0.7030 -0.2125
  138OSM    H6S15028   5.159   1.821   6.569 -1.0053  1.1437  0.1593
  138OSM    H6T15029   5.296   1.939   6.566  0.7052  0.8119  1.4632
  138OSM    C7S15030   5.284   1.827   6.756 -0.5317  0.0108 -0.1410
  138OSM    H7S15031   5.392   1.842   6.776 -0.0209 -0.8023 -2.1129
  138OSM    H7T15032   5.248   1.727   6.787  2.4609 -0.5099  2.1319
  138OSM    C8S15033   5.199   1.929   6.842  0.0309 -0.8484 -0.4351
  138OSM    H8S15034   5.090   1.919   6.823 -0.3232  1.4886  0.0724
  138OSM    H8T15035   5.242   2.025   6.805  2.4978 -1.1993  1.2705
  138OSM    C9S15036   5.226   1.937   6.989  0.0595  0.2057  0.4319
  138OSM    H9S15037   5.329   1.974   7.007 -0.0566  1.2366 -0.8746
  138OSM    H9T15038   5.219   1.831   7.020  1.2285  0.2817  1.0286
  138OSM   C10S15039   5.129   2.026   7.060 -0.2134  0.3679 -0.3547
  138OSM   H10S15040   5.030   1.974   7.057  1.0148 -2.1131 -1.1210
  138OSM   H10T15041   5.132   2.131   7.023  0.7326  0.8557  1.0316
  138OSM   C11S15042   5.155   2.050   7.210 -0.2350  0.0861  0.7476
  138OSM   H11S15043   5.066   2.108   7.243  1.1581  2.7683  0.0523
  138OSM   H11T15044   5.249   2.105   7.230  0.0458  0.5465 -1.5300
  138OSM   C12S15045   5.157   1.915   7.288 -0.3232  0.2883 -1.0331
  138OSM   H12S15046   5.249   1.853   7.281 -0.8437 -1.7690  4.9743
  138OSM   H12T15047   5.073   1.849   7.257 -0.0633 -1.0597  0.9727
  138OSM   C13S15048   5.131   1.950   7.435 -0.3822 -0.3987  0.0948
  138OSM   H13S15049   5.041   2.015   7.433 -1.6509 -2.1269 -0.5844
  138OSM   H13T15050   5.211   2.019   7.471 -1.5782  0.9266  0.3111
  138OSM   C14S15051   5.105   1.823   7.526  0.3539  0.1275  0.1232
  138OSM   H14S15052   5.179   1.743   7.507 -1.0666 -0.4924 -3.8483
  138OSM   H14T15053   5.004   1.784   7.499  1.2451 -1.0740 -1.6744
  138OSM   C15S15054   5.095   1.863   7.675 -0.9075 -0.2753  0.5010
  138OSM   H15S15055   5.007   1.930   7.674 -1.8418 -1.4514 -1.3479
  138OSM   H15T15056   5.190   1.911   7.706  0.1843 -2.4444  0.7085
  138OSM   C16S15057   5.074   1.757   7.783  0.0545  0.9935 -0.6289
  138OSM   H16S15058   4.986   1.694   7.761  0.6476  0.1123 -0.5068
  138OSM   H16T15059   5.036   1.815   7.870 -0.7278 -1.0122  0.4320
  138OSM   C17S15060   5.193   1.678   7.828  0.2228 -0.2005  0.5632
  138OSM   H17S15061   5.237   1.639   7.733  1.1470  0.5795  0.6483
  138OSM   H17T15062   5.157   1.589   7.883  2.2457 -0.1971  2.0413
  138OSM   C18S15063   5.287   1.763   7.922 -0.0064 -0.1762 -0.1067
  138OSM   H18S15064   5.300   1.856   7.862 -1.8554 -1.0768 -2.0373
  138OSM   H18T15065   5.378   1.703   7.941  0.6164  1.0869  1.1214
  138OSM   H18U15066   5.260   1.799   8.024  1.0545  1.9329 -0.5075
  138OSM    C1F15067   5.817   1.757   6.469 -0.0957  0.0594 -0.2996
  138OSM     OF15068   5.834   1.801   6.356  0.2699 -0.4231  0.2699
  138OSM    C2F15069   5.913   1.800   6.575  0.1248  1.1672 -0.2268
  138OSM    H2F15070   6.011   1.819   6.526  0.4996 -0.5893 -0.2222
  138OSM    H2G15071   5.922   1.716   6.648  1.6404 -1.8902 -3.6024
  138OSM    C3F15072   5.851   1.926   6.643  0.5590  0.3153  0.7313
  138OSM    H3F15073   5.839   2.001   6.563  0.2003 -1.2158 -0.7219
  138OSM    H3G15074   5.926   1.964   6.716 -0.3561  1.5004  1.0900
  138OSM    C4F15075   5.724   1.927   6.734  0.2980 -0.2718 -0.6930
  138OSM    H4F15076   5.754   1.879   6.830  1.1514  2.0997  0.2881
  138OSM    H4G15077   5.647   1.857   6.696  1.3071 -0.9904 -1.5016
  138OSM    C5F15078   5.661   2.065   6.757  0.6121  0.9349  0.0215
  138OSM    H5F15079   5.550   2.061   6.751  0.4608  3.3474  0.1908
  138OSM    H5G15080   5.689   2.142   6.682  2.4249 -0.6106 -0.9810
  138OSM    C6F15081   5.698   2.112   6.899  0.2915  0.0121 -0.1158
  138OSM    H6F15082   5.685   2.223   6.901 -2.9638 -0.2631  0.8785
  138OSM    H6G15083   5.800   2.086   6.932 -0.3837 -1.5635  0.8641
  138OSM    C7F15084   5.604   2.060   7.009  0.2893 -0.2702  0.4740
  138OSM    H7F15085   5.614   1.950   7.008  0.0574 -0.2985  1.1561
  138OSM    H7G15086   5.498   2.085   6.989  0.7011 -0.9717 -3.3201
  138OSM    C8F15087   5.645   2.119   7.145  0.1580 -0.1478  0.1593
  138OSM    H8F15088   5.623   2.228   7.142  0.0918 -0.1824 -1.0975
  138OSM    H8G15089   5.752   2.094   7.158 -0.0801 -0.5362  1.5751
  138OSM    C9F15090   5.563   2.058   7.251 -0.1477  0.0299 -0.2301
  138OSM    H9F15091   5.511   1.963   7.230  0.0509 -0.0255 -0.4719
  138OSM   C10F15092   5.544   2.103   7.376 -0.2904 -0.4184 -0.8616
  138OSM   H10F15093   5.465   2.058   7.437  0.6700  2.1568  2.6145
  138OSM   C11F15094   5.588   2.244   7.424  0.5906  0.6661  0.4255
  138OSM   H11F15095   5.496   2.303   7.438  0.1905 -0.1350  1.3090
  138OSM   H11G15096   5.654   2.297   7.352  0.7477  0.1672  0.1940
  138OSM   C12F15097   5.658   2.239   7.560  0.6296 -0.6340 -0.7831
  138OSM   H12F15098   5.682   2.345   7.583  1.0670 -0.2446 -2.7785
  138OSM   H12G15099   5.750   2.178   7.549 -0.8519 -2.9912 -0.7132
  138OSM   C13F15100   5.572   2.185   7.671  0.4990  0.8967 -0.5032
  138OSM   H13F15101   5.510   2.098   7.643  1.8646 -1.1483  2.3651
  138OSM   H13G15102   5.500   2.263   7.704 -0.2452 -0.1283  0.3599
  138OSM   C14F15103   5.652   2.137   7.788  0.0566 -0.5060 -0.0736
  138OSM   H14F15104   5.718   2.217   7.828  1.0104 -0.4356 -1.6662
  138OSM   H14G15105   5.715   2.053   7.751 -0.2728 -1.2913  1.0922
  138OSM   C15F15106   5.552   2.083   7.892 -0.0144  0.1995 -0.1167
  138OSM   H15F15107   5.502   1.992   7.853  1.9928 -1.0353  0.0247
  138OSM   H15G15108   5.477   2.163   7.910  0.3399  0.4286  0.3931
  138OSM   C16F15109   5.612   2.055   8.035 -0.2171  0.2961 -0.3036
  138OSM   H16F15110   5.669   2.140   8.078  0.4668 -0.3299  0.0341
  138OSM   H16G15111   5.684   1.972   8.026  0.1333  0.6420 -0.7452
  138OSM   C17F15112   5.506   2.018   8.146  0.4803 -0.1510  0.2875
  138OSM   H17F15113   5.404   2.043   8.109  1.1065  1.5006 -0.3587
  138OSM   H17G15114   5.525   2.078   8.238  1.0933  1.0498 -0.6104
  138OSM   C18F15115   5.525   1.874   8.192  0.0409  0.1571  0.8926
  138OSM   H18F15116   5.614   1.865   8.258  1.6348  4.3300 -0.3656
  138OSM   H18G15117   5.545   1.817   8.099 -1.3838  1.1087 -0.0416
  138OSM   H18H15118   5.433   1.832   8.238 -1.4910 -0.6630 -2.6420
  139OSM      N15119   5.300   3.319   6.412  0.7465  0.7192 -0.3137
  139OSM    C1515120   5.260   3.181   6.362  0.6853 -0.5239  0.7791
  139OSM   H15A15121   5.326   3.157   6.280  1.6327  2.3804  0.5810
  139OSM   H15B15122   5.157   3.186   6.330  0.7713 -1.2190  0.3657
  139OSM   H15C15123   5.269   3.100   6.433  1.4755 -1.1398 -0.0053
  139OSM    C1415124   5.449   3.322   6.437 -0.2255  0.1805 -0.3518
  139OSM   H14A15125   5.464   3.273   6.532 -1.5773  1.6048  0.6512
  139OSM   H14B15126   5.472   3.427   6.450  1.4921 -0.2747  0.5427
  139OSM   H14C15127   5.508   3.264   6.368  0.2917 -1.1519  1.1680
  139OSM    C1315128   5.280   3.413   6.300  0.2318  0.7988  0.4764
  139OSM   H13A15129   5.274   3.515   6.333 -0.5839  0.9062  0.0056
  139OSM   H13B15130   5.184   3.394   6.254  1.2995  1.6204 -2.3031
  139OSM   H13C15131   5.355   3.395   6.224 -1.0080 -0.5097 -0.5107
  139OSM    C1215132   5.222   3.360   6.534  0.0696  0.7858 -0.4640
  139OSM   H12A15133   5.236   3.297   6.620 -0.4685 -0.5443 -1.3147
  139OSM   H12B15134   5.120   3.348   6.502 -0.3025 -0.4725  1.0979
  139OSM    C1115135   5.227   3.497   6.593 -0.9475 -0.6131  0.0470
  139OSM   H11A15136   5.335   3.508   6.619 -0.6624 -0.7722 -1.0203
  139OSM   H11B15137   5.173   3.499   6.690  0.6238 -0.0980  0.9565
  139OSM      P15138   5.030   3.616   6.474 -0.3756 -0.5877  0.0461
  139OSM    O1315139   5.024   3.708   6.362 -0.2308 -0.1817  0.1095
  139OSM    O1415140   4.948   3.495   6.472 -0.1771 -0.1156 -0.3467
  139OSM    O1115141   5.005   3.688   6.607  0.3316 -0.4310 -0.5929
  139OSM    O1215142   5.187   3.596   6.492  0.2024 -0.2985 -0.2505
  139OSM    C1S15143   4.962   3.819   6.626 -0.2097  0.3040  0.1989
  139OSM    H1S15144   4.852   3.821   6.612 -0.0686 -1.4274 -1.5979
  139OSM    H1T15145   5.001   3.895   6.555 -0.6608  1.8819  1.5763
  139OSM     NF15146   4.937   3.999   6.801  0.3281  0.0137  0.0621
  139OSM    HNF15147   5.008   4.069   6.794  1.9471 -1.6095 -0.4361
  139OSM    C2S15148   4.987   3.861   6.783  0.0928 -0.0994  0.0788
  139OSM    H2S15149   4.934   3.780   6.837 -0.3586 -2.3742 -3.4420
  139OSM    C3S15150   5.137   3.853   6.828  0.0034  0.0866  0.3335
  139OSM    H3S15151   5.193   3.928   6.767 -0.5759 -0.0015 -0.3241
  139OSM     O315152   5.192   3.724   6.807 -0.8679 -0.3824  0.0166
  139OSM    HO315153   5.138   3.702   6.731 -1.7016 -1.8857  0.9894
  139OSM    C4S15154   5.142   3.882   6.972 -0.3588 -1.0751  0.0117
  139OSM    H4S15155   5.055   3.845   7.027 -2.2342 -1.8536 -3.2001
  139OSM    C5S15156   5.221   3.981   7.021  0.3365  0.4012 -0.1470
  139OSM    H5S15157   5.290   4.036   6.956  1.7897 -0.6012  0.4939
  139OSM    C6S15158   5.222   4.019   7.165  0.1437 -0.7215 -0.1945
  139OSM    H6S15159   5.193   4.126   7.167 -1.4958 -1.1578  0.8653
  139OSM    H6T15160   5.326   4.012   7.204  0.6832  1.9286 -0.9623
  139OSM    C7S15161   5.134   3.939   7.260 -0.0556  0.1759  0.0220
  139OSM    H7S15162   5.150   3.830   7.246 -1.6576 -0.2267  0.9534
  139OSM    H7T15163   5.026   3.961   7.246  0.0177  0.3979 -0.1892
  139OSM    C8S15164   5.172   3.958   7.408 -0.1938 -0.7895  0.9293
  139OSM    H8S15165   5.173   4.068   7.423 -0.1951 -0.5709 -0.5082
  139OSM    H8T15166   5.272   3.919   7.436  0.4339  1.2993  1.7223
  139OSM    C9S15167   5.079   3.893   7.501  0.0458  0.1202 -0.1054
  139OSM    H9S15168   5.089   3.782   7.498  1.0958  0.2316 -1.3760
  139OSM    H9T15169   4.973   3.924   7.484  0.5982  1.8454 -0.5429
  139OSM   C10S15170   5.111   3.913   7.652  0.2360  0.7937  0.2863
  139OSM   H10S15171   5.086   4.018   7.679 -0.8777  0.2217  1.6127
  139OSM   H10T15172   5.217   3.891   7.676  0.2165  0.0764 -0.2366
  139OSM   C11S15173   5.018   3.823   7.742  0.4125  0.0318  0.5434
  139OSM   H11S15174   5.019   3.714   7.721  0.4162 -0.1882  1.6507
  139OSM   H11T15175   4.915   3.849   7.709  0.0599 -0.5691  1.1547
  139OSM   C12S15176   5.035   3.843   7.895 -1.1023  0.1934  0.0369
  139OSM   H12S15177   5.048   3.954   7.901 -0.6634  0.0516  2.1590
  139OSM   H12T15178   5.127   3.796   7.935 -1.5933  0.6448  1.7421
  139OSM   C13S15179   4.918   3.788   7.974 -0.2288 -0.8067 -0.0187
  139OSM   H13S15180   4.928   3.678   7.984  1.0497 -0.8559 -1.4713
  139OSM   H13T15181   4.815   3.807   7.936 -0.5822  2.6655  2.2062
  139OSM   C14S15182   4.906   3.859   8.113  0.2383 -0.1718 -0.8330
  139OSM   H14S15183   4.899   3.968   8.091 -0.1300  0.1218  0.6631
  139OSM   H14T15184   4.995   3.855   8.179  0.9940  1.9834 -1.6178
  139OSM   C15S15185   4.780   3.816   8.178 -0.0709  1.1772  0.5372
  139OSM   H15S15186   4.774   3.705   8.172  0.7846  1.0711  1.3544
  139OSM   H15T15187   4.686   3.843   8.125  0.5870  0.1703 -1.2426
  139OSM   C16S15188   4.776   3.861   8.322  0.4208 -0.2172  0.2180
  139OSM   H16S15189   4.866   3.835   8.382 -0.1409  0.4170  1.3899
  139OSM   H16T15190   4.679   3.823   8.360 -1.0957  3.9646  1.1799
  139OSM   C17S15191   4.761   4.015   8.338 -0.6922  0.1786 -0.6621
  139OSM   H17S15192   4.721   4.069   8.249 -0.2928  3.0013  0.7513
  139OSM   H17T15193   4.860   4.062   8.353 -0.4099 -0.1503 -1.4585
  139OSM   C18S15194   4.671   4.048   8.461  0.8551  0.6810  0.3193
  139OSM   H18S15195   4.577   3.990   8.456  2.1088 -1.4394 -0.1753
  139OSM   H18T15196   4.651   4.157   8.464  0.5550  0.6524 -0.4320
  139OSM   H18U15197   4.720   4.018   8.557  0.8800  1.2845  0.5028
  139OSM    C1F15198   4.808   4.035   6.795  0.0743  0.1086  0.7125
  139OSM     OF15199   4.723   3.942   6.791  0.3025  0.0939 -0.0138
  139OSM    C2F15200   4.767   4.174   6.788  1.0089 -0.4229  0.6438
  139OSM    H2F15201   4.746   4.202   6.683  1.2543  1.6062  1.0847
  139OSM    H2G15202   4.842   4.247   6.826  1.7872 -0.3052 -1.0398
  139OSM    C3F15203   4.633   4.204   6.874 -0.8018  0.2623  0.5781
  139OSM    H3F15204   4.551   4.135   6.842  1.1210 -1.1046 -1.7632
  139OSM    H3G15205   4.597   4.305   6.844  0.0173  0.9533  1.8399
  139OSM    C4F15206   4.640   4.210   7.023  0.6556  0.1046  0.9259
  139OSM    H4F15207   4.669   4.107   7.053  0.8733 -0.2190 -0.3395
  139OSM    H4G15208   4.534   4.219   7.057  0.2646 -2.8806  0.7671
  139OSM    C5F15209   4.732   4.307   7.095 -0.3780  0.1095 -1.6167
  139OSM    H5F15210   4.669   4.395   7.122  0.2416 -0.0525  0.5568
  139OSM    H5G15211   4.823   4.334   7.037  0.7383 -1.2312 -0.5620
  139OSM    C6F15212   4.795   4.239   7.219 -0.1619 -0.0255  0.2881
  139OSM    H6F15213   4.856   4.157   7.176 -2.1594 -1.9126  0.8921
  139OSM    H6G15214   4.708   4.182   7.256  1.8985 -2.7151  1.3385
  139OSM    C7F15215   4.857   4.319   7.324  0.5794 -0.8659 -0.4313
  139OSM    H7F15216   4.787   4.391   7.372  1.5575 -0.1679 -0.0114
  139OSM    H7G15217   4.940   4.373   7.274 -1.0918  1.2883 -1.0538
  139OSM    C8F15218   4.915   4.235   7.442 -0.0328 -0.1771 -0.1824
  139OSM    H8F15219   4.982   4.153   7.409  0.1800  0.0173 -0.2374
  139OSM    H8G15220   4.832   4.185   7.497  0.3837 -1.8096 -0.9579
  139OSM    C9F15221   5.008   4.322   7.521  0.1337 -0.9321 -0.6041
  139OSM    H9F15222   5.111   4.334   7.483  0.5238 -0.2497  0.6175
  139OSM   C10F15223   4.983   4.376   7.640 -0.1386 -0.1908  0.0355
  139OSM   H10F15224   5.065   4.436   7.684  1.4260 -0.3780 -2.4207
  139OSM   C11F15225   4.849   4.375   7.713 -0.2905  1.0003  0.3257
  139OSM   H11F15226   4.768   4.326   7.656 -0.1855 -0.2482  1.2135
  139OSM   H11G15227   4.821   4.479   7.740 -1.3962  0.4528  1.3442
  139OSM   C12F15228   4.856   4.280   7.837 -0.6476  0.1264 -0.1990
  139OSM   H12F15229   4.881   4.173   7.817  2.0763  0.0085  2.9811
  139OSM   H12G15230   4.753   4.283   7.878 -0.2924 -0.6303  0.8018
  139OSM   C13F15231   4.954   4.338   7.941  0.4900 -0.3363  0.0442
  139OSM   H13F15232   4.925   4.444   7.955 -1.7212 -0.3191 -3.3889
  139OSM   H13G15233   5.059   4.348   7.905  1.4815  2.4775  3.1997
  139OSM   C14F15234   4.976   4.250   8.069 -0.1614 -0.3088  0.2505
  139OSM   H14F15235   5.016   4.149   8.044 -2.4195 -1.4683  1.0884
  139OSM   H14G15236   4.874   4.240   8.111 -0.6111 -0.5344 -0.8552
  139OSM   C15F15237   5.070   4.332   8.157  0.2214 -0.0351 -0.1538
  139OSM   H15F15238   5.013   4.420   8.194 -0.7030 -1.7551  2.8927
  139OSM   H15G15239   5.164   4.363   8.107  0.2391  1.2903  0.6586
  139OSM   C16F15240   5.115   4.243   8.277  0.7103 -0.4852  0.4395
  139OSM   H16F15241   5.166   4.156   8.232 -1.5984 -2.2221  1.0270
  139OSM   H16G15242   5.026   4.210   8.334  0.4253  0.5627  0.6357
  139OSM   C17F15243   5.196   4.316   8.375 -0.2269  0.1839  0.1397
  139OSM   H17F15244   5.160   4.420   8.387  1.6769  0.9848 -0.6626
  139OSM   H17G15245   5.298   4.326   8.332 -0.0870  0.8751  0.6155
  139OSM   C18F15246   5.205   4.233   8.506  1.0422 -0.0612  0.3704
  139OSM   H18F15247   5.232   4.127   8.484  0.4698  0.3024 -2.4680
  139OSM   H18G15248   5.103   4.240   8.550  0.3635 -0.8129 -1.0189
  139OSM   H18H15249   5.268   4.279   8.585  1.7437 -0.1625 -0.1258
  140OSM      N15250   4.452   5.812   6.349 -0.5642  0.1870  0.1022
  140OSM    C1515251   4.460   5.900   6.226  0.0400  0.1047 -0.7607
  140OSM   H15A15252   4.464   5.845   6.133 -0.8324 -2.6548  0.7128
  140OSM   H15B15253   4.538   5.974   6.238 -0.9874  0.8422  2.3472
  140OSM   H15C15254   4.374   5.964   6.220  0.5276  0.7772 -0.7038
  140OSM    C1415255   4.583   5.739   6.363 -0.0505 -0.2568  0.0401
  140OSM   H14A15256   4.581   5.659   6.436  0.3034  0.6568  1.0628
  140OSM   H14B15257   4.665   5.801   6.395  0.4290  0.3835 -2.2386
  140OSM   H14C15258   4.611   5.688   6.271  2.7889  1.0197  0.1178
  140OSM    C1315259   4.429   5.889   6.475  0.3172  0.6024  0.3100
  140OSM   H13A15260   4.338   5.947   6.483  0.2728  0.3917  1.5040
  140OSM   H13B15261   4.515   5.954   6.486  0.6213  0.3693 -0.6295
  140OSM   H13C15262   4.418   5.831   6.565  0.8105  1.4414  0.9392
  140OSM    C1215263   4.338   5.718   6.331 -1.0711 -0.2923 -0.7054
  140OSM   H12A15264   4.363   5.657   6.245  0.6913 -1.1916  0.3881
  140OSM   H12B15265   4.251   5.778   6.306 -1.0928 -0.4824 -1.1007
  140OSM    C1115266   4.310   5.610   6.442 -0.6631 -0.4060 -0.5791
  140OSM   H11A15267   4.213   5.572   6.403 -0.6276 -0.5903 -0.4873
  140OSM   H11B15268   4.309   5.655   6.543  0.6988  1.6152 -1.3890
  140OSM      P15269   4.393   5.380   6.545 -0.0515 -0.1144 -0.0898
  140OSM    O1315270   4.431   5.262   6.468 -0.4740  0.1448 -0.2122
  140OSM    O1415271   4.472   5.394   6.669  0.5322  0.1578  0.5382
  140OSM    O1115272   4.238   5.364   6.572  0.2449  0.1111  0.7311
  140OSM    O1215273   4.404   5.513   6.452  0.2246  0.3966  0.3802
  140OSM    C1S15274   4.183   5.249   6.647 -0.2988 -0.6135  0.4212
  140OSM    H1S15275   4.253   5.163   6.642  0.6517  0.1036  0.9842
  140OSM    H1T15276   4.087   5.218   6.601  0.3382  1.3166 -2.5262
  140OSM     NF15277   4.138   5.175   6.881  0.4938  0.3895 -0.0953
  140OSM    HNF15278   4.042   5.169   6.907  0.3402 -0.1590 -0.7580
  140OSM    C2S15279   4.176   5.289   6.801  0.3420  0.2474  0.6057
  140OSM    H2S15280   4.273   5.327   6.840  0.6766  1.9009 -1.6121
  140OSM    C3S15281   4.073   5.408   6.812 -1.0752 -0.5420 -0.3624
  140OSM    H3S15282   3.975   5.378   6.769 -1.7440  1.8074 -0.6552
  140OSM     O315283   4.106   5.529   6.742  0.6222 -0.6768 -0.3273
  140OSM    HO315284   4.189   5.508   6.699  1.5702 -1.2883  1.6876
  140OSM    C4S15285   4.065   5.449   6.961 -0.5489  0.5302  0.6107
  140OSM    H4S15286   4.155   5.483   7.013 -0.1152  1.4095 -0.6774
  140OSM    C5S15287   3.958   5.432   7.041 -0.4442 -0.4157  0.3494
  140OSM    H5S15288   3.865   5.393   6.997 -0.8718  1.4853 -0.5328
  140OSM    C6S15289   3.962   5.458   7.184  0.2414  0.3014  0.0017
  140OSM    H6S15290   3.872   5.521   7.204 -0.8230  0.0643 -3.3849
  140OSM    H6T15291   4.050   5.518   7.214 -0.5542  0.1495  2.8977
  140OSM    C7S15292   3.945   5.329   7.271 -0.2635 -0.7384 -0.1816
  140OSM    H7S15293   4.021   5.252   7.248 -1.3350 -2.9473  2.9977
  140OSM    H7T15294   3.842   5.289   7.253 -0.9798 -0.0255  2.0042
  140OSM    C8S15295   3.939   5.372   7.419  0.1512 -0.1657  0.1753
  140OSM    H8S15296   3.868   5.456   7.439  0.5840 -0.4098  3.0633
  140OSM    H8T15297   4.043   5.403   7.444 -0.0351  0.6374  0.0148
  140OSM    C9S15298   3.907   5.259   7.514  0.2311 -0.3839 -0.1071
  140OSM    H9S15299   3.965   5.164   7.516  0.6173 -0.1481  0.1505
  140OSM    H9T15300   3.800   5.237   7.495  0.1380  1.3363 -1.9230
  140OSM   C10S15301   3.924   5.311   7.664  0.0385  0.4685  0.2179
  140OSM   H10S15302   3.860   5.399   7.686  2.4296  2.1357  0.8887
  140OSM   H10T15303   4.026   5.355   7.675 -0.0959  0.3991  2.0633
  140OSM   C11S15304   3.908   5.201   7.768  0.0933  0.2548 -0.4360
  140OSM   H11S15305   3.991   5.133   7.742  0.5973  0.9247 -0.6187
  140OSM   H11T15306   3.807   5.164   7.738 -0.5136  3.0157 -2.2429
  140OSM   C12S15307   3.930   5.240   7.916  0.3400  0.2047 -0.4087
  140OSM   H12S15308   3.847   5.314   7.927  0.6101  0.8345 -2.2994
  140OSM   H12T15309   4.031   5.279   7.939 -0.6599  0.9678  3.4835
  140OSM   C13S15310   3.915   5.119   8.007  0.3896 -0.1225  0.3462
  140OSM   H13S15311   3.992   5.044   7.979  0.3594  0.4728 -1.5057
  140OSM   H13T15312   3.817   5.074   7.982 -1.8707  2.9984  2.8921
  140OSM   C14S15313   3.917   5.151   8.160 -0.4675  0.2650  0.4313
  140OSM   H14S15314   3.824   5.210   8.175 -1.2197 -0.4427 -1.2188
  140OSM   H14T15315   4.001   5.215   8.195 -0.5632 -0.5961  2.3798
  140OSM   C15S15316   3.930   5.030   8.251 -0.5563  0.0142 -0.3407
  140OSM   H15S15317   4.036   4.998   8.256 -0.3787  0.7648  1.0675
  140OSM   H15T15318   3.876   4.940   8.215  1.6938 -2.4610  2.0506
  140OSM   C16S15319   3.898   5.057   8.403 -0.5388 -0.8300  0.1359
  140OSM   H16S15320   3.789   5.076   8.412  0.0063  2.2940  1.4597
  140OSM   H16T15321   3.948   5.150   8.436 -0.7620 -1.5822  2.7984
  140OSM   C17S15322   3.935   4.949   8.506  0.7634  0.0761 -0.4131
  140OSM   H17S15323   4.046   4.947   8.502  0.7917  1.8414 -1.4905
  140OSM   H17T15324   3.892   4.850   8.477  1.0727  0.3582 -1.9186
  140OSM   C18S15325   3.872   4.984   8.639  0.1065 -0.5021 -0.0937
  140OSM   H18S15326   3.764   4.991   8.617  0.2787  0.5566 -0.6738
  140OSM   H18T15327   3.903   5.087   8.669 -1.9231  0.4588 -1.1055
  140OSM   H18U15328   3.896   4.916   8.723  2.1662 -0.3100 -0.4641
  140OSM    C1F15329   4.219   5.063   6.911 -0.7201 -0.5635 -0.2762
  140OSM     OF15330   4.330   5.050   6.863 -0.5417  0.6685  0.1118
  140OSM    C2F15331   4.164   4.963   7.010  0.0651 -0.5513  0.1344
  140OSM    H2F15332   4.117   4.885   6.947 -0.6958  0.7911 -1.0372
  140OSM    H2G15333   4.091   5.021   7.070  2.2489  2.4503  0.1391
  140OSM    C3F15334   4.278   4.891   7.092  0.5184  0.2302  0.2631
  140OSM    H3F15335   4.344   4.967   7.138  1.2040  0.2815 -0.7906
  140OSM    H3G15336   4.342   4.831   7.025 -1.1748 -0.3386 -0.9193
  140OSM    C4F15337   4.210   4.790   7.184 -0.1732 -0.3728 -1.1962
  140OSM    H4F15338   4.292   4.738   7.239  0.1374  0.9523 -0.3502
  140OSM    H4G15339   4.165   4.716   7.115  2.0207 -3.3013  0.3082
  140OSM    C5F15340   4.098   4.839   7.277  0.5656 -0.2367 -0.2217
  140OSM    H5F15341   4.015   4.862   7.207  1.4091 -1.6605 -1.7640
  140OSM    H5G15342   4.140   4.931   7.322 -2.2795  0.7622  0.5720
  140OSM    C6F15343   4.034   4.730   7.370 -0.9899  0.6412 -0.6296
  140OSM    H6F15344   4.004   4.646   7.305  2.1903 -2.0754  1.0631
  140OSM    H6G15345   3.939   4.762   7.418 -0.6857 -3.7400  3.6514
  140OSM    C7F15346   4.131   4.688   7.488  1.2295  0.8465  0.0607
  140OSM    H7F15347   4.213   4.632   7.440 -0.5212 -0.4020 -1.6438
  140OSM    H7G15348   4.086   4.605   7.546  2.2357  1.5831  1.9733
  140OSM    C8F15349   4.189   4.798   7.584 -0.3694 -0.2170  0.0252
  140OSM    H8F15350   4.255   4.877   7.542  0.8746 -1.1763  0.1415
  140OSM    H8G15351   4.244   4.741   7.661  1.2050  2.5426  1.0696
  140OSM    C9F15352   4.063   4.863   7.638 -0.4374  0.0224 -0.2645
  140OSM    H9F15353   4.026   4.950   7.582 -3.0618 -1.8643 -1.6885
  140OSM   C10F15354   4.009   4.841   7.761  0.0439 -0.3194  0.2461
  140OSM   H10F15355   3.922   4.897   7.797 -0.0181 -2.3451  3.6445
  140OSM   C11F15356   4.057   4.739   7.859 -0.5447 -0.1910 -0.3156
  140OSM   H11F15357   4.114   4.806   7.928  1.4204 -0.8385 -1.2209
  140OSM   H11G15358   4.128   4.671   7.809  0.6198  0.8831 -0.1871
  140OSM   C12F15359   3.958   4.669   7.961  0.0151  0.1707 -0.4789
  140OSM   H12F15360   3.895   4.603   7.897 -0.6168 -1.3206  1.5704
  140OSM   H12G15361   3.903   4.752   8.010 -0.6601  0.3313 -1.4782
  140OSM   C13F15362   4.034   4.576   8.054  0.2810  0.4370 -0.2747
  140OSM   H13F15363   4.101   4.629   8.125 -0.2447 -0.6188  1.0555
  140OSM   H13G15364   4.110   4.521   7.995  0.0244 -1.3568  0.9990
  140OSM   C14F15365   3.940   4.483   8.124 -1.0014 -0.7536  0.7057
  140OSM   H14F15366   3.888   4.426   8.043  0.1575 -0.8572  0.0185
  140OSM   H14G15367   3.864   4.527   8.193 -0.8919  0.9812 -0.2181
  140OSM   C15F15368   4.018   4.377   8.209  0.4054 -0.9485  0.3782
  140OSM   H15F15369   4.094   4.330   8.143  1.7078  0.2245  1.0003
  140OSM   H15G15370   3.954   4.289   8.233 -1.4375 -0.3108 -1.8521
  140OSM   C16F15371   4.077   4.436   8.339 -0.2512 -0.0018 -0.4118
  140OSM   H16F15372   3.998   4.458   8.415  0.6319  2.9278 -0.2098
  140OSM   H16G15373   4.129   4.533   8.323  1.7822 -0.5301  2.3805
  140OSM   C17F15374   4.186   4.352   8.400  0.6367  0.2098 -0.3164
  140OSM   H17F15375   4.230   4.415   8.480  0.0246 -0.0437  0.2287
  140OSM   H17G15376   4.272   4.342   8.331  1.2249  0.5552  0.3567
  140OSM   C18F15377   4.149   4.219   8.453 -0.1013  0.0383 -0.3150
  140OSM   H18F15378   4.080   4.169   8.381 -0.6021  3.2330 -2.2519
  140OSM   H18G15379   4.091   4.224   8.548 -0.1676  0.6756 -0.3813
  140OSM   H18H15380   4.235   4.150   8.466 -0.6345 -0.1015  4.7206
  141OSM      N15381   3.443   0.913   6.154 -0.0181  0.0822  0.0628
  141OSM    C1515382   3.348   1.022   6.119 -0.3891  0.0859 -0.7699
  141OSM   H15A15383   3.360   1.111   6.179  2.8944 -0.6270 -0.1710
  141OSM   H15B15384   3.245   0.989   6.118  0.5710 -3.2456 -1.3230
  141OSM   H15C15385   3.370   1.041   6.015  1.2618 -0.4331 -0.5340
  141OSM    C1415386   3.422   0.800   6.058 -0.7321 -0.2308 -0.1284
  141OSM   H14A15387   3.327   0.750   6.067 -2.5644  2.9856  0.0212
  141OSM   H14B15388   3.502   0.728   6.064 -2.4022 -2.1534  0.1559
  141OSM   H14C15389   3.420   0.835   5.956  1.8992 -1.9176 -0.8495
  141OSM    C1315390   3.581   0.964   6.132 -0.0859  0.0625 -0.1573
  141OSM   H13A15391   3.653   0.897   6.177  0.9923  0.9617 -0.4723
  141OSM   H13B15392   3.595   1.057   6.185  1.5998 -1.2127  1.8190
  141OSM   H13C15393   3.603   0.979   6.027  0.6964 -0.9130 -0.1452
  141OSM    C1215394   3.425   0.873   6.295 -0.3022 -0.2051  0.1133
  141OSM   H12A15395   3.323   0.836   6.301 -0.6725  0.6155 -0.7091
  141OSM   H12B15396   3.423   0.964   6.354 -2.1929 -1.4155  2.0525
  141OSM    C1115397   3.518   0.770   6.361  0.3278  0.0879 -0.3682
  141OSM   H11A15398   3.487   0.754   6.467 -0.3286  1.3673 -0.3461
  141OSM   H11B15399   3.619   0.816   6.374  1.1101 -0.8390 -2.7295
  141OSM      P15400   3.434   0.524   6.329 -0.8047  0.0372  0.0630
  141OSM    O1315401   3.329   0.564   6.424  0.1343  0.3695 -1.0972
  141OSM    O1415402   3.392   0.473   6.196  0.3042  0.0276  0.7446
  141OSM    O1115403   3.527   0.404   6.394  0.3970  0.0607 -0.4385
  141OSM    O1215404   3.527   0.648   6.294 -0.2660  0.8747 -0.0382
  141OSM    C1S15405   3.641   0.433   6.479  0.1002 -0.3721 -0.3277
  141OSM    H1S15406   3.677   0.536   6.458  1.3307 -0.5279  0.9002
  141OSM    H1T15407   3.721   0.357   6.466  2.3088  1.6449  0.7110
  141OSM     NF15408   3.710   0.508   6.706  0.7641  0.3718  0.5747
  141OSM    HNF15409   3.783   0.444   6.729  0.1128 -0.3323  0.7105
  141OSM    C2S15410   3.601   0.442   6.632 -0.5329  0.1772 -0.1325
  141OSM    H2S15411   3.514   0.512   6.630 -0.1042  0.7272 -2.1867
  141OSM    C3S15412   3.558   0.303   6.681 -0.0455  0.1167  0.2798
  141OSM    H3S15413   3.650   0.240   6.684 -0.2854 -0.2418  0.2127
  141OSM     O315414   3.458   0.233   6.599  0.3339 -0.0699 -0.1013
  141OSM    HO315415   3.442   0.291   6.525 -0.8801 -1.0597 -0.6561
  141OSM    C4S15416   3.514   0.290   6.831 -0.1324  0.0854  0.3846
  141OSM    H4S15417   3.597   0.260   6.896  0.6911 -1.0029 -1.1018
  141OSM    C5S15418   3.389   0.317   6.865 -0.4923 -0.8175  0.3567
  141OSM    H5S15419   3.325   0.340   6.778  2.0505  1.0570 -1.1710
  141OSM    C6S15420   3.329   0.298   7.000 -0.2681 -0.6466 -0.1444
  141OSM    H6S15421   3.264   0.208   7.001 -0.7675 -0.2863 -0.2866
  141OSM    H6T15422   3.270   0.388   7.027  0.7424 -0.0476  0.1479
  141OSM    C7S15423   3.448   0.284   7.104  0.2118 -0.3429 -0.4933
  141OSM    H7S15424   3.529   0.359   7.086  1.7755 -1.8611 -0.0078
  141OSM    H7T15425   3.487   0.181   7.093  0.7227 -0.2208  0.1052
  141OSM    C8S15426   3.394   0.282   7.251  0.3052 -0.1037 -0.0629
  141OSM    H8S15427   3.317   0.204   7.268 -0.9284  0.6722 -1.7359
  141OSM    H8T15428   3.345   0.377   7.283  1.8614  0.3930  0.9266
  141OSM    C9S15429   3.504   0.254   7.355 -0.5553  0.0053 -0.3408
  141OSM    H9S15430   3.590   0.317   7.325  1.1752 -2.7772 -1.6886
  141OSM    H9T15431   3.547   0.151   7.350 -0.2722  0.1608 -1.1670
  141OSM   C10S15432   3.458   0.261   7.499 -0.5635 -0.5166  0.1890
  141OSM   H10S15433   3.401   0.172   7.531 -2.6190  0.7758  0.3048
  141OSM   H10T15434   3.375   0.333   7.519 -1.5340 -1.5977  0.1198
  141OSM   C11S15435   3.580   0.279   7.595 -0.4486 -0.0161  0.5155
  141OSM   H11S15436   3.631   0.378   7.586 -1.0246  0.2236 -0.1890
  141OSM   H11T15437   3.646   0.192   7.575 -0.3214  0.1916  0.0042
  141OSM   C12S15438   3.552   0.267   7.738  0.0894 -0.4667 -0.0910
  141OSM   H12S15439   3.571   0.160   7.764 -0.6076 -1.2779 -2.6124
  141OSM   H12T15440   3.446   0.296   7.753  0.6582  1.7039  0.0383
  141OSM   C13S15441   3.636   0.365   7.815  0.1665  0.6273 -0.0114
  141OSM   H13S15442   3.624   0.469   7.779  2.2347  0.5325 -1.1636
  141OSM   H13T15443   3.743   0.346   7.790  0.2415  1.2497 -0.1703
  141OSM   C14S15444   3.619   0.345   7.962 -0.2620  0.6224 -0.5907
  141OSM   H14S15445   3.649   0.240   7.984  0.6048  1.5933  3.8452
  141OSM   H14T15446   3.514   0.359   7.997 -0.8279 -0.3103 -1.8507
  141OSM   C15S15447   3.707   0.430   8.059  0.0488  0.5153 -0.3490
  141OSM   H15S15448   3.816   0.409   8.063  0.2114  0.7382 -2.5570
  141OSM   H15T15449   3.647   0.414   8.151 -1.2643 -1.5349 -1.4742
  141OSM   C16S15450   3.705   0.586   8.036 -0.1489 -0.5196  0.2131
  141OSM   H16S15451   3.756   0.614   7.942 -1.7637  1.2815 -0.2043
  141OSM   H16T15452   3.773   0.620   8.118 -0.8576  0.5659  0.3707
  141OSM   C17S15453   3.565   0.647   8.043 -0.6734 -0.1144  0.6143
  141OSM   H17S15454   3.508   0.595   8.124  1.1432  1.8916  3.3820
  141OSM   H17T15455   3.517   0.623   7.946 -0.3189 -0.3482  0.4977
  141OSM   C18S15456   3.582   0.797   8.069 -0.1164 -0.0728 -0.1834
  141OSM   H18S15457   3.479   0.839   8.075  0.1493  0.6915 -0.8026
  141OSM   H18T15458   3.640   0.849   7.989  2.1299 -1.6927  0.3026
  141OSM   H18U15459   3.635   0.813   8.165  1.6745 -1.3937 -0.9027
  141OSM    C1F15460   3.735   0.638   6.692 -0.5536 -0.0303  0.6320
  141OSM     OF15461   3.661   0.709   6.631 -0.8543  0.2989 -0.2486
  141OSM    C2F15462   3.857   0.687   6.760  0.2662 -0.6114 -0.6657
  141OSM    H2F15463   3.854   0.794   6.791  0.9074 -0.3356 -1.5034
  141OSM    H2G15464   3.944   0.698   6.692  0.6404 -1.0551 -0.2645
  141OSM    C3F15465   3.912   0.604   6.876  0.0670 -0.8296 -0.0379
  141OSM    H3F15466   3.984   0.527   6.840 -0.4879 -0.9601 -0.8993
  141OSM    H3G15467   3.829   0.552   6.930 -0.4320 -0.4771 -0.4564
  141OSM    C4F15468   3.993   0.684   6.979  0.8327 -0.4696  0.3366
  141OSM    H4F15469   4.005   0.612   7.063 -1.8463 -2.3559 -0.7482
  141OSM    H4G15470   3.934   0.771   7.017  0.4823 -1.3167  1.8211
  141OSM    C5F15471   4.133   0.730   6.934  0.4832 -0.1004 -0.3014
  141OSM    H5F15472   4.127   0.796   6.845 -0.6953 -1.5328 -1.3435
  141OSM    H5G15473   4.184   0.640   6.891  0.6936 -0.3570  0.4757
  141OSM    C6F15474   4.220   0.791   7.050 -0.4229  0.2479  0.2405
  141OSM    H6F15475   4.247   0.708   7.118  0.5998  0.5866  0.2694
  141OSM    H6G15476   4.157   0.867   7.101  1.5778  1.9980  0.2452
  141OSM    C7F15477   4.338   0.859   6.986 -0.0595  0.5120 -0.5580
  141OSM    H7F15478   4.308   0.941   6.917  2.4999  0.9751 -1.1892
  141OSM    H7G15479   4.396   0.796   6.917  0.4756  0.6103 -0.2041
  141OSM    C8F15480   4.449   0.917   7.076 -0.0111  0.1896 -0.4458
  141OSM    H8F15481   4.524   0.973   7.016  1.2695 -0.2089  0.7366
  141OSM    H8G15482   4.493   0.825   7.120  0.3221  0.3981 -0.3426
  141OSM    C9F15483   4.386   1.014   7.170  0.2438  0.6208  0.1460
  141OSM    H9F15484   4.349   1.109   7.129 -0.8573 -0.6851 -2.0493
  141OSM   C10F15485   4.383   0.987   7.301 -0.7268  0.5390  0.3947
  141OSM   H10F15486   4.334   1.059   7.368 -0.6159  0.3168  0.7179
  141OSM   C11F15487   4.442   0.867   7.380 -0.4717  0.3744  0.4813
  141OSM   H11F15488   4.544   0.831   7.351 -0.7960 -0.1907  0.0220
  141OSM   H11G15489   4.383   0.774   7.369 -1.3471  1.0279 -0.4997
  141OSM   C12F15490   4.448   0.895   7.532 -0.0938  0.1894  0.0281
  141OSM   H12F15491   4.493   0.991   7.566 -0.3649  0.3426 -0.0463
  141OSM   H12G15492   4.508   0.818   7.586 -0.0947  0.2430  0.1067
  141OSM   C13F15493   4.305   0.891   7.599  0.5341  0.1222  0.2272
  141OSM   H13F15494   4.251   0.796   7.574 -0.1794  0.6255 -0.1775
  141OSM   H13G15495   4.255   0.976   7.549  1.0859 -0.9887 -2.4121
  141OSM   C14F15496   4.299   0.921   7.749 -0.7900 -0.1005  0.2379
  141OSM   H14F15497   4.193   0.943   7.773 -0.4763  2.1392 -0.2277
  141OSM   H14G15498   4.359   1.012   7.769 -0.3043 -0.1795 -0.7981
  141OSM   C15F15499   4.366   0.814   7.844  0.9446 -0.0533  0.4544
  141OSM   H15F15500   4.392   0.866   7.939  0.6571  2.6909 -0.8837
  141OSM   H15G15501   4.466   0.784   7.804  1.0025 -0.4544  0.8923
  141OSM   C16F15502   4.273   0.686   7.871  0.2342 -0.8234 -1.1361
  141OSM   H16F15503   4.327   0.612   7.934  0.8426  0.0227 -0.6347
  141OSM   H16G15504   4.253   0.641   7.772  0.9977  0.0952 -1.7261
  141OSM   C17F15505   4.146   0.722   7.944  0.2357 -0.0892  0.4360
  141OSM   H17F15506   4.089   0.629   7.962 -0.0981  0.2647  1.2944
  141OSM   H17G15507   4.097   0.786   7.868  0.6527  1.7714  1.6614
  141OSM   C18F15508   4.156   0.800   8.078 -0.0175  0.0021  0.2434
  141OSM   H18F15509   4.205   0.729   8.149 -0.5971 -1.8593 -1.1351
  141OSM   H18G15510   4.050   0.812   8.108  0.5221 -1.3793  3.1074
  141OSM   H18H15511   4.203   0.899   8.062  0.4023 -0.3855 -0.9790
  142OSM      N15512   4.923   6.403   6.157  0.2518  0.6386 -0.4766
  142OSM    C1515513   4.796   6.399   6.075 -0.4711 -0.1490  0.6559
  142OSM   H15A15514   4.779   6.502   6.045  1.4947 -0.3014 -1.1684
  142OSM   H15B15515   4.714   6.365   6.136  0.0339  0.5145  1.7446
  142OSM   H15C15516   4.811   6.340   5.986 -0.4470  0.5713  0.1696
  142OSM    C1415517   4.955   6.267   6.204 -0.2426  1.6043  0.2185
  142OSM   H14A15518   4.967   6.199   6.120 -0.1290  2.8220 -0.7843
  142OSM   H14B15519   4.878   6.234   6.273  0.8193  2.6806  1.9625
  142OSM   H14C15520   5.049   6.258   6.255 -0.0476 -2.1869 -0.4951
  142OSM    C1315521   5.035   6.462   6.081  0.2549 -0.0132  0.4432
  142OSM   H13A15522   5.019   6.563   6.045 -1.2539 -0.9118 -1.5959
  142OSM   H13B15523   5.068   6.415   5.990 -1.5453  2.2841 -1.5408
  142OSM   H13C15524   5.120   6.456   6.148 -1.3578  1.7404  2.8581
  142OSM    C1215525   4.902   6.484   6.290 -0.1931 -0.0961  0.2861
  142OSM   H12A15526   4.821   6.430   6.338 -0.0553 -1.2651 -0.7298
  142OSM   H12B15527   4.870   6.586   6.276 -1.3143 -0.4435  0.2092
  142OSM    C1115528   5.028   6.475   6.395 -0.4620 -0.1336 -0.0860
  142OSM   H11A15529   5.044   6.367   6.415  0.4784 -0.5516 -2.7102
  142OSM   H11B15530   5.000   6.531   6.487 -1.2406  0.1173 -0.4627
  142OSM      P15531   5.190   6.682   6.344  0.2718 -0.1370  0.5077
  142OSM    O1315532   5.302   6.690   6.246 -0.5024  0.1554 -0.8984
  142OSM    O1415533   5.072   6.764   6.320 -0.2875  0.2132  0.5936
  142OSM    O1115534   5.236   6.694   6.490 -0.2659  0.3183 -0.1178
  142OSM    O1215535   5.148   6.531   6.334 -0.8438  0.2615  0.3830
  142OSM    C1S15536   5.313   6.588   6.554 -0.5841 -0.1984  0.0980
  142OSM    H1S15537   5.419   6.595   6.522 -0.2282  0.8716  1.3893
  142OSM    H1T15538   5.279   6.487   6.525 -0.7352  0.2378 -1.3272
  142OSM     NF15539   5.392   6.483   6.768 -0.4195  0.2218 -0.2787
  142OSM    HNF15540   5.350   6.420   6.833 -0.8394 -0.8154 -1.5162
  142OSM    C2S15541   5.314   6.603   6.709 -0.9427  0.5548 -0.1383
  142OSM    H2S15542   5.379   6.692   6.727 -1.3937  0.7734  0.4549
  142OSM    C3S15543   5.173   6.624   6.772  0.7377  0.0095  0.4973
  142OSM    H3S15544   5.112   6.534   6.751 -1.0955  0.6176  2.8369
  142OSM     O315545   5.094   6.726   6.700 -0.1807  0.2770 -0.6299
  142OSM    HO315546   5.136   6.750   6.617  2.1683  0.5581  0.5538
  142OSM    C4S15547   5.181   6.647   6.921 -0.0634  0.7431  0.4402
  142OSM    H4S15548   5.160   6.555   6.977 -0.7539  0.8462  0.3645
  142OSM    C5S15549   5.207   6.762   6.983  0.3856  0.1982 -0.1117
  142OSM    H5S15550   5.230   6.848   6.919  0.6225  0.0417 -0.2395
  142OSM    C6S15551   5.212   6.785   7.129 -0.1503 -1.0228 -0.2069
  142OSM    H6S15552   5.122   6.843   7.159  1.5445  1.1352  1.0792
  142OSM    H6T15553   5.300   6.847   7.156 -2.1066  1.5593  0.7013
  142OSM    C7S15554   5.228   6.661   7.213 -0.3721  0.0959  0.1938
  142OSM    H7S15555   5.310   6.593   7.181 -1.5631 -0.3628 -2.1831
  142OSM    H7T15556   5.128   6.611   7.214 -0.6450  0.6308  1.4424
  142OSM    C8S15557   5.275   6.699   7.352  0.7870 -0.3316  1.4677
  142OSM    H8S15558   5.209   6.784   7.381  0.6950 -0.6094  2.0832
  142OSM    H8T15559   5.371   6.751   7.369 -0.7025  2.6800  1.3269
  142OSM    C9S15560   5.275   6.580   7.450 -0.2851  0.2711  0.3634
  142OSM    H9S15561   5.350   6.505   7.417  1.7811  2.0045  0.9138
  142OSM    H9T15562   5.179   6.524   7.452  0.9313 -1.9065  1.8388
  142OSM   C10S15563   5.297   6.616   7.600 -0.6097  0.0247 -0.2974
  142OSM   H10S15564   5.293   6.520   7.655 -1.0918  0.2915  0.1382
  142OSM   H10T15565   5.205   6.671   7.628 -1.6072 -2.0558  0.7438
  142OSM   C11S15566   5.421   6.708   7.633  0.3706  0.8260 -0.5163
  142OSM   H11S15567   5.404   6.810   7.591  0.9826  1.2354  0.2063
  142OSM   H11T15568   5.508   6.659   7.584  1.5052  0.5179  1.6586
  142OSM   C12S15569   5.447   6.731   7.783  0.6443 -0.3778  0.3658
  142OSM   H12S15570   5.449   6.629   7.826 -0.7632 -0.7492 -0.4041
  142OSM   H12T15571   5.357   6.779   7.826 -0.2220 -2.4059  0.8792
  142OSM   C13S15572   5.570   6.813   7.807 -0.3245 -0.1656  0.2916
  142OSM   H13S15573   5.539   6.911   7.763  0.6050  0.9007  1.9207
  142OSM   H13T15574   5.661   6.777   7.756 -1.5265 -0.5827 -1.6747
  142OSM   C14S15575   5.587   6.853   7.954  0.3387  0.3061  0.5218
  142OSM   H14S15576   5.489   6.895   7.985 -0.7789 -1.6639 -0.1279
  142OSM   H14T15577   5.672   6.925   7.954  0.4674  0.2044 -1.2631
  142OSM   C15S15578   5.639   6.729   8.043 -0.2223 -0.1560  0.0295
  142OSM   H15S15579   5.740   6.713   8.000 -1.3943 -0.2197 -2.9576
  142OSM   H15T15580   5.574   6.640   8.028  0.0505 -0.2305 -0.7559
  142OSM   C16S15581   5.627   6.767   8.190  0.4928 -0.3064  0.4454
  142OSM   H16S15582   5.518   6.784   8.201  0.5416  0.8462 -0.6140
  142OSM   H16T15583   5.683   6.860   8.213 -0.9718  0.1575  2.4284
  142OSM   C17S15584   5.671   6.649   8.273 -0.4597  0.0469 -0.3737
  142OSM   H17S15585   5.775   6.627   8.241 -0.0803  2.3611 -0.9232
  142OSM   H17T15586   5.616   6.558   8.242  1.2940 -1.3412  0.4216
  142OSM   C18S15587   5.649   6.670   8.427 -0.5505  0.4491 -0.0787
  142OSM   H18S15588   5.691   6.769   8.458  0.0972  0.3957 -0.7658
  142OSM   H18T15589   5.705   6.589   8.478 -2.5353 -0.8830  0.0794
  142OSM   H18U15590   5.540   6.662   8.445 -0.3218  0.5610  1.5064
  142OSM    C1F15591   5.520   6.464   6.763 -0.0558  1.1790  0.1592
  142OSM     OF15592   5.590   6.543   6.698 -0.1509  0.5725 -0.1280
  142OSM    C2F15593   5.574   6.343   6.839  0.7162  0.3277 -0.3273
  142OSM    H2F15594   5.623   6.280   6.762  0.9614 -3.6749  2.8020
  142OSM    H2G15595   5.491   6.286   6.886 -0.4966  0.8263 -1.7692
  142OSM    C3F15596   5.685   6.375   6.941 -0.5233  0.0997 -0.1350
  142OSM    H3F15597   5.752   6.445   6.886  0.1378 -0.0459  0.4740
  142OSM    H3G15598   5.738   6.281   6.964 -2.4887 -0.3924  3.0447
  142OSM    C4F15599   5.653   6.457   7.074  0.2868  0.8248  1.2811
  142OSM    H4F15600   5.595   6.541   7.030  0.3062  0.6968  1.0064
  142OSM    H4G15601   5.751   6.488   7.117  0.7810 -0.9638  1.4966
  142OSM    C5F15602   5.564   6.398   7.186 -0.2508 -0.8178  0.0339
  142OSM    H5F15603   5.505   6.316   7.139  0.1768 -2.2672  1.8978
  142OSM    H5G15604   5.493   6.474   7.224  0.9158  0.1182  0.4197
  142OSM    C6F15605   5.640   6.338   7.307 -0.5410 -0.0500 -0.0488
  142OSM    H6F15606   5.711   6.266   7.260 -0.4326 -0.4323  0.6865
  142OSM    H6G15607   5.569   6.282   7.371 -0.8663 -1.5320 -1.6350
  142OSM    C7F15608   5.716   6.451   7.392 -0.4737  0.4364  0.0388
  142OSM    H7F15609   5.652   6.542   7.401  0.0340  0.9445 -1.2129
  142OSM    H7G15610   5.805   6.486   7.336 -2.0845  1.3208 -2.1300
  142OSM    C8F15611   5.765   6.386   7.529  0.8320 -0.5041 -0.0264
  142OSM    H8F15612   5.850   6.444   7.571  0.2254  1.4035 -1.2774
  142OSM    H8G15613   5.797   6.284   7.501  1.9772  0.1359 -1.1778
  142OSM    C9F15614   5.657   6.365   7.629 -0.5138 -0.0912 -0.4520
  142OSM    H9F15615   5.557   6.354   7.585 -1.9561 -1.2559  2.8013
  142OSM   C10F15616   5.661   6.389   7.758  0.4629  0.0802  0.1686
  142OSM   H10F15617   5.574   6.376   7.823 -0.7811  2.2843 -0.9166
  142OSM   C11F15618   5.787   6.423   7.836  0.9455  0.4181  0.3292
  142OSM   H11F15619   5.793   6.532   7.859 -1.0993  0.7107 -0.3415
  142OSM   H11G15620   5.878   6.418   7.771  1.2576  0.3797  0.7646
  142OSM   C12F15621   5.793   6.334   7.958  0.0810 -0.1526 -0.8442
  142OSM   H12F15622   5.794   6.224   7.942 -0.9587 -0.7661  2.4212
  142OSM   H12G15623   5.704   6.346   8.024  0.6913 -2.6847  0.6184
  142OSM   C13F15624   5.906   6.373   8.055  0.5437  0.4323  0.6053
  142OSM   H13F15625   5.882   6.466   8.111 -0.4042  0.4418  0.2064
  142OSM   H13G15626   6.009   6.391   8.020  0.5267  1.6083  1.1319
  142OSM   C14F15627   5.928   6.269   8.172 -0.2197  0.0875  0.1484
  142OSM   H14F15628   5.831   6.237   8.216 -0.1525  2.0747  1.8906
  142OSM   H14G15629   5.989   6.324   8.246  0.0851 -0.3297  0.2076
  142OSM   C15F15630   5.997   6.141   8.123 -0.0440 -0.3381  0.4343
  142OSM   H15F15631   6.098   6.175   8.091 -0.7020  1.0132 -0.2848
  142OSM   H15G15632   5.938   6.117   8.031 -0.0682  1.5300 -0.0678
  142OSM   C16F15633   6.012   6.037   8.239  0.7757  0.3499 -0.0176
  142OSM   H16F15634   5.914   5.991   8.263  1.0123  1.0592  2.6012
  142OSM   H16G15635   6.045   6.087   8.332 -1.1268 -2.0971  2.1609
  142OSM   C17F15636   6.120   5.928   8.200  0.1718 -0.3461 -0.4986
  142OSM   H17F15637   6.220   5.976   8.210 -0.3479  0.5255  0.8241
  142OSM   H17G15638   6.114   5.908   8.091  0.6817 -2.9911 -0.0996
  142OSM   C18F15639   6.120   5.801   8.273 -0.1220 -0.4514 -0.6911
  142OSM   H18F15640   6.208   5.737   8.253  2.2874  2.5181 -0.2314
  142OSM   H18G15641   6.026   5.750   8.243 -0.8007 -0.5235  1.3742
  142OSM   H18H15642   6.106   5.821   8.382  0.3596  0.7585 -0.8420
  143OSM      N15643   0.537   4.775   6.024  0.4824  0.3995  0.7894
  143OSM    C1515644   0.426   4.740   6.117  0.3499 -0.0857 -0.4368
  143OSM   H15A15645   0.331   4.719   6.068 -0.5316  3.2671 -0.4201
  143OSM   H15B15646   0.410   4.814   6.194 -1.6339 -1.9845  1.1373
  143OSM   H15C15647   0.453   4.651   6.172 -2.0338 -1.0420 -0.6815
  143OSM    C1415648   0.539   4.678   5.914 -0.0498  0.4255 -0.1191
  143OSM   H14A15649   0.609   4.700   5.835  3.3629 -1.7217  2.0289
  143OSM   H14B15650   0.437   4.667   5.881 -0.2653 -0.9521  0.8848
  143OSM   H14C15651   0.578   4.587   5.957  1.5533  0.3328 -1.6619
  143OSM    C1315652   0.508   4.903   5.956 -0.3184 -0.5849  0.8578
  143OSM   H13A15653   0.584   4.937   5.887 -0.6949 -0.6267  0.4197
  143OSM   H13B15654   0.491   4.984   6.025  0.3286  0.2170  0.1076
  143OSM   H13C15655   0.419   4.906   5.896  0.2327  0.3560  0.0485
  143OSM    C1215656   0.667   4.782   6.100 -0.7729  1.0758  0.3429
  143OSM   H12A15657   0.657   4.864   6.170 -0.2845  0.2567  1.4025
  143OSM   H12B15658   0.751   4.819   6.042 -0.3657  1.4285  1.1231
  143OSM    C1115659   0.700   4.660   6.185  0.2438  0.1159 -0.3252
  143OSM   H11A15660   0.624   4.664   6.265 -0.0993  1.9534 -0.7014
  143OSM   H11B15661   0.798   4.672   6.235  0.6754 -0.6306 -0.9675
  143OSM      P15662   0.826   4.481   6.050 -0.2130  0.5038  0.1564
  143OSM    O1315663   0.779   4.384   5.946  0.4737 -0.1099  0.5485
  143OSM    O1415664   0.918   4.589   6.005 -0.0054 -0.0194 -0.5925
  143OSM    O1115665   0.911   4.390   6.152 -0.2776 -0.1517  0.5497
  143OSM    O1215666   0.697   4.533   6.123 -0.3253 -0.2597 -0.2733
  143OSM    C1S15667   0.937   4.432   6.284  0.1329 -0.0929  0.3925
  143OSM    H1S15668   0.961   4.540   6.293  0.2451 -0.0366 -0.5125
  143OSM    H1T15669   1.023   4.375   6.325  1.8465  1.7631 -0.5097
  143OSM     NF15670   0.865   4.447   6.522  0.2696 -0.1506 -0.5679
  143OSM    HNF15671   0.871   4.373   6.588 -2.7575 -2.0899 -2.2201
  143OSM    C2S15672   0.818   4.399   6.392 -0.1816 -0.2564  1.0663
  143OSM    H2S15673   0.735   4.466   6.361  1.6448  0.2370 -3.6067
  143OSM    C3S15674   0.751   4.253   6.384 -0.0324 -0.7228  0.7714
  143OSM    H3S15675   0.828   4.191   6.435  0.8311  0.1693  0.5959
  143OSM     O315676   0.731   4.207   6.251  0.4777  0.8050 -0.6960
  143OSM    HO315677   0.789   4.264   6.201 -1.8498  1.9478 -2.3090
  143OSM    C4S15678   0.630   4.267   6.471 -0.1071 -0.1153  0.0451
  143OSM    H4S15679   0.581   4.364   6.452  2.0476  0.9742 -0.1896
  143OSM    C5S15680   0.583   4.182   6.567 -0.4401  0.2485  0.4711
  143OSM    H5S15681   0.625   4.083   6.593 -3.2020 -1.2828 -0.3839
  143OSM    C6S15682   0.452   4.201   6.636  0.3297  0.0601 -0.5599
  143OSM    H6S15683   0.382   4.119   6.610  2.2039 -0.9539 -2.7784
  143OSM    H6T15684   0.403   4.297   6.610 -0.0605 -0.4709 -1.8360
  143OSM    C7S15685   0.460   4.200   6.793  0.0122 -0.3829 -0.0616
  143OSM    H7S15686   0.480   4.101   6.840  2.1011  1.1621  2.6044
  143OSM    H7T15687   0.361   4.234   6.831  0.5350  1.6657 -0.4484
  143OSM    C8S15688   0.571   4.289   6.844 -0.6958  0.2428 -0.4948
  143OSM    H8S15689   0.556   4.388   6.796  0.6484  1.3202  1.1712
  143OSM    H8T15690   0.671   4.248   6.817 -0.4412  0.0494  0.6796
  143OSM    C9S15691   0.581   4.299   6.993 -0.6278 -0.4325  0.0549
  143OSM    H9S15692   0.586   4.198   7.038  0.8037 -0.0463  0.8454
  143OSM    H9T15693   0.498   4.362   7.032 -0.4516 -1.3023  1.9225
  143OSM   C10S15694   0.711   4.370   7.039  0.2129  0.0026  0.6636
  143OSM   H10S15695   0.728   4.454   6.968  3.4017 -1.6560 -0.7258
  143OSM   H10T15696   0.796   4.299   7.033  0.5326  0.4639 -0.7084
  143OSM   C11S15697   0.688   4.427   7.184  0.0925 -0.5521 -0.3010
  143OSM   H11S15698   0.632   4.351   7.243 -0.0237 -0.2349 -0.0021
  143OSM   H11T15699   0.618   4.513   7.175 -2.4282 -2.3712  0.6819
  143OSM   C12S15700   0.825   4.467   7.246  0.3273 -0.0614 -0.1427
  143OSM   H12S15701   0.870   4.551   7.188  0.4181  0.7894  1.1344
  143OSM   H12T15702   0.889   4.376   7.245  0.0082 -0.2959  0.5480
  143OSM   C13S15703   0.811   4.517   7.396 -0.1915 -0.1447  0.3255
  143OSM   H13S15704   0.721   4.583   7.395  0.6402  1.0490  1.1217
  143OSM   H13T15705   0.900   4.582   7.410  0.4730 -0.5746 -1.6369
  143OSM   C14S15706   0.794   4.394   7.494  0.2894 -0.0258 -0.0522
  143OSM   H14S15707   0.867   4.322   7.452  0.6112  0.3617 -0.1650
  143OSM   H14T15708   0.697   4.344   7.471 -0.2938  1.6401 -1.4426
  143OSM   C15S15709   0.830   4.430   7.638  0.1760  0.0605 -0.0256
  143OSM   H15S15710   0.930   4.480   7.641 -0.4214  1.5813 -2.7161
  143OSM   H15T15711   0.830   4.327   7.680  0.2228 -0.2833 -0.8642
  143OSM   C16S15712   0.739   4.511   7.725 -0.1839 -0.2500 -0.5323
  143OSM   H16S15713   0.633   4.478   7.719  0.0453 -0.8132 -2.2810
  143OSM   H16T15714   0.734   4.616   7.688  2.9466 -0.2004 -1.0885
  143OSM   C17S15715   0.769   4.499   7.880 -0.3514 -0.1528  0.3680
  143OSM   H17S15716   0.671   4.528   7.924 -0.5234 -0.6030  0.2837
  143OSM   H17T15717   0.851   4.562   7.921 -2.6927  2.1087  1.9307
  143OSM   C18S15718   0.792   4.355   7.935 -0.0246 -0.1234  0.1773
  143OSM   H18S15719   0.791   4.351   8.046  1.3124  0.3980  0.2265
  143OSM   H18T15720   0.888   4.308   7.906 -0.9248 -0.9150 -1.6634
  143OSM   H18U15721   0.708   4.288   7.904  1.1136 -1.7287  0.4652
  143OSM    C1F15722   0.901   4.566   6.565 -0.1384 -0.2113 -0.5209
  143OSM     OF15723   0.901   4.663   6.487 -0.2721  0.4916 -0.0609
  143OSM    C2F15724   0.956   4.577   6.706  0.0278 -0.0285 -0.0665
  143OSM    H2F15725   1.062   4.547   6.694 -0.4256 -0.7214 -3.1469
  143OSM    H2G15726   0.915   4.497   6.771 -0.9841  1.5296  1.2963
  143OSM    C3F15727   0.949   4.729   6.764  0.5348 -0.2132 -0.0825
  143OSM    H3F15728   0.847   4.770   6.756  0.0352 -1.3136  0.4775
  143OSM    H3G15729   1.024   4.787   6.706 -0.3405  0.6213 -0.3890
  143OSM    C4F15730   0.997   4.751   6.906 -0.3078  0.1149  0.0613
  143OSM    H4F15731   0.934   4.698   6.981  0.7412 -0.7234  0.3793
  143OSM    H4G15732   1.005   4.856   6.942  4.1580  0.1889 -0.5208
  143OSM    C5F15733   1.140   4.703   6.941 -0.2650  0.6700 -0.7992
  143OSM    H5F15734   1.215   4.740   6.867 -0.9602  1.3559 -1.1753
  143OSM    H5G15735   1.143   4.593   6.926  1.0329  0.3526  1.4574
  143OSM    C6F15736   1.184   4.728   7.091  0.7087  0.9078  0.4022
  143OSM    H6F15737   1.106   4.684   7.157  1.1111  0.7678  0.7859
  143OSM    H6G15738   1.188   4.839   7.099 -0.0457  0.9307  0.5797
  143OSM    C7F15739   1.328   4.673   7.123  0.2973 -0.1172  0.4451
  143OSM    H7F15740   1.400   4.735   7.065  0.5044  0.1344  0.9636
  143OSM    H7G15741   1.354   4.567   7.105  0.7856  0.0907 -0.1240
  143OSM    C8F15742   1.349   4.693   7.272 -0.2841 -0.6127 -0.1936
  143OSM    H8F15743   1.315   4.791   7.311 -1.4138 -1.3054  0.6431
  143OSM    H8G15744   1.457   4.672   7.288  0.1048 -0.3080 -2.2101
  143OSM    C9F15745   1.281   4.591   7.350 -0.0978  0.2496  0.6645
  143OSM    H9F15746   1.228   4.516   7.289 -1.5302  0.9083  1.0484
  143OSM   C10F15747   1.275   4.581   7.486 -0.2048  0.2030  0.1992
  143OSM   H10F15748   1.218   4.495   7.524  2.5400 -1.7933  0.0524
  143OSM   C11F15749   1.345   4.670   7.588  0.4176 -0.8091 -0.5068
  143OSM   H11F15750   1.351   4.773   7.546  2.7943  0.6710  3.0038
  143OSM   H11G15751   1.449   4.636   7.610  0.0349 -1.9197 -0.3451
  143OSM   C12F15752   1.254   4.686   7.719 -0.2090  0.4909  0.0118
  143OSM   H12F15753   1.236   4.585   7.762  2.3270  0.3120  0.8464
  143OSM   H12G15754   1.155   4.724   7.687 -1.5775 -1.7318  1.3041
  143OSM   C13F15755   1.323   4.772   7.827 -0.2190 -0.0569 -0.1516
  143OSM   H13F15756   1.336   4.879   7.798  1.9165 -0.1108  0.4442
  143OSM   H13G15757   1.428   4.736   7.832  0.1329  0.8868 -0.4774
  143OSM   C14F15758   1.254   4.768   7.958 -0.3659  0.5515 -0.5921
  143OSM   H14F15759   1.251   4.659   7.981  1.0135  0.7871  0.9184
  143OSM   H14G15760   1.154   4.815   7.949 -0.9545  0.3102  3.1375
  143OSM   C15F15761   1.323   4.850   8.076  0.9134  0.5528  0.3209
  143OSM   H15F15762   1.255   4.878   8.160  0.7655 -1.3854  0.8975
  143OSM   H15G15763   1.360   4.949   8.040  0.3874  0.5049 -0.3711
  143OSM   C16F15764   1.434   4.773   8.155  0.3865 -0.4539  0.9281
  143OSM   H16F15765   1.508   4.743   8.078  0.7322  0.6131  0.8226
  143OSM   H16G15766   1.386   4.679   8.188 -0.3824 -1.8129 -3.3362
  143OSM   C17F15767   1.497   4.850   8.272 -0.3231  0.1488 -0.1288
  143OSM   H17F15768   1.580   4.782   8.300 -0.8109 -1.2058 -1.8294
  143OSM   H17G15769   1.421   4.841   8.353 -0.8866 -1.1314 -0.7750
  143OSM   C18F15770   1.518   4.998   8.244  0.9696  0.2891 -0.4861
  143OSM   H18F15771   1.419   5.048   8.234  0.8814 -0.1168 -1.8609
  143OSM   H18G15772   1.567   5.008   8.145  0.0613  0.4633 -0.9320
  143OSM   H18H15773   1.574   5.044   8.328  1.3403 -0.3564 -0.3764
  144OSM      N15774   5.808   3.801   6.417 -0.3679 -0.1690 -0.5191
  144OSM    C1515775   5.708   3.725   6.508  0.1659  0.3604  0.2286
  144OSM   H15A15776   5.756   3.649   6.567 -2.8463 -1.3238  0.7301
  144OSM   H15B15777   5.630   3.672   6.454 -0.6333  1.5064  0.2090
  144OSM   H15C15778   5.662   3.792   6.579  0.5822 -1.3307  2.1778
  144OSM    C1415779   5.738   3.907   6.345  0.0998 -0.6600  0.4325
  144OSM   H14A15780   5.711   3.985   6.414  0.2503 -1.0358  0.9231
  144OSM   H14B15781   5.651   3.866   6.296 -0.8833  0.5898  1.0890
  144OSM   H14C15782   5.798   3.953   6.268 -1.9706 -0.4996 -1.1492
  144OSM    C1315783   5.915   3.867   6.503  0.3729 -0.6377  0.2757
  144OSM   H13A15784   5.886   3.944   6.573  0.2866 -0.9821  0.6245
  144OSM   H13B15785   5.983   3.916   6.436 -0.6139  2.3653  1.3327
  144OSM   H13C15786   5.980   3.800   6.558  0.3099 -1.2752 -0.4095
  144OSM    C1215787   5.875   3.708   6.318 -0.0887  0.8073  0.0684
  144OSM   H12A15788   5.799   3.676   6.249  0.2634 -1.0200  0.4859
  144OSM   H12B15789   5.916   3.622   6.369  2.6508  0.7492 -2.0030
  144OSM    C1115790   5.993   3.769   6.232 -0.8014  0.1614  0.4761
  144OSM   H11A15791   5.970   3.871   6.195  1.0276  0.7591  0.8604
  144OSM   H11B15792   5.997   3.711   6.137 -1.1504  0.2334  0.4169
  144OSM      P15793   6.194   3.627   6.328  0.0225  0.2151 -0.1114
  144OSM    O1315794   6.104   3.532   6.400 -0.3543 -0.1312  0.6572
  144OSM    O1415795   6.254   3.588   6.201  0.1128  0.3028  0.4488
  144OSM    O1115796   6.309   3.662   6.427 -0.6393 -0.3787 -0.6297
  144OSM    O1215797   6.120   3.766   6.300 -0.2553 -0.6664 -0.4266
  144OSM    C1S15798   6.278   3.759   6.535 -0.7598 -0.1245 -0.2587
  144OSM    H1S15799   6.170   3.785   6.543 -0.8132 -0.5973  0.8255
  144OSM    H1T15800   6.332   3.853   6.511 -0.9761 -0.7027 -3.4336
  144OSM     NF15801   6.280   3.795   6.778 -0.2009  0.2701  0.9462
  144OSM    HNF15802   6.348   3.817   6.846 -1.2241  0.3675  1.9695
  144OSM    C2S15803   6.326   3.708   6.674 -0.4980 -0.0188  0.1102
  144OSM    H2S15804   6.276   3.609   6.672  2.6815 -1.7420 -1.1248
  144OSM    C3S15805   6.479   3.684   6.665  0.4200  0.1122 -0.7987
  144OSM    H3S15806   6.546   3.773   6.668 -0.5338  0.8215  0.8601
  144OSM     O315807   6.530   3.620   6.542  0.1214 -0.4649 -1.1694
  144OSM    HO315808   6.458   3.630   6.480  0.2541  0.5215 -1.1822
  144OSM    C4S15809   6.515   3.606   6.795  0.0096 -0.6525  0.0121
  144OSM    H4S15810   6.534   3.671   6.881  2.3748 -1.9346  0.5167
  144OSM    C5S15811   6.522   3.475   6.813 -0.2420  0.2940 -0.4213
  144OSM    H5S15812   6.512   3.405   6.729  1.3285  0.8740 -1.1245
  144OSM    C6S15813   6.548   3.411   6.946  0.3972  0.4060 -0.3087
  144OSM    H6S15814   6.655   3.404   6.976 -0.0622 -0.7123  1.2382
  144OSM    H6T15815   6.523   3.303   6.952  2.0829 -0.1889 -2.9097
  144OSM    C7S15816   6.465   3.487   7.058  0.2462  0.0818 -0.2058
  144OSM    H7S15817   6.355   3.473   7.055  0.2444 -0.1367  0.6247
  144OSM    H7T15818   6.485   3.595   7.074  0.6116 -0.1928  1.2636
  144OSM    C8S15819   6.519   3.437   7.194 -0.3793 -0.5234  0.1814
  144OSM    H8S15820   6.621   3.481   7.203 -0.1815 -0.8510 -0.4764
  144OSM    H8T15821   6.536   3.328   7.184  1.1916 -0.2126 -0.9316
  144OSM    C9S15822   6.428   3.458   7.319 -0.7407  0.2558  0.0015
  144OSM    H9S15823   6.325   3.425   7.297 -1.1840  1.7674 -0.2763
  144OSM    H9T15824   6.420   3.569   7.322  0.5087  0.3618  0.0793
  144OSM   C10S15825   6.481   3.408   7.457  0.1221  0.1940  0.2202
  144OSM   H10S15826   6.586   3.437   7.478  0.1649 -0.1321  0.4711
  144OSM   H10T15827   6.495   3.298   7.460  0.7962  0.2711  3.9768
  144OSM   C11S15828   6.393   3.449   7.574 -0.0068  0.2870  0.0730
  144OSM   H11S15829   6.306   3.380   7.582 -0.6282  1.1183  0.7307
  144OSM   H11T15830   6.356   3.553   7.564  0.5022  0.2870 -2.1045
  144OSM   C12S15831   6.460   3.439   7.709  0.0437  0.1241 -0.5110
  144OSM   H12S15832   6.560   3.486   7.702  0.4288 -0.6598 -0.4541
  144OSM   H12T15833   6.488   3.333   7.729  1.5061  0.7469  0.8921
  144OSM   C13S15834   6.374   3.497   7.819 -0.0113 -0.1183  0.5740
  144OSM   H13S15835   6.287   3.428   7.822  0.4275 -1.0441 -3.2387
  144OSM   H13T15836   6.341   3.598   7.789  2.7382  0.1402 -2.0437
  144OSM   C14S15837   6.443   3.507   7.960 -0.6155  0.5252  0.1351
  144OSM   H14S15838   6.542   3.552   7.940 -0.1278 -0.3477  0.5482
  144OSM   H14T15839   6.469   3.406   7.998  1.7747  0.8386 -0.5320
  144OSM   C15S15840   6.360   3.595   8.055 -0.0989  0.2130 -0.7029
  144OSM   H15S15841   6.260   3.547   8.060  0.2683 -0.4508  1.0258
  144OSM   H15T15842   6.348   3.696   8.011  3.2482  0.1933 -1.9552
  144OSM   C16S15843   6.414   3.613   8.199  0.6822 -0.3014  0.1215
  144OSM   H16S15844   6.425   3.513   8.245  0.2047 -0.0762  0.7292
  144OSM   H16T15845   6.345   3.675   8.260  0.8913  0.7464 -0.6738
  144OSM   C17S15846   6.546   3.685   8.213 -0.2061 -0.7599  0.1693
  144OSM   H17S15847   6.533   3.787   8.171  0.1601 -1.5254 -1.9557
  144OSM   H17T15848   6.625   3.631   8.156 -0.7389  1.9389 -3.5068
  144OSM   C18S15849   6.592   3.693   8.367  0.1544  0.5857 -0.0848
  144OSM   H18S15850   6.665   3.776   8.377  0.6803  0.0688  0.4275
  144OSM   H18T15851   6.633   3.599   8.410 -0.4143  0.2550 -0.2589
  144OSM   H18U15852   6.510   3.722   8.437  1.2767  0.3354  1.3948
  144OSM    C1F15853   6.154   3.808   6.813  0.1129 -0.4113  0.4114
  144OSM     OF15854   6.064   3.747   6.764 -0.1649  0.9256  0.2667
  144OSM    C2F15855   6.128   3.897   6.927 -0.2041 -0.2518  0.3705
  144OSM    H2F15856   6.218   3.954   6.960 -1.1118  1.2652  0.3144
  144OSM    H2G15857   6.123   3.832   7.017  3.8912 -0.3712  0.6871
  144OSM    C3F15858   6.014   4.000   6.916  0.1661 -0.5383 -0.6624
  144OSM    H3F15859   5.927   3.948   6.869  0.0453  0.5860 -1.7369
  144OSM    H3G15860   6.046   4.080   6.845  1.7534 -0.1776  0.4144
  144OSM    C4F15861   5.972   4.052   7.062 -0.1358  0.2292 -0.0098
  144OSM    H4F15862   5.951   3.958   7.117  0.0513 -0.2357 -0.7147
  144OSM    H4G15863   5.879   4.109   7.048 -0.2427  0.1733  0.4577
  144OSM    C5F15864   6.069   4.126   7.148 -0.5262 -0.0622 -0.1658
  144OSM    H5F15865   6.092   4.218   7.089 -0.3481 -0.4357 -0.6804
  144OSM    H5G15866   6.163   4.067   7.146 -1.5124 -1.7344  0.5003
  144OSM    C6F15867   6.015   4.154   7.284 -0.1591  0.6239 -0.1909
  144OSM    H6F15868   6.014   4.054   7.333  2.1598 -0.5391 -2.2664
  144OSM    H6G15869   5.911   4.191   7.277 -0.0750  0.7108 -1.1445
  144OSM    C7F15870   6.104   4.242   7.370  0.3417 -0.1948 -0.1998
  144OSM    H7F15871   6.108   4.346   7.329 -2.1330  0.4720  1.0692
  144OSM    H7G15872   6.209   4.207   7.368  0.6495  0.5789  1.4549
  144OSM    C8F15873   6.047   4.253   7.519  0.0465 -0.0036 -0.5515
  144OSM    H8F15874   6.114   4.320   7.576 -1.1409 -0.0530  0.9780
  144OSM    H8G15875   6.050   4.152   7.567 -2.1784 -0.0356 -0.3472
  144OSM    C9F15876   5.910   4.313   7.544  0.4039  0.7838 -0.2492
  144OSM    H9F15877   5.831   4.260   7.489 -2.3778  1.4071  2.8371
  144OSM   C10F15878   5.878   4.428   7.611  0.1843  0.0635  0.0670
  144OSM   H10F15879   5.775   4.464   7.603  0.4892  0.8654 -0.3652
  144OSM   C11F15880   5.968   4.521   7.681  0.5134 -0.2010  0.4850
  144OSM   H11F15881   5.917   4.619   7.696  1.6008  0.5921 -0.7436
  144OSM   H11G15882   6.051   4.543   7.609  0.5824 -0.1392  0.5842
  144OSM   C12F15883   6.015   4.469   7.815 -0.1929  0.3523  0.4936
  144OSM   H12F15884   6.073   4.376   7.799 -0.9164  0.1658 -1.2407
  144OSM   H12G15885   5.929   4.444   7.881 -0.5851 -1.8231 -0.7391
  144OSM   C13F15886   6.099   4.568   7.896 -0.1334  0.1719  0.6342
  144OSM   H13F15887   6.039   4.660   7.909 -0.7032 -0.1353  0.1966
  144OSM   H13G15888   6.191   4.593   7.840 -0.0531 -0.9514  0.2257
  144OSM   C14F15889   6.124   4.533   8.044 -0.9598  0.7878  0.9550
  144OSM   H14F15890   6.139   4.423   8.054  1.1355  0.6382 -2.2790
  144OSM   H14G15891   6.032   4.557   8.100 -2.6206 -1.9818 -0.3392
  144OSM   C15F15892   6.246   4.604   8.094  0.3209  0.4004  0.4149
  144OSM   H15F15893   6.230   4.712   8.069 -3.0172 -0.3635 -1.2391
  144OSM   H15G15894   6.332   4.559   8.039 -0.5456 -2.1264  1.0110
  144OSM   C16F15895   6.266   4.579   8.241  0.0236  0.4740  0.0214
  144OSM   H16F15896   6.187   4.604   8.315  1.2186 -0.7639  1.7884
  144OSM   H16G15897   6.351   4.647   8.264  1.1707 -1.1754  0.8188
  144OSM   C17F15898   6.326   4.440   8.294  0.0611  0.7558  0.9809
  144OSM   H17F15899   6.424   4.414   8.248 -1.1240 -0.8957 -0.7284
  144OSM   H17G15900   6.253   4.359   8.275  1.6341 -1.7925  4.5708
  144OSM   C18F15901   6.331   4.444   8.443  0.5480  0.3998 -0.8966
  144OSM   H18F15902   6.392   4.530   8.476 -0.1877  1.6946 -2.6901
  144OSM   H18G15903   6.362   4.342   8.472  0.6592  0.2490 -1.5329
  144OSM   H18H15904   6.234   4.467   8.491  1.3350 -1.4297  1.7513
  145SAPE     N15905   6.306   4.099  10.726 -0.1237  0.1532  0.7748
  145SAPE   HN115906   6.343   4.145  10.641  1.3533 -1.7259  0.3326
  145SAPE   HN215907   6.259   4.165  10.791  0.4289 -1.2440  2.7044
  145SAPE   HN315908   6.382   4.056  10.783 -2.5337 -2.0550  2.5325
  145SAPE   C1215909   6.199   4.012  10.677  0.2328 -0.1662  0.1669
  145SAPE  H12A15910   6.151   3.955  10.759  0.0409 -0.2099  0.0241
  145SAPE  H12B15911   6.244   3.938  10.607  0.2193  1.8824 -2.1395
  145SAPE   C1115912   6.078   4.088  10.615 -0.3578  0.0109  0.0276
  145SAPE  H11A15913   6.009   4.006  10.585  1.9025 -2.2142  0.5605
  145SAPE  H11B15914   6.108   4.136  10.519  0.3076 -0.3179  0.0622
  145SAPE     P15915   5.868   4.189  10.715 -0.2635  0.0515 -0.4672
  145SAPE   O1315916   5.816   4.049  10.710 -0.1183 -0.6796  0.0503
  145SAPE   O1415917   5.832   4.259  10.840 -0.1631 -0.1752  0.3963
  145SAPE   O1215918   6.030   4.186  10.704 -0.1842 -0.3810  0.0357
  145SAPE   O1115919   5.822   4.276  10.595 -0.0393 -0.0956 -0.5440
  145SAPE    C115920   5.917   4.357  10.525  0.3014  0.7643 -0.2286
  145SAPE    HA15921   5.967   4.436  10.586  2.0037  0.6250 -1.3633
  145SAPE    HB15922   6.001   4.297  10.484 -0.1514  0.6516 -1.0054
  145SAPE    C215923   5.860   4.424  10.396 -0.3045  0.3550  0.1591
  145SAPE    HS15924   5.773   4.484  10.429 -1.9577 -1.9257  0.2071
  145SAPE   O2115925   5.834   4.323  10.305  0.6312  0.1687 -0.5642
  145SAPE   C2115926   5.707   4.286  10.301 -0.5929 -0.7935 -0.4979
  145SAPE   O2215927   5.620   4.331  10.371 -0.0041 -0.0263  0.2221
  145SAPE   C2215928   5.690   4.176  10.202  0.3603  0.3141 -0.6334
  145SAPE   H2R15929   5.770   4.099  10.209 -1.8320 -2.0749 -0.3261
  145SAPE   H2S15930   5.593   4.123  10.218 -0.6180  1.6565 -1.8426
  145SAPE    C315931   5.960   4.519  10.324 -0.1094  0.3250  0.5373
  145SAPE    HX15932   6.061   4.472  10.312 -0.0009  0.4547  0.9579
  145SAPE    HY15933   5.974   4.600  10.398  0.9063  0.2765  0.4108
  145SAPE   O3115934   5.900   4.572  10.197 -0.2521 -0.1753 -0.1243
  145SAPE   C3115935   5.966   4.674  10.136 -0.4239 -0.1812 -0.2699
  145SAPE   O3215936   6.077   4.714  10.170  0.2493 -0.0053  0.1735
  145SAPE   C3215937   5.894   4.709  10.010 -0.0122  0.3505 -0.2146
  145SAPE   H2X15938   5.828   4.795  10.034 -0.2565  0.1551 -0.1868
  145SAPE   H2Y15939   5.827   4.624   9.985 -0.8769  0.7424  0.6929
  145SAPE   C2315940   5.694   4.237  10.059  0.2865  0.6319  0.5578
  145SAPE   H3R15941   5.719   4.162   9.981  1.3051  2.2152 -0.6872
  145SAPE   H3S15942   5.766   4.320  10.047  1.6938 -0.6826 -0.4204
  145SAPE   C2415943   5.562   4.289  10.011  0.1842  1.1008 -0.4192
  145SAPE   H4R15944   5.581   4.370   9.938  1.3085  0.0196 -1.3536
  145SAPE   H4S15945   5.509   4.337  10.097  1.8222  1.5586  0.3812
  145SAPE   C2515946   5.463   4.190   9.964 -0.4876 -1.5107 -0.2040
  145SAPE   H5R15947   5.392   4.153  10.039  1.5002 -1.3054  1.8760
  145SAPE   C2615948   5.479   4.133   9.844  0.4680 -0.4884 -0.2337
  145SAPE   H6R15949   5.401   4.065   9.807  0.0393 -0.9645  1.4873
  145SAPE   C2715950   5.576   4.164   9.735  0.0393 -0.2933  0.4176
  145SAPE   H7R15951   5.670   4.214   9.769  1.5816 -2.0582 -0.9915
  145SAPE   H7S15952   5.521   4.228   9.663 -1.3529 -1.6659  0.2352
  145SAPE   C2815953   5.629   4.033   9.675 -0.3382 -0.3123 -0.1221
  145SAPE   H8R15954   5.686   3.978   9.752 -1.5855 -0.8749  0.4354
  145SAPE   C2915955   5.605   3.984   9.553 -0.5891  0.1294  1.2456
  145SAPE   H9R15956   5.634   3.883   9.523  0.4912  1.1341 -1.3519
  145SAPE  C21015957   5.532   4.065   9.447  0.4839  0.6211 -0.3019
  145SAPE  H10R15958   5.532   4.171   9.482 -1.2132  0.1735  1.1882
  145SAPE  H10S15959   5.429   4.027   9.435  0.2172  1.4820 -0.8346
  145SAPE  C21115960   5.589   4.048   9.306  0.1070 -0.7183  0.0964
  145SAPE  H11R15961   5.671   3.975   9.300  0.8774  0.1934 -0.9416
  145SAPE  C21215962   5.550   4.115   9.194 -0.2502 -0.8661 -0.1322
  145SAPE  H12R15963   5.599   4.096   9.097 -0.9435 -1.8942 -0.3001
  145SAPE  C21315964   5.431   4.212   9.185 -0.6308  0.2178  0.0878
  145SAPE  H13R15965   5.469   4.316   9.196 -1.6023  0.9273 -2.5544
  145SAPE  H13S15966   5.356   4.192   9.264  0.3312  0.4899  1.0951
  145SAPE  C21415967   5.372   4.194   9.043 -0.1067  0.5685 -0.0207
  145SAPE  H14R15968   5.302   4.108   9.039 -0.7046  1.0698 -2.7810
  145SAPE  C21515969   5.403   4.259   8.938 -0.0132  0.5325  0.1182
  145SAPE  H15R15970   5.348   4.241   8.844  2.4099 -1.1046 -1.0895
  145SAPE  C21615971   5.507   4.371   8.932  0.1844  0.7293  0.0551
  145SAPE  H16R15972   5.566   4.379   9.026 -2.8438 -0.3530  2.2050
  145SAPE  H16S15973   5.462   4.469   8.905 -0.6118  0.3951  0.1352
  145SAPE  C21715974   5.610   4.350   8.821 -0.1431  0.3457 -0.0459
  145SAPE  H17R15975   5.654   4.248   8.824  2.2210  1.2040 -2.1569
  145SAPE  H17S15976   5.700   4.410   8.843  0.0191  0.9811 -2.1743
  145SAPE  C21815977   5.556   4.358   8.675 -0.1720 -0.0204 -0.2098
  145SAPE  H18R15978   5.488   4.275   8.648  0.7023 -0.7383 -0.2656
  145SAPE  H18S15979   5.642   4.357   8.604  1.2573 -3.4227  1.3457
  145SAPE  C21915980   5.490   4.493   8.649 -0.0467  0.7634 -0.1360
  145SAPE  H19R15981   5.563   4.566   8.691 -0.7428  0.3200  1.9457
  145SAPE  H19S15982   5.395   4.505   8.706  0.1253  0.0678  0.3080
  145SAPE  C22015983   5.462   4.536   8.499 -0.0488  0.2894 -0.2776
  145SAPE  H20R15984   5.443   4.645   8.485 -0.5826  0.2317 -0.0017
  145SAPE  H20S15985   5.376   4.477   8.461 -0.0990  0.0465  0.2081
  145SAPE  H20T15986   5.546   4.501   8.436  1.6949  0.1180  1.9849
  145SAPE   C3315987   5.980   4.743   9.885 -0.3944  0.0819  0.2754
  145SAPE   H3X15988   6.014   4.649   9.837 -0.2512  1.9949 -3.8307
  145SAPE   H3Y15989   6.064   4.813   9.902  0.2055 -0.6041  0.1974
  145SAPE   C3415990   5.904   4.820   9.781 -0.2149  0.4425 -0.8636
  145SAPE   H4X15991   5.865   4.916   9.821  0.0418  0.5796 -0.9438
  145SAPE   H4Y15992   5.813   4.762   9.753 -0.7796  2.5448 -3.9336
  145SAPE   C3515993   5.977   4.842   9.642  0.3880  0.1193  0.0470
  145SAPE   H5X15994   5.986   4.747   9.585 -1.5791  0.5051 -1.0232
  145SAPE   H5Y15995   6.083   4.872   9.648  0.8304 -1.5557  4.6852
  145SAPE   C3615996   5.882   4.940   9.562  0.2122  0.2516 -0.2665
  145SAPE   H6X15997   5.869   5.031   9.624  1.0659 -1.4390  2.5617
  145SAPE   H6Y15998   5.784   4.889   9.551  1.1424 -1.8817  0.7643
  145SAPE   C3715999   5.921   4.997   9.417 -0.8835  0.0012 -0.0089
  145SAPE   H7X16000   5.833   5.053   9.381  0.3330  1.4293 -0.8400
  145SAPE   H7Y16001   5.945   4.922   9.339  0.3284  2.2052 -1.8508
  145SAPE   C3816002   6.036   5.096   9.412 -0.0180  0.3891 -0.4092
  145SAPE   H8X16003   6.128   5.045   9.449  0.2307  0.0506 -1.4803
  145SAPE   H8Y16004   6.012   5.188   9.469 -1.4670  1.8134 -3.1273
  145SAPE   C3916005   6.065   5.145   9.268  0.3577 -0.5980 -0.2384
  145SAPE   H9X16006   5.976   5.182   9.213 -0.4287 -2.8187 -0.5851
  145SAPE   H9Y16007   6.098   5.062   9.203  0.5642  0.2154 -1.1861
  145SAPE  C31016008   6.169   5.255   9.265 -0.2888  0.0895  0.3834
  145SAPE  H10X16009   6.260   5.216   9.317  1.2391 -0.0708 -2.2271
  145SAPE  H10Y16010   6.137   5.346   9.320  0.4962 -0.2566  1.4485
  145SAPE  C31116011   6.221   5.287   9.118 -0.7868  0.2358 -0.2099
  145SAPE  H11X16012   6.139   5.344   9.069  0.1343  0.0824 -2.0139
  145SAPE  H11Y16013   6.237   5.191   9.066 -0.0680 -0.3164  0.9892
  145SAPE  C31216014   6.349   5.369   9.123  0.1434  0.4519  0.3518
  145SAPE  H12X16015   6.436   5.312   9.162  1.2503  0.0421 -2.4773
  145SAPE  H12Y16016   6.331   5.460   9.184  1.5512  0.0205  1.4586
  145SAPE  C31316017   6.388   5.402   8.978  0.4568 -0.7464 -0.8878
  145SAPE  H13X16018   6.318   5.479   8.936 -3.0032 -1.8308  2.3520
  145SAPE  H13Y16019   6.368   5.318   8.908  1.0347 -2.5575  1.0579
  145SAPE  C31416020   6.527   5.455   8.979  0.4864  0.3564 -0.0211
  145SAPE  H14X16021   6.602   5.380   9.013  0.1186 -0.2692 -0.5527
  145SAPE  H14Y16022   6.530   5.534   9.057 -0.0522  2.2263 -1.7963
  145SAPE  C31516023   6.576   5.516   8.846  0.3435 -0.5498  0.0503
  145SAPE  H15X16024   6.654   5.592   8.868 -1.2017  1.9271 -2.4551
  145SAPE  H15Y16025   6.502   5.559   8.776 -0.3573 -1.7630  0.0194
  145SAPE  C31616026   6.643   5.406   8.763 -0.9196  0.9912  0.2951
  145SAPE  H16X16027   6.563   5.333   8.738 -0.0965  1.1197 -3.1460
  145SAPE  H16Y16028   6.714   5.342   8.819 -0.9017 -0.3135 -1.1798
  145SAPE  C31716029   6.709   5.451   8.632  0.6849  0.2200 -0.7728
  145SAPE  H17X16030   6.656   5.528   8.572  0.5855  0.0494 -0.9083
  145SAPE  H17Y16031   6.716   5.353   8.578 -1.4008 -0.1734 -0.4169
  145SAPE  C31816032   6.847   5.507   8.649 -0.1340  0.1874  0.4677
  145SAPE  H18X16033   6.891   5.538   8.552  1.2161  0.2731  1.0911
  145SAPE  H18Y16034   6.917   5.433   8.693 -0.5132 -0.4420  0.0279
  145SAPE  H18Z16035   6.842   5.600   8.709 -0.6458  1.4281 -1.3960
  146SAPE     N16036   6.529   5.854  10.457  0.1286  0.4318  0.2077
  146SAPE   HN116037   6.480   5.910  10.529 -0.9521 -1.5728  1.1223
  146SAPE   HN216038   6.592   5.929  10.422 -1.0814  0.6302 -1.7344
  146SAPE   HN316039   6.465   5.824  10.380  1.5002 -3.3855  0.3382
  146SAPE   C1216040   6.610   5.741  10.519  0.1701 -0.7403 -0.2484
  146SAPE  H12A16041   6.668   5.792  10.599  1.2394 -2.0103 -0.1802
  146SAPE  H12B16042   6.683   5.700  10.446  2.5879 -0.7275  2.0345
  146SAPE   C1116043   6.520   5.636  10.583  0.3522 -0.2576 -0.3958
  146SAPE  H11A16044   6.597   5.566  10.622 -0.2211 -0.9310 -0.4651
  146SAPE  H11B16045   6.449   5.592  10.510 -0.3177 -0.4631  0.3737
  146SAPE     P16046   6.357   5.619  10.787  0.4046 -0.0109 -0.4076
  146SAPE   O1316047   6.370   5.474  10.771 -0.1751 -0.1989  1.2922
  146SAPE   O1416048   6.373   5.677  10.923  0.0506 -0.2904  0.2192
  146SAPE   O1216049   6.449   5.697  10.693  0.5074 -0.7129  0.3681
  146SAPE   O1116050   6.218   5.684  10.745 -0.0421  0.9312 -0.3410
  146SAPE    C116051   6.108   5.610  10.702  0.2190  0.5265  0.2140
  146SAPE    HA16052   6.104   5.510  10.749 -2.2435  1.6344  2.6750
  146SAPE    HB16053   6.017   5.671  10.721 -0.1465 -0.7006  2.7455
  146SAPE    C216054   6.111   5.596  10.548 -0.3924 -0.2181  0.8641
  146SAPE    HS16055   6.012   5.559  10.513  0.0279 -0.5347 -0.0090
  146SAPE   O2116056   6.218   5.514  10.506 -0.4213 -0.0130 -0.1038
  146SAPE   C2116057   6.189   5.384  10.516  0.1915 -0.1496 -0.4796
  146SAPE   O2216058   6.085   5.331  10.555 -0.0528 -0.0921  0.0165
  146SAPE   C2216059   6.320   5.308  10.486  0.0626  0.5283  0.2300
  146SAPE   H2R16060   6.394   5.356  10.552 -0.4321  1.7557 -0.0713
  146SAPE   H2S16061   6.311   5.204  10.523  1.2126  1.0829  2.1745
  146SAPE    C316062   6.126   5.743  10.485  0.1110 -0.0286  0.3148
  146SAPE    HX16063   6.215   5.797  10.523 -0.4100  0.8379  0.3349
  146SAPE    HY16064   6.038   5.804  10.515 -1.0228 -2.0185  1.2373
  146SAPE   O3116065   6.106   5.717  10.345 -0.3751  0.3472 -0.0092
  146SAPE   C3116066   6.218   5.699  10.273 -0.2754  0.0280  0.2179
  146SAPE   O3216067   6.325   5.729  10.310  0.4175 -0.4728  0.0924
  146SAPE   C3216068   6.192   5.656  10.130  0.5461  0.3436 -0.0374
  146SAPE   H2X16069   6.113   5.716  10.080  0.5533  0.7040  0.3844
  146SAPE   H2Y16070   6.150   5.553  10.135  1.3403 -0.1704 -2.6266
  146SAPE   C2316071   6.358   5.313  10.339  0.5612 -0.0634 -0.8441
  146SAPE   H3R16072   6.351   5.415  10.296  2.2717  0.1311 -0.7106
  146SAPE   H3S16073   6.282   5.252  10.285 -1.2098  1.3848 -0.1126
  146SAPE   C2416074   6.488   5.247  10.310 -0.5949  0.0483 -0.6190
  146SAPE   H4R16075   6.505   5.242  10.200 -1.4102  1.2536 -0.8257
  146SAPE   H4S16076   6.487   5.146  10.355 -0.9261 -0.1672 -1.1052
  146SAPE   C2516077   6.610   5.300  10.381  0.8714  0.3784 -0.2480
  146SAPE   H5R16078   6.614   5.271  10.487  1.1385 -0.1409 -0.3967
  146SAPE   C2616079   6.720   5.358  10.337  0.2756 -0.6190 -0.3087
  146SAPE   H6R16080   6.796   5.383  10.412  0.1734 -0.6234 -0.2034
  146SAPE   C2716081   6.739   5.407  10.197 -0.4710 -0.0970  0.4719
  146SAPE   H7R16082   6.690   5.329  10.136 -0.7050  1.2569 -1.1590
  146SAPE   H7S16083   6.844   5.426  10.166 -1.8185 -0.0532 -5.0117
  146SAPE   C2816084   6.669   5.540  10.170 -0.1341 -0.5528  0.3675
  146SAPE   H8R16085   6.577   5.549  10.229 -1.4540 -0.4442 -1.6090
  146SAPE   C2916086   6.701   5.635  10.071  0.6622  0.8102 -0.4984
  146SAPE   H9R16087   6.647   5.730  10.067 -1.9210 -0.5477  0.2607
  146SAPE  C21016088   6.809   5.610   9.966  1.2076 -0.2338  0.3530
  146SAPE  H10R16089   6.842   5.505   9.949  0.8827  0.0042 -2.1325
  146SAPE  H10S16090   6.886   5.684   9.996 -0.5840  1.7397  0.3117
  146SAPE  C21116091   6.750   5.640   9.825 -0.4713 -0.0633  0.0957
  146SAPE  H11R16092   6.655   5.588   9.803 -1.1371  1.3088 -0.3817
  146SAPE  C21216093   6.801   5.725   9.734  0.4245  0.1745  0.6271
  146SAPE  H12R16094   6.747   5.733   9.639  3.8567 -2.9537 -1.9089
  146SAPE  C21316095   6.928   5.803   9.750 -0.3749  0.3965  0.5100
  146SAPE  H13R16096   7.012   5.751   9.799  1.1451 -2.0067 -4.0634
  146SAPE  H13S16097   6.912   5.886   9.822 -0.8178  0.1286  0.7257
  146SAPE  C21416098   6.989   5.836   9.612  0.0358  0.7360  0.1908
  146SAPE  H14R16099   7.033   5.750   9.560  0.1577  1.3600 -0.7597
  146SAPE  C21516100   6.983   5.960   9.549 -0.7706 -0.1650 -0.8707
  146SAPE  H15R16101   7.031   5.961   9.449  0.3877 -2.2296 -0.3926
  146SAPE  C21616102   6.919   6.085   9.612  0.0639 -0.0868 -0.0552
  146SAPE  H16R16103   6.999   6.160   9.626 -0.0110 -0.0767  0.3344
  146SAPE  H16S16104   6.884   6.067   9.716  0.2283  1.9520  0.3819
  146SAPE  C21716105   6.804   6.159   9.537  0.2195  0.5557 -0.1491
  146SAPE  H17R16106   6.797   6.264   9.571 -0.0198  0.5135 -0.0694
  146SAPE  H17S16107   6.707   6.113   9.567  0.6667  0.7072  1.6227
  146SAPE  C21816108   6.807   6.170   9.384  0.5507  0.7702  0.0498
  146SAPE  H18R16109   6.796   6.066   9.347 -0.5112  0.8457  0.1019
  146SAPE  H18S16110   6.904   6.202   9.340  0.1432  0.3178 -1.2452
  146SAPE  C21916111   6.689   6.244   9.327  0.0694 -0.2135 -1.3199
  146SAPE  H19R16112   6.706   6.351   9.353  0.6683 -0.8344  1.1578
  146SAPE  H19S16113   6.590   6.224   9.374  0.4033 -0.5399 -0.7432
  146SAPE  C22016114   6.671   6.222   9.178 -0.4027  0.2021  0.7616
  146SAPE  H20R16115   6.568   6.251   9.148 -0.4079  0.9044  1.4275
  146SAPE  H20S16116   6.667   6.111   9.166  1.7758 -0.0671  2.0240
  146SAPE  H20T16117   6.746   6.271   9.112  3.2128 -2.5722  2.4322
  146SAPE   C3316118   6.307   5.658  10.027  0.0147  0.1482  0.0183
  146SAPE   H3X16119   6.274   5.592   9.944 -0.3692 -1.2108  1.2121
  146SAPE   H3Y16120   6.382   5.588  10.070  0.2268  0.7294  0.6096
  146SAPE   C3416121   6.348   5.792   9.980 -0.2509  0.0168 -0.4352
  146SAPE   H4X16122   6.441   5.773   9.921  0.1066  0.2654  0.0340
  146SAPE   H4Y16123   6.368   5.863  10.064  0.6614 -1.1642  0.3726
  146SAPE   C3516124   6.260   5.863   9.874  0.2199 -0.7320 -0.4550
  146SAPE   H5X16125   6.157   5.871   9.917 -0.0069  0.0089 -1.1164
  146SAPE   H5Y16126   6.267   5.802   9.781  2.0855 -1.1855 -0.0604
  146SAPE   C3616127   6.320   6.003   9.845 -0.3299 -0.1475 -0.4207
  146SAPE   H6X16128   6.420   5.969   9.808  1.2156  1.3100  2.1337
  146SAPE   H6Y16129   6.333   6.046   9.947  0.5773  1.4085 -1.1468
  146SAPE   C3716130   6.253   6.107   9.754 -0.8078  0.5135 -0.1748
  146SAPE   H7X16131   6.309   6.202   9.757  1.0062 -0.4724 -1.3660
  146SAPE   H7Y16132   6.155   6.132   9.801  0.5210  1.9953  2.0052
  146SAPE   C3816133   6.226   6.062   9.617  0.4803 -0.2038  0.6330
  146SAPE   H8X16134   6.158   6.137   9.570 -0.3748 -1.2293  0.1704
  146SAPE   H8Y16135   6.162   5.971   9.620  0.6514 -0.3269  0.5462
  146SAPE   C3916136   6.341   6.040   9.522 -0.0410 -0.5083  0.3405
  146SAPE   H9X16137   6.407   5.957   9.554 -1.5529 -0.7398  3.0935
  146SAPE   H9Y16138   6.397   6.135   9.510 -0.9400 -0.1010 -0.8524
  146SAPE  C31016139   6.288   5.992   9.388 -0.5521 -0.0728 -0.8304
  146SAPE  H10X16140   6.209   6.063   9.354 -0.3492 -0.3095 -1.8395
  146SAPE  H10Y16141   6.254   5.887   9.394  1.9640 -0.8778  0.9481
  146SAPE  C31116142   6.402   5.991   9.286 -0.8048 -0.4568  0.0711
  146SAPE  H11X16143   6.502   5.944   9.302 -1.0382 -1.0359 -0.1733
  146SAPE  H11Y16144   6.407   6.101   9.266 -1.5806 -0.7003 -1.5934
  146SAPE  C31216145   6.360   5.940   9.148 -0.0910 -0.1839 -0.4770
  146SAPE  H12X16146   6.269   5.999   9.125 -0.1218 -0.4599 -1.1017
  146SAPE  H12Y16147   6.330   5.833   9.149  1.2973 -0.6092  1.6190
  146SAPE  C31316148   6.463   5.967   9.033 -0.6680  0.0241 -0.0946
  146SAPE  H13X16149   6.553   5.902   9.036  0.4991  1.4777 -1.7907
  146SAPE  H13Y16150   6.492   6.073   9.019  0.9114 -0.4187 -0.3245
  146SAPE  C31416151   6.402   5.921   8.899 -0.1639  0.1718 -0.3589
  146SAPE  H14X16152   6.304   5.973   8.896  0.4864  1.8038  2.6973
  146SAPE  H14Y16153   6.386   5.811   8.902 -0.4806  0.2202 -0.2228
  146SAPE  C31516154   6.497   5.964   8.784 -0.1461  0.2838  0.2246
  146SAPE  H15X16155   6.606   5.958   8.805 -0.8614 -1.1711  4.6626
  146SAPE  H15Y16156   6.492   6.073   8.765  3.6515  0.1988 -2.0832
  146SAPE  C31616157   6.468   5.894   8.656  0.5899  0.3071 -0.1228
  146SAPE  H16X16158   6.369   5.929   8.622  0.2134  2.2756  2.6112
  146SAPE  H16Y16159   6.463   5.784   8.669 -0.1776  0.0583 -2.1706
  146SAPE  C31716160   6.575   5.908   8.544  0.3734 -0.7883  0.6866
  146SAPE  H17X16161   6.527   5.856   8.459 -3.1509  1.7479  0.9302
  146SAPE  H17Y16162   6.668   5.856   8.576  0.0713 -2.0991 -0.4984
  146SAPE  C31816163   6.609   6.055   8.511 -0.2049 -0.3370  0.5399
  146SAPE  H18X16164   6.672   6.066   8.420 -0.5675  2.4373  0.5455
  146SAPE  H18Y16165   6.671   6.091   8.596  0.0714 -0.1660  0.2693
  146SAPE  H18Z16166   6.515   6.112   8.491  0.5347  0.6689 -0.1932
  147SAPE     N16167   0.382   0.650  11.151  0.3163  0.0516  0.0127
  147SAPE   HN116168   0.355   0.749  11.169  1.7500  0.6491 -0.9396
  147SAPE   HN216169   0.298   0.611  11.104  1.3251  1.1024 -2.9002
  147SAPE   HN316170   0.398   0.605  11.243  0.6624 -0.4028 -0.2688
  147SAPE   C1216171   0.503   0.647  11.059  0.4202  0.0649  0.5986
  147SAPE  H12A16172   0.502   0.549  11.006 -2.3549  0.6443 -0.5730
  147SAPE  H12B16173   0.598   0.659  11.115  1.2583 -1.2108 -0.4713
  147SAPE   C1116174   0.476   0.763  10.958  0.0198 -0.0232  0.2093
  147SAPE  H11A16175   0.387   0.734  10.898 -0.9692  0.8054  1.2240
  147SAPE  H11B16176   0.558   0.783  10.886 -0.8396  1.6114 -0.3691
  147SAPE     P16177   0.514   1.010  11.048 -0.1127 -0.1446  0.2073
  147SAPE   O1316178   0.423   1.114  11.104  0.0755  0.5422  0.4866
  147SAPE   O1416179   0.638   0.977  11.125 -0.2224 -0.3223 -0.1784
  147SAPE   O1216180   0.427   0.882  11.029 -0.8539 -0.1283 -0.0934
  147SAPE   O1116181   0.558   1.054  10.907  0.0053  0.3596 -0.0400
  147SAPE    C116182   0.466   1.123  10.814 -0.5197 -0.0294  0.1682
  147SAPE    HA16183   0.408   1.208  10.854 -1.7615 -0.3424 -0.9279
  147SAPE    HB16184   0.529   1.160  10.729 -2.4114  0.4528 -1.0776
  147SAPE    C216185   0.363   1.035  10.733 -1.1104 -0.1330  0.3984
  147SAPE    HS16186   0.281   1.004  10.801 -0.2412 -0.5536  1.2687
  147SAPE   O2116187   0.437   0.926  10.674 -0.2101 -0.3410  0.0855
  147SAPE   C2116188   0.373   0.818  10.655 -0.0034  0.8102 -0.5325
  147SAPE   O2216189   0.257   0.788  10.687 -0.5074  0.3077  0.0421
  147SAPE   C2216190   0.461   0.719  10.576  0.0632  0.0677 -0.4240
  147SAPE   H2R16191   0.472   0.761  10.474  0.0177 -2.6168 -1.6177
  147SAPE   H2S16192   0.564   0.732  10.616  0.0548  1.6212 -0.8601
  147SAPE    C316193   0.291   1.111  10.631 -0.0591 -1.0129 -0.3269
  147SAPE    HX16194   0.251   1.198  10.688  1.1145 -1.1448  0.7392
  147SAPE    HY16195   0.203   1.050  10.602 -0.3947 -2.1556  2.6794
  147SAPE   O3116196   0.374   1.166  10.528 -0.0703  0.1299  0.1870
  147SAPE   C3116197   0.380   1.089  10.419  0.6599  0.2505 -0.1079
  147SAPE   O3216198   0.320   0.980  10.401 -0.7523  0.2655 -0.1254
  147SAPE   C3216199   0.481   1.151  10.324 -0.3005  0.3096  0.4711
  147SAPE   H2X16200   0.583   1.115  10.348 -0.1407  0.3390 -0.1406
  147SAPE   H2Y16201   0.479   1.261  10.331 -0.6842  0.3538 -0.2043
  147SAPE   C2316202   0.423   0.567  10.587  0.0290 -0.6039  1.1913
  147SAPE   H3R16203   0.323   0.544  10.543  1.3650 -2.0842 -1.3053
  147SAPE   H3S16204   0.434   0.534  10.692  2.8427  1.2942  1.6050
  147SAPE   C2416205   0.525   0.478  10.503 -0.0216  0.0925  0.0021
  147SAPE   H4R16206   0.628   0.490  10.543 -0.6419  0.5960  1.5040
  147SAPE   H4S16207   0.531   0.525  10.402 -1.1554 -1.0581 -0.6291
  147SAPE   C2516208   0.494   0.335  10.508  0.5414  0.4087  0.3936
  147SAPE   H5R16209   0.471   0.303  10.611 -0.3402 -0.6377 -0.1038
  147SAPE   C2616210   0.496   0.241  10.418 -0.5397  0.0790 -0.6717
  147SAPE   H6R16211   0.471   0.142  10.459 -1.7002  0.9555  0.8609
  147SAPE   C2716212   0.526   0.254  10.271 -0.0638 -0.0056  0.4788
  147SAPE   H7R16213   0.627   0.209  10.265  0.3898  1.0999 -0.3510
  147SAPE   H7S16214   0.541   0.357  10.234  2.4392  0.1626  1.7881
  147SAPE   C2816215   0.426   0.171  10.203 -0.1326  0.7898 -0.2285
  147SAPE   H8R16216   0.340   0.145  10.266 -0.0446  0.2505 -0.3231
  147SAPE   C2916217   0.436   0.111  10.081 -0.4384 -0.7572 -0.1617
  147SAPE   H9R16218   0.355   0.048  10.040 -2.1426  1.7264 -0.8353
  147SAPE  C21016219   0.547   0.126   9.986 -0.0299 -0.2716 -0.2291
  147SAPE  H10R16220   0.603   0.218  10.015 -2.4181  1.0981  0.3260
  147SAPE  H10S16221   0.499   0.156   9.891 -2.6001  0.6065  1.2467
  147SAPE  C21116222   0.634   0.010   9.976  0.4146  0.4334  0.7861
  147SAPE  H11R16223   0.683  -0.017  10.071  0.8023 -0.7901  0.2711
  147SAPE  C21216224   0.668  -0.063   9.867 -0.2041 -0.2384  0.4464
  147SAPE  H12R16225   0.727  -0.154   9.883 -0.3874 -0.3199  0.6674
  147SAPE  C21316226   0.621  -0.035   9.729  0.2547  0.3267 -0.5510
  147SAPE  H13R16227   0.511  -0.016   9.735  0.6336  2.6030  0.1112
  147SAPE  H13S16228   0.644  -0.128   9.673  1.7267 -1.1210  2.2345
  147SAPE  C21416229   0.694   0.076   9.654  0.4270  0.6013  0.0814
  147SAPE  H14R16230   0.790   0.113   9.693 -0.4927  0.1101  3.0765
  147SAPE  C21516231   0.664   0.119   9.534  0.3006  0.0928  0.1645
  147SAPE  H15R16232   0.736   0.183   9.481 -0.9536  0.1549 -1.5482
  147SAPE  C21616233   0.530   0.085   9.465  0.4508  0.8788 -0.0283
  147SAPE  H16R16234   0.475   0.177   9.435 -0.5956  0.3153  0.0897
  147SAPE  H16S16235   0.460   0.022   9.524  1.5306 -0.0959  0.2596
  147SAPE  C21716236   0.552   0.008   9.327  0.2241  0.3561 -0.4620
  147SAPE  H17R16237   0.453  -0.017   9.285 -0.4364 -0.1762  1.2956
  147SAPE  H17S16238   0.599  -0.090   9.351 -1.1645 -0.0359  0.8472
  147SAPE  C21816239   0.638   0.085   9.229 -0.3645 -0.5142 -0.8107
  147SAPE  H18R16240   0.740   0.057   9.264 -0.5856 -1.9540 -1.2494
  147SAPE  H18S16241   0.625   0.194   9.240 -0.0133 -0.6471  1.4397
  147SAPE  C21916242   0.635   0.035   9.079 -0.0392 -0.5424 -0.4020
  147SAPE  H19R16243   0.661  -0.073   9.074  0.1221 -0.4633 -1.5976
  147SAPE  H19S16244   0.715   0.090   9.026 -0.9744  0.3050 -0.9555
  147SAPE  C22016245   0.502   0.060   9.012 -0.6651 -0.4832  0.5208
  147SAPE  H20R16246   0.457   0.161   9.016  1.0087  0.2984  0.4390
  147SAPE  H20S16247   0.419  -0.010   9.039 -1.5112  0.3235  0.0535
  147SAPE  H20T16248   0.524   0.049   8.904  3.9278  3.0397  0.7937
  147SAPE   C3316249   0.462   1.105  10.175  0.4982  0.7841 -0.3997
  147SAPE   H3X16250   0.354   1.112  10.151  0.2920  0.4017  0.4113
  147SAPE   H3Y16251   0.486   0.996  10.171  1.6038  0.8852  1.8758
  147SAPE   C3416252   0.562   1.162  10.070 -0.2463 -0.4367  0.4125
  147SAPE   H4X16253   0.662   1.176  10.116  0.3196 -1.9015 -0.2808
  147SAPE   H4Y16254   0.522   1.264  10.053  2.1874  0.7218  1.2006
  147SAPE   C3516255   0.570   1.088   9.936  0.6315 -1.2781 -0.7424
  147SAPE   H5X16256   0.475   1.041   9.903 -1.3810  0.7849  1.7111
  147SAPE   H5Y16257   0.650   1.013   9.951  1.9570 -0.3917 -2.8667
  147SAPE   C3616258   0.626   1.188   9.826 -0.3259 -0.0416 -0.6528
  147SAPE   H6X16259   0.725   1.215   9.867 -0.9804  1.8377 -0.2169
  147SAPE   H6Y16260   0.566   1.282   9.826 -0.7010 -0.2296  1.6964
  147SAPE   C3716261   0.631   1.115   9.694 -0.0125 -0.3466 -0.3621
  147SAPE   H7X16262   0.541   1.054   9.670  1.6148 -3.1017  0.1302
  147SAPE   H7Y16263   0.712   1.039   9.697 -1.9681 -2.5110  1.0975
  147SAPE   C3816264   0.640   1.207   9.574 -1.0337  0.1310  0.7556
  147SAPE   H8X16265   0.734   1.266   9.580 -1.5211  0.8870  0.9733
  147SAPE   H8Y16266   0.551   1.272   9.568 -0.9081  0.3203  0.9367
  147SAPE   C3916267   0.637   1.134   9.434  0.4661  0.0032  0.4311
  147SAPE   H9X16268   0.542   1.078   9.432  0.2620  0.1096  3.1349
  147SAPE   H9Y16269   0.730   1.073   9.426 -0.5171 -1.4868 -0.0134
  147SAPE  C31016270   0.635   1.235   9.322 -0.7138 -0.4634 -0.1256
  147SAPE  H10X16271   0.698   1.322   9.348 -0.7514 -0.6048  0.4591
  147SAPE  H10Y16272   0.534   1.279   9.313 -0.5743 -0.6774 -4.7807
  147SAPE  C31116273   0.668   1.182   9.181 -0.2677 -0.2927 -0.0317
  147SAPE  H11X16274   0.628   1.079   9.174  0.3534 -0.6259  1.1725
  147SAPE  H11Y16275   0.778   1.166   9.179 -0.1675  0.1846  1.2703
  147SAPE  C31216276   0.613   1.258   9.056  0.3259 -0.4289 -0.3048
  147SAPE  H12X16277   0.634   1.366   9.071 -2.4718  0.6300 -3.0152
  147SAPE  H12Y16278   0.503   1.256   9.071  0.3294 -0.0538 -0.2178
  147SAPE  C31316279   0.656   1.192   8.926  0.2994  0.2053 -0.8328
  147SAPE  H13X16280   0.611   1.091   8.934  0.1754  0.2666 -0.7578
  147SAPE  H13Y16281   0.767   1.189   8.918  0.7201  1.4808  2.5349
  147SAPE  C31416282   0.605   1.246   8.797 -0.2999 -0.7410 -0.1764
  147SAPE  H14X16283   0.494   1.244   8.799 -0.3298 -2.6604 -1.5973
  147SAPE  H14Y16284   0.633   1.183   8.710  0.7467 -2.3893  1.2951
  147SAPE  C31516285   0.653   1.388   8.759 -0.0074 -0.1160 -0.1227
  147SAPE  H15X16286   0.764   1.389   8.764  0.0099 -2.2748  1.1744
  147SAPE  H15Y16287   0.624   1.466   8.833 -0.5714  0.7428 -1.2004
  147SAPE  C31616288   0.611   1.447   8.618  0.1456  0.0128 -0.6297
  147SAPE  H16X16289   0.511   1.490   8.640  1.8899  3.1231  2.4005
  147SAPE  H16Y16290   0.615   1.365   8.544  0.6752  1.7242 -2.6059
  147SAPE  C31716291   0.704   1.558   8.558  0.2108  0.0323  0.1896
  147SAPE  H17X16292   0.789   1.504   8.510 -0.6903 -0.6281 -0.7104
  147SAPE  H17Y16293   0.739   1.608   8.651  0.5748 -0.6153  0.4140
  147SAPE  C31816294   0.625   1.652   8.461 -0.2426 -0.4706  0.3218
  147SAPE  H18X16295   0.533   1.683   8.515 -0.3505 -0.3440  0.0663
  147SAPE  H18Y16296   0.609   1.594   8.367  0.2336 -0.3140  0.1395
  147SAPE  H18Z16297   0.689   1.738   8.433  1.7731 -2.3790 -1.3489
  148SAPE     N16298   2.829   1.858  10.817  0.0924 -0.0392  0.2656
  148SAPE   HN116299   2.917   1.878  10.766  0.0805  0.0828  0.2922
  148SAPE   HN216300   2.849   1.817  10.910 -0.4754 -1.7887 -0.3431
  148SAPE   HN316301   2.769   1.798  10.757  0.0472  1.2955 -1.0870
  148SAPE   C1216302   2.752   1.989  10.841 -0.8103  0.8894 -0.0469
  148SAPE  H12A16303   2.826   2.051  10.896  0.0888  2.0076 -2.3671
  148SAPE  H12B16304   2.669   1.968  10.911  3.0528 -0.2142  4.7785
  148SAPE   C1116305   2.713   2.058  10.711  0.7456 -0.5522  0.5875
  148SAPE  H11A16306   2.650   2.144  10.743  1.2501  0.1054 -0.1686
  148SAPE  H11B16307   2.640   1.997  10.653  1.7940 -0.5631 -0.7477
  148SAPE     P16308   2.886   2.244  10.650 -0.1002 -0.5491 -0.2206
  148SAPE   O1316309   2.892   2.288  10.790 -0.0635 -0.1323 -0.5095
  148SAPE   O1416310   3.010   2.246  10.573  0.1672  0.3837 -0.7601
  148SAPE   O1216311   2.822   2.098  10.630  0.4378 -0.1371 -0.0763
  148SAPE   O1116312   2.793   2.327  10.562  0.5330  0.2622 -0.3530
  148SAPE    C116313   2.745   2.293  10.431 -0.1581  0.1726 -0.2341
  148SAPE    HA16314   2.806   2.337  10.349  0.0328  2.8431  1.2456
  148SAPE    HB16315   2.755   2.183  10.414  0.6371 -0.2477  2.4577
  148SAPE    C216316   2.599   2.339  10.410 -0.2011 -0.0930 -0.3840
  148SAPE    HS16317   2.591   2.428  10.475  0.3024  1.3956 -2.2817
  148SAPE   O2116318   2.515   2.229  10.446 -0.0666 -0.0748 -0.4499
  148SAPE   C2116319   2.389   2.260  10.457  0.6725  0.6295 -0.3720
  148SAPE   O2216320   2.345   2.371  10.462  0.1294  0.8295  0.3343
  148SAPE   C2216321   2.312   2.134  10.488 -0.3088  0.2658 -0.2415
  148SAPE   H2R16322   2.360   2.049  10.435  0.1005  0.8731 -0.8597
  148SAPE   H2S16323   2.314   2.115  10.598 -1.8206 -0.7078 -0.3539
  148SAPE    C316324   2.574   2.387  10.261  0.2994  0.5510  0.5936
  148SAPE    HX16325   2.656   2.456  10.230  1.2542 -0.6128  0.4568
  148SAPE    HY16326   2.479   2.445  10.264  0.4579  1.2104 -2.8052
  148SAPE   O3116327   2.582   2.276  10.169 -0.7459 -0.0843 -0.4929
  148SAPE   C3116328   2.489   2.274  10.063 -0.3705 -0.8804  0.2233
  148SAPE   O3216329   2.401   2.358  10.047  0.1805 -0.0087  0.2695
  148SAPE   C3216330   2.533   2.168   9.963  0.2337  0.0122 -0.1495
  148SAPE   H2X16331   2.469   2.081   9.989  0.5245 -0.5683 -1.3095
  148SAPE   H2Y16332   2.641   2.154   9.986  0.1899 -0.8367 -0.4435
  148SAPE   C2316333   2.166   2.148  10.435  0.6972  0.6261 -0.7906
  148SAPE   H3R16334   2.115   2.242  10.466 -2.6941 -1.4430  0.4258
  148SAPE   H3S16335   2.100   2.067  10.471  0.0913  0.5374 -2.0219
  148SAPE   C2416336   2.145   2.142  10.276 -0.2841 -0.6661 -0.0970
  148SAPE   H4R16337   2.197   2.228  10.228  2.7261 -1.1323  2.0782
  148SAPE   H4S16338   2.038   2.154  10.247 -0.7570 -0.5760  1.6050
  148SAPE   C2516339   2.193   2.017  10.213  0.2062 -0.3894  0.5229
  148SAPE   H5R16340   2.253   1.950  10.278  0.9974 -1.4351 -1.2062
  148SAPE   C2616341   2.190   2.002  10.083  0.5209 -0.2271  0.4147
  148SAPE   H6R16342   2.206   1.901  10.043  0.4419 -0.1529  0.1921
  148SAPE   C2716343   2.139   2.097   9.977  0.4686  0.0540 -0.5461
  148SAPE   H7R16344   2.182   2.197   9.997 -0.4354  0.9894 -2.8916
  148SAPE   H7S16345   2.030   2.106   9.996  0.5329 -0.5303  0.1423
  148SAPE   C2816346   2.170   2.058   9.836 -0.4282  0.7659 -0.0657
  148SAPE   H8R16347   2.267   2.009   9.822 -0.0598  1.8030 -1.2843
  148SAPE   C2916348   2.093   2.071   9.726  0.0896  0.3944  0.5355
  148SAPE   H9R16349   2.136   2.049   9.627  0.0171  0.6823  0.4410
  148SAPE  C21016350   1.951   2.123   9.713  0.5376  0.6956  0.7512
  148SAPE  H10R16351   1.959   2.225   9.670  2.3237  0.4628  0.4524
  148SAPE  H10S16352   1.889   2.147   9.802 -2.9983 -0.4996 -1.1467
  148SAPE  C21116353   1.860   2.026   9.638 -0.3748 -0.3813  0.5550
  148SAPE  H11R16354   1.854   1.924   9.678 -1.7439  0.1032  1.7143
  148SAPE  C21216355   1.772   2.052   9.536  0.3047 -0.3476  0.2073
  148SAPE  H12R16356   1.703   1.973   9.503 -1.9443  0.7150  2.0226
  148SAPE  C21316357   1.747   2.186   9.480 -0.1431 -0.3355  0.1649
  148SAPE  H13R16358   1.798   2.199   9.382 -1.1410  0.3265 -0.2783
  148SAPE  H13S16359   1.786   2.264   9.549  2.0886 -0.2704 -1.0767
  148SAPE  C21416360   1.602   2.224   9.452 -0.0119 -0.7088  0.0594
  148SAPE  H14R16361   1.529   2.163   9.508 -1.2908 -0.6548 -1.4845
  148SAPE  C21516362   1.555   2.317   9.367  0.1382 -0.0990  0.2616
  148SAPE  H15R16363   1.448   2.343   9.371  0.1095 -0.0794 -0.5580
  148SAPE  C21616364   1.639   2.417   9.293  0.4215  0.2807 -0.1734
  148SAPE  H16R16365   1.745   2.387   9.310  0.5812  2.0310  2.4888
  148SAPE  H16S16366   1.615   2.516   9.337 -0.6154  0.4834 -1.1440
  148SAPE  C21716367   1.619   2.423   9.141 -0.3821 -0.4111  0.1438
  148SAPE  H17R16368   1.693   2.498   9.107  0.6439  0.7850  4.3814
  148SAPE  H17S16369   1.517   2.434   9.099 -0.1459 -2.7064 -1.1765
  148SAPE  C21816370   1.659   2.291   9.069  0.0041  0.2136 -0.1891
  148SAPE  H18R16371   1.582   2.215   9.094 -1.0782  1.2020 -0.4048
  148SAPE  H18S16372   1.748   2.250   9.122 -2.4124 -2.2470  2.3488
  148SAPE  C21916373   1.686   2.302   8.923 -0.7427 -0.6859  0.5196
  148SAPE  H19R16374   1.766   2.376   8.901 -1.0243 -0.6262 -0.3449
  148SAPE  H19S16375   1.602   2.354   8.874 -0.0459 -0.6523 -0.6946
  148SAPE  C22016376   1.711   2.168   8.852 -0.4503  0.4633 -0.0261
  148SAPE  H20R16377   1.612   2.146   8.806 -0.1794  0.6671 -0.7067
  148SAPE  H20S16378   1.750   2.092   8.923 -3.0591 -0.6036  0.3779
  148SAPE  H20T16379   1.789   2.175   8.774 -1.2329  0.2668 -0.8364
  148SAPE   C3316380   2.518   2.211   9.812  0.2092  0.2676  0.1050
  148SAPE   H3X16381   2.592   2.292   9.795  1.2941 -0.4746  1.1505
  148SAPE   H3Y16382   2.421   2.261   9.787  1.5436  1.6244 -2.8523
  148SAPE   C3416383   2.544   2.099   9.709 -0.1064  0.2476  0.5147
  148SAPE   H4X16384   2.472   2.015   9.726  0.0398  0.3721  1.8719
  148SAPE   H4Y16385   2.646   2.059   9.729 -0.9297 -2.6439 -0.5117
  148SAPE   C3516386   2.536   2.153   9.564  0.3355  0.0161 -0.4678
  148SAPE   H5X16387   2.599   2.095   9.494  0.5204 -1.3349  0.7870
  148SAPE   H5Y16388   2.566   2.260   9.564 -0.4677  0.2468 -0.6570
  148SAPE   C3616389   2.390   2.147   9.518 -0.8885  0.0952  0.3209
  148SAPE   H6X16390   2.320   2.194   9.591  0.5707 -0.3760  2.1105
  148SAPE   H6Y16391   2.366   2.040   9.504  0.9297 -0.7128  2.7147
  148SAPE   C3716392   2.395   2.234   9.387  1.1745 -0.0027  0.4128
  148SAPE   H7X16393   2.476   2.191   9.326  0.8899  0.4328 -0.2882
  148SAPE   H7Y16394   2.410   2.344   9.394 -1.1675  0.5401 -1.4861
  148SAPE   C3816395   2.256   2.208   9.324 -0.0356  0.8350 -0.5036
  148SAPE   H8X16396   2.175   2.250   9.387 -1.2985 -1.7136 -0.3153
  148SAPE   H8Y16397   2.241   2.100   9.306  1.8605  0.6784 -1.3646
  148SAPE   C3916398   2.239   2.266   9.187  0.2787 -0.4783 -0.2715
  148SAPE   H9X16399   2.314   2.229   9.114 -0.7038 -2.8487 -0.1705
  148SAPE   H9Y16400   2.246   2.376   9.200  1.6062 -0.8784  3.9017
  148SAPE  C31016401   2.103   2.244   9.125 -0.6782 -0.1530 -0.2517
  148SAPE  H10X16402   2.025   2.286   9.192 -0.9955  0.6615 -1.1088
  148SAPE  H10Y16403   2.088   2.134   9.121 -2.8620  0.1168 -1.0571
  148SAPE  C31116404   2.085   2.302   8.985 -0.2958  1.1716 -0.8094
  148SAPE  H11X16405   2.093   2.413   8.977  2.9215  1.2595  1.5392
  148SAPE  H11Y16406   1.977   2.293   8.960 -0.9916  3.3476  0.9885
  148SAPE  C31216407   2.175   2.235   8.880 -0.1694 -0.2522 -0.5626
  148SAPE  H12X16408   2.169   2.124   8.881 -0.7435 -0.3396  3.5880
  148SAPE  H12Y16409   2.276   2.272   8.905 -0.9144 -0.4535  3.3289
  148SAPE  C31316410   2.130   2.268   8.740 -0.1652  0.1481  0.6179
  148SAPE  H13X16411   2.033   2.213   8.738  1.2724 -2.5485 -1.0588
  148SAPE  H13Y16412   2.186   2.221   8.656  0.6401  3.3769 -0.8029
  148SAPE  C31416413   2.112   2.417   8.709  0.4224  0.4846  0.0726
  148SAPE  H14X16414   2.183   2.475   8.772  1.9833 -2.8830  1.6455
  148SAPE  H14Y16415   2.009   2.448   8.737 -0.2535 -0.1703 -1.6300
  148SAPE  C31516416   2.125   2.454   8.562 -0.2005 -0.0823  0.2239
  148SAPE  H15X16417   2.061   2.381   8.508 -0.0832 -0.1114  0.1240
  148SAPE  H15Y16418   2.224   2.422   8.524 -0.6711  1.6748 -2.7775
  148SAPE  C31616419   2.105   2.598   8.517 -0.5962  1.0920 -0.1255
  148SAPE  H16X16420   2.150   2.673   8.585 -0.8990  1.1741 -0.0103
  148SAPE  H16Y16421   1.996   2.615   8.500 -0.5118  0.2237 -1.7881
  148SAPE  C31716422   2.165   2.634   8.379 -0.0844  0.3719 -0.4364
  148SAPE  H17X16423   2.099   2.590   8.301  1.4901 -2.8390 -0.1386
  148SAPE  H17Y16424   2.269   2.601   8.358 -0.5103 -1.6264  0.3555
  148SAPE  C31816425   2.167   2.789   8.352  0.1866 -0.3854 -0.4680
  148SAPE  H18X16426   2.244   2.839   8.415 -2.0254  0.7419  1.5072
  148SAPE  H18Y16427   2.063   2.822   8.375 -0.1438 -1.4903 -0.3271
  148SAPE  H18Z16428   2.185   2.807   8.243 -1.2038  1.8207 -0.4157
  149SAPE     N16429   3.560   4.110  11.211  0.4673 -0.0222 -0.1402
  149SAPE   HN116430   3.543   4.154  11.118 -3.3188  0.0189  0.3922
  149SAPE   HN216431   3.556   4.187  11.281  1.0798 -0.0499 -0.0698
  149SAPE   HN316432   3.660   4.082  11.205  1.0957  1.7880  1.1155
  149SAPE   C1216433   3.467   3.997  11.236 -0.1682 -0.4932  0.5657
  149SAPE  H12A16434   3.496   3.953  11.334 -1.3583 -0.1759  1.0815
  149SAPE  H12B16435   3.483   3.923  11.154 -1.3674 -1.3664  1.0826
  149SAPE   C1116436   3.324   4.051  11.235  0.1364  1.0604 -0.3373
  149SAPE  H11A16437   3.312   4.139  11.302  0.4169  0.0267  1.1078
  149SAPE  H11B16438   3.261   3.971  11.279 -0.0775  1.7914  0.7417
  149SAPE     P16439   3.136   4.040  11.056  0.1022  0.1049  0.0978
  149SAPE   O1316440   3.118   3.906  11.113  0.0354 -0.3513  0.2356
  149SAPE   O1416441   3.039   4.147  11.076  0.2517 -0.1082 -0.4765
  149SAPE   O1216442   3.275   4.096  11.104 -0.4764  0.2863 -0.2630
  149SAPE   O1116443   3.153   4.030  10.900  0.1128 -0.4469  0.6115
  149SAPE    C116444   3.232   3.933  10.830 -0.3531 -0.6530 -0.0950
  149SAPE    HA16445   3.313   3.900  10.899 -1.7944  0.2349  2.1589
  149SAPE    HB16446   3.181   3.839  10.801  3.2750 -2.2072 -2.0994
  149SAPE    C216447   3.293   4.002  10.709  0.0833  0.4248 -0.0707
  149SAPE    HS16448   3.353   4.086  10.749 -2.3262  1.8145  0.8249
  149SAPE   O2116449   3.202   4.050  10.616  0.2363 -0.3287 -0.7031
  149SAPE   C2116450   3.239   4.147  10.539 -0.2679  0.4472 -0.5796
  149SAPE   O2216451   3.341   4.212  10.549 -0.3008 -0.3904  0.7078
  149SAPE   C2216452   3.135   4.174  10.425 -0.1557  0.0668  0.0658
  149SAPE   H2R16453   3.092   4.078  10.389  2.5906 -0.8230 -1.1171
  149SAPE   H2S16454   3.050   4.228  10.473 -1.2231  1.3677 -2.9757
  149SAPE    C316455   3.390   3.905  10.629  0.8310  0.3912  0.0390
  149SAPE    HX16456   3.332   3.826  10.578 -0.0156  1.8039 -1.2725
  149SAPE    HY16457   3.447   3.855  10.710  0.1884  0.6267  0.6449
  149SAPE   O3116458   3.473   3.970  10.530 -0.5216 -1.0152  0.4136
  149SAPE   C3116459   3.594   4.003  10.577 -0.7063  0.5670  0.3289
  149SAPE   O3216460   3.631   3.985  10.688  0.0040 -0.0607  0.2909
  149SAPE   C3216461   3.687   4.061  10.457  0.3694  0.2921  0.4439
  149SAPE   H2X16462   3.788   4.032  10.493  0.2542 -0.4305  0.1952
  149SAPE   H2Y16463   3.688   4.170  10.475  1.2202 -0.1104  3.4025
  149SAPE   C2316464   3.182   4.264  10.306 -0.0326 -0.4895 -0.6004
  149SAPE   H3R16465   3.242   4.350  10.346 -0.9506  0.9736 -2.2530
  149SAPE   H3S16466   3.094   4.307  10.254 -1.7426 -2.8362  0.2179
  149SAPE   C2416467   3.265   4.185  10.205 -0.2712 -0.8018 -0.7473
  149SAPE   H4R16468   3.351   4.142  10.262 -0.0272 -0.3481 -0.7680
  149SAPE   H4S16469   3.313   4.257  10.135 -0.1009  0.1589  0.3235
  149SAPE   C2516470   3.174   4.098  10.123 -0.0189  0.2387  0.0590
  149SAPE   H5R16471   3.144   4.017  10.192  1.2114 -0.6722 -0.4501
  149SAPE   C2616472   3.132   4.104   9.994  0.2103 -0.4320  0.1778
  149SAPE   H6R16473   3.065   4.026   9.955 -1.7152  0.6766  1.1229
  149SAPE   C2716474   3.173   4.200   9.886  0.0468 -0.2977 -0.0710
  149SAPE   H7R16475   3.197   4.296   9.935  2.7172 -1.1537  0.4796
  149SAPE   H7S16476   3.101   4.214   9.803  0.8741  1.2359 -0.5701
  149SAPE   C2816477   3.307   4.152   9.838  0.7105  0.2728 -0.0933
  149SAPE   H8R16478   3.366   4.102   9.916 -1.2264  1.6019  2.3656
  149SAPE   C2916479   3.360   4.166   9.720  0.3350  0.2547  0.0969
  149SAPE   H9R16480   3.466   4.134   9.714  0.8328  1.8016  0.2603
  149SAPE  C21016481   3.307   4.237   9.593 -0.9036 -0.3037 -0.0397
  149SAPE  H10R16482   3.394   4.249   9.525 -0.5250 -0.2806  0.4491
  149SAPE  H10S16483   3.276   4.338   9.624  2.8196  0.7166  0.7923
  149SAPE  C21116484   3.189   4.173   9.521  0.4016 -0.8923 -0.2587
  149SAPE  H11R16485   3.094   4.223   9.546  0.7042 -0.8766  0.9522
  149SAPE  C21216486   3.188   4.065   9.448  0.0295 -0.2587  0.3787
  149SAPE  H12R16487   3.089   4.027   9.419  0.5583 -1.1301 -0.3121
  149SAPE  C21316488   3.299   3.968   9.408 -1.3790 -0.3258  0.4708
  149SAPE  H13R16489   3.255   3.876   9.364  0.1439  0.6395 -3.5268
  149SAPE  H13S16490   3.362   3.932   9.492  0.8922 -1.6293 -1.6717
  149SAPE  C21416491   3.378   4.026   9.290 -0.1728 -0.4631 -0.5478
  149SAPE  H14R16492   3.468   4.082   9.320 -0.9295  0.6604 -0.3212
  149SAPE  C21516493   3.346   4.014   9.161  0.0572  0.0945  0.4479
  149SAPE  H15R16494   3.403   4.067   9.083 -2.4743  0.6586 -1.1330
  149SAPE  C21616495   3.227   3.943   9.105  0.0464  0.2094  0.6686
  149SAPE  H16R16496   3.160   4.007   9.043 -1.7464 -2.6676 -0.6018
  149SAPE  H16S16497   3.165   3.908   9.189  1.1929  1.4981  2.1125
  149SAPE  C21716498   3.267   3.831   9.010 -0.6605 -0.0120  0.3875
  149SAPE  H17R16499   3.183   3.759   9.019 -0.9047 -0.2733 -2.6897
  149SAPE  H17S16500   3.361   3.776   9.030  0.5265  1.6130 -0.4265
  149SAPE  C21816501   3.268   3.875   8.860 -0.5966 -0.3603  1.0216
  149SAPE  H18R16502   3.352   3.946   8.847  0.7512 -2.0330  0.3127
  149SAPE  H18S16503   3.172   3.930   8.846 -0.1298  0.7495  2.0097
  149SAPE  C21916504   3.285   3.757   8.765 -0.0510 -0.5847 -0.7025
  149SAPE  H19R16505   3.226   3.672   8.805 -1.5847  1.1035  0.8350
  149SAPE  H19S16506   3.391   3.725   8.772  0.2926  0.9263  2.9491
  149SAPE  C22016507   3.258   3.787   8.615 -0.3550  0.1668 -0.6052
  149SAPE  H20R16508   3.149   3.809   8.608 -1.0419 -2.2688  1.1203
  149SAPE  H20S16509   3.273   3.698   8.550 -1.4358  0.0574 -0.7188
  149SAPE  H20T16510   3.308   3.877   8.575 -0.1524  0.9912  1.3835
  149SAPE   C3316511   3.654   4.006  10.307 -0.2454  0.2521 -0.8362
  149SAPE   H3X16512   3.549   4.032  10.280 -0.7484  2.1385  2.3641
  149SAPE   H3Y16513   3.657   3.896  10.317 -0.5632  0.3322  0.3316
  149SAPE   C3416514   3.749   4.050  10.197 -0.2902  0.4683 -0.2950
  149SAPE   H4X16515   3.828   3.975  10.178 -1.0629 -0.2625 -0.7044
  149SAPE   H4Y16516   3.802   4.146  10.215 -0.3389  0.8016 -1.7787
  149SAPE   C3516517   3.670   4.057  10.063  0.5221 -0.2039 -0.0230
  149SAPE   H5X16518   3.595   4.137  10.083 -0.9321 -2.1534  3.2420
  149SAPE   H5Y16519   3.608   3.966  10.051 -1.3265  0.6708  1.9596
  149SAPE   C3616520   3.763   4.077   9.948 -0.1630  0.0651  0.1146
  149SAPE   H6X16521   3.829   3.988   9.949 -1.9026 -1.2800  1.0398
  149SAPE   H6Y16522   3.824   4.170   9.956 -0.2653  0.3488 -1.9556
  149SAPE   C3716523   3.710   4.063   9.810 -0.4702  0.2074  0.0288
  149SAPE   H7X16524   3.677   4.167   9.787 -1.8534 -0.0825  0.5884
  149SAPE   H7Y16525   3.620   3.998   9.813 -0.3479  0.0129 -0.4394
  149SAPE   C3816526   3.817   4.033   9.705  0.8540  0.0178 -0.3611
  149SAPE   H8X16527   3.848   3.927   9.716 -0.2976 -0.3986 -1.0043
  149SAPE   H8Y16528   3.909   4.090   9.731 -0.5521  1.3423  2.1505
  149SAPE   C3916529   3.763   4.069   9.570  0.0012  0.3233 -0.9043
  149SAPE   H9X16530   3.737   4.177   9.573 -2.4856 -0.2216 -0.1656
  149SAPE   H9Y16531   3.677   4.000   9.553  1.4433 -1.3963 -1.4858
  149SAPE  C31016532   3.861   4.042   9.459  0.8472  0.0576 -0.0223
  149SAPE  H10X16533   3.905   3.942   9.481 -1.4762 -0.6328  1.9272
  149SAPE  H10Y16534   3.942   4.117   9.472 -0.8948  1.5030  4.4639
  149SAPE  C31116535   3.797   4.051   9.319 -0.2267 -0.5914  0.4926
  149SAPE  H11X16536   3.714   3.977   9.320 -0.3958 -0.4604 -1.4867
  149SAPE  H11Y16537   3.870   4.034   9.238 -1.7632 -0.0436 -1.0696
  149SAPE  C31216538   3.738   4.193   9.290 -0.0447  0.7890 -0.5158
  149SAPE  H12X16539   3.820   4.265   9.310 -0.8464  1.2460  1.3225
  149SAPE  H12Y16540   3.659   4.215   9.365  0.2461 -1.8315  0.6581
  149SAPE  C31316541   3.661   4.205   9.158 -0.4941 -0.3828 -0.1011
  149SAPE  H13X16542   3.565   4.259   9.173 -0.8826 -0.5061 -1.9779
  149SAPE  H13Y16543   3.646   4.103   9.117  1.2191 -0.0523 -1.6618
  149SAPE  C31416544   3.738   4.285   9.045 -0.7681  1.1239 -0.4421
  149SAPE  H14X16545   3.843   4.248   9.051 -0.5569  1.1832 -2.8371
  149SAPE  H14Y16546   3.741   4.391   9.077 -0.5116  1.4794 -1.5927
  149SAPE  C31516547   3.675   4.263   8.906  0.1024  0.8846 -0.1942
  149SAPE  H15X16548   3.694   4.354   8.845  1.0867  0.7971 -0.0354
  149SAPE  H15Y16549   3.564   4.256   8.903  0.0412  1.6217  0.2052
  149SAPE  C31616550   3.747   4.151   8.826 -0.1782 -0.5415 -0.1411
  149SAPE  H16X16551   3.747   4.051   8.874  0.0859 -1.4693 -1.9898
  149SAPE  H16Y16552   3.856   4.171   8.822 -0.2138 -0.4891 -0.9565
  149SAPE  C31716553   3.688   4.137   8.692 -0.3317  0.8354  0.8576
  149SAPE  H17X16554   3.750   4.055   8.649 -1.4566  0.6426 -0.4495
  149SAPE  H17Y16555   3.698   4.225   8.625 -1.9013  0.4128  0.0250
  149SAPE  C31816556   3.551   4.071   8.701  0.0621  0.6356 -0.0808
  149SAPE  H18X16557   3.554   3.995   8.782 -0.9895 -0.7984 -1.3218
  149SAPE  H18Y16558   3.515   4.025   8.606 -1.7287 -1.4952  1.5234
  149SAPE  H18Z16559   3.483   4.151   8.735  0.2172  0.0708  1.6253
  150SAPE     N16560   5.503   5.613  11.102  0.5842  0.1193 -0.2098
  150SAPE   HN116561   5.464   5.570  11.188 -0.4968 -1.2578 -1.3376
  150SAPE   HN216562   5.602   5.636  11.124  0.0381  1.6445  0.7595
  150SAPE   HN316563   5.466   5.709  11.086  1.0530  0.0237 -2.1914
  150SAPE   C1216564   5.497   5.524  10.979  0.1362  0.4668  0.0368
  150SAPE  H12A16565   5.469   5.422  11.013  1.5894 -0.9655 -2.7320
  150SAPE  H12B16566   5.601   5.514  10.942 -0.7440  0.4025 -2.6909
  150SAPE   C1116567   5.415   5.595  10.873 -0.1307  0.1374 -0.1701
  150SAPE  H11A16568   5.414   5.540  10.777  0.4154  0.2494 -0.2453
  150SAPE  H11B16569   5.462   5.695  10.860 -3.5202  1.7372 -1.1469
  150SAPE     P16570   5.183   5.706  10.836 -0.2273  0.2808  0.1411
  150SAPE   O1316571   5.053   5.640  10.819  0.3904  0.0503  0.1090
  150SAPE   O1416572   5.178   5.835  10.903  0.3068  0.2877 -0.6259
  150SAPE   O1216573   5.280   5.603  10.907  0.1846  0.1965 -0.0296
  150SAPE   O1116574   5.245   5.726  10.693 -0.1483 -0.4072 -0.2034
  150SAPE    C116575   5.187   5.663  10.581  0.5389 -0.1233  1.0378
  150SAPE    HA16576   5.261   5.640  10.502 -0.6878 -1.8095  0.3153
  150SAPE    HB16577   5.153   5.561  10.606 -0.5799  0.7558  3.3561
  150SAPE    C216578   5.071   5.748  10.517 -0.0672 -0.9618  0.2975
  150SAPE    HS16579   4.992   5.746  10.595  0.1824 -1.4323  0.5382
  150SAPE   O2116580   5.039   5.690  10.385 -0.9151  0.3823  0.0267
  150SAPE   C2116581   4.927   5.743  10.341  0.1754 -0.3986  0.1645
  150SAPE   O2216582   4.841   5.811  10.401 -0.4543  0.6609  0.0976
  150SAPE   C2216583   4.912   5.695  10.194 -0.1026  0.6135  0.2612
  150SAPE   H2R16584   5.013   5.681  10.150  0.3954  1.6146  1.0422
  150SAPE   H2S16585   4.866   5.595  10.188  0.4536  0.3946 -0.4529
  150SAPE    C316586   5.121   5.900  10.502  0.0176 -0.0220  0.1350
  150SAPE    HX16587   5.174   5.934  10.594 -1.7283  0.9464  0.8346
  150SAPE    HY16588   5.036   5.972  10.502  2.1061  2.7891  3.6476
  150SAPE   O3116589   5.214   5.917  10.392  0.3278  0.2296  0.7545
  150SAPE   C3116590   5.279   6.034  10.390 -0.4911  0.7632 -0.5959
  150SAPE   O3216591   5.261   6.126  10.471 -0.5619  0.5667 -0.0008
  150SAPE   C3216592   5.372   6.037  10.272  0.1855 -0.6633  0.7514
  150SAPE   H2X16593   5.450   5.957  10.274  1.8561  0.9005  1.1339
  150SAPE   H2Y16594   5.436   6.127  10.279 -1.1635  0.3270  0.6543
  150SAPE   C2316595   4.825   5.792  10.109  0.3666 -0.9811  0.2246
  150SAPE   H3R16596   4.881   5.888  10.116  1.1098 -1.3876 -0.0501
  150SAPE   H3S16597   4.731   5.815  10.163  1.3416  0.0968  1.5153
  150SAPE   C2416598   4.802   5.741   9.967  0.0423 -0.4801 -0.4664
  150SAPE   H4R16599   4.744   5.646   9.962 -0.3038 -0.3313  0.5229
  150SAPE   H4S16600   4.903   5.730   9.923 -0.3956  0.5848 -1.8409
  150SAPE   C2516601   4.736   5.849   9.885  0.3741  0.7978  0.1688
  150SAPE   H5R16602   4.656   5.896   9.944  0.2566 -0.3197  0.9393
  150SAPE   C2616603   4.775   5.896   9.770  0.7496 -0.5588  0.7391
  150SAPE   H6R16604   4.724   5.984   9.728 -0.7573 -1.1652  1.2383
  150SAPE   C2716605   4.902   5.855   9.694  0.0750  0.0126  0.5974
  150SAPE   H7R16606   4.873   5.778   9.618 -1.3171  0.8028  0.3055
  150SAPE   H7S16607   4.975   5.804   9.761  1.6901  1.7599  0.2668
  150SAPE   C2816608   4.975   5.973   9.638 -0.0840  0.1660 -0.0914
  150SAPE   H8R16609   5.036   6.027   9.712 -0.0537 -0.0046  0.0076
  150SAPE   C2916610   4.980   6.028   9.512 -0.6375 -0.2306  0.0675
  150SAPE   H9R16611   5.041   6.117   9.495 -1.2374  0.3309  0.7704
  150SAPE  C21016612   4.912   5.986   9.382 -0.3004 -0.4101 -0.7470
  150SAPE  H10R16613   4.874   5.882   9.392  0.7940 -0.6428  1.6220
  150SAPE  H10S16614   4.986   5.989   9.299 -1.6939 -1.7949 -2.1195
  150SAPE  C21116615   4.788   6.066   9.353 -0.2125 -0.8366  0.1304
  150SAPE  H11R16616   4.774   6.154   9.417  1.8200  0.3679 -0.9844
  150SAPE  C21216617   4.703   6.052   9.252 -0.8796 -0.2078  0.1442
  150SAPE  H12R16618   4.618   6.123   9.246  0.3620  1.3054 -0.3212
  150SAPE  C21316619   4.721   5.961   9.138 -0.2434 -0.5820 -0.0385
  150SAPE  H13R16620   4.686   5.858   9.157 -1.5730 -0.0006  0.7576
  150SAPE  H13S16621   4.831   5.950   9.124 -0.0915  1.0789 -0.4412
  150SAPE  C21416622   4.659   6.023   9.013  0.3775  0.0476 -0.5726
  150SAPE  H14R16623   4.713   6.111   8.974 -0.1521  1.0385  0.8293
  150SAPE  C21516624   4.547   5.976   8.953 -0.0452 -0.6789  0.4718
  150SAPE  H15R16625   4.499   6.032   8.871 -1.3126  1.0418  2.2915
  150SAPE  C21616626   4.470   5.853   8.995  0.3453 -0.1708 -0.3072
  150SAPE  H16R16627   4.397   5.872   9.077  2.7303 -1.5268  2.2850
  150SAPE  H16S16628   4.547   5.790   9.044 -0.4463  0.1467  1.4317
  150SAPE  C21716629   4.393   5.786   8.877 -0.3371 -0.1950 -0.0045
  150SAPE  H17R16630   4.355   5.682   8.891  1.2119 -0.7556  0.2616
  150SAPE  H17S16631   4.466   5.779   8.793 -0.9922 -2.1306 -0.4659
  150SAPE  C21816632   4.279   5.876   8.834  0.9361 -0.3033 -0.4418
  150SAPE  H18R16633   4.314   5.977   8.804  0.3384 -0.5566 -2.0768
  150SAPE  H18S16634   4.197   5.883   8.909 -1.9730  0.4746 -3.4559
  150SAPE  C21916635   4.206   5.817   8.707 -0.4233 -0.0017 -0.9179
  150SAPE  H19R16636   4.176   5.713   8.731 -0.0772  0.1746  0.3496
  150SAPE  H19S16637   4.280   5.814   8.623 -1.2583  0.3912 -1.6849
  150SAPE  C22016638   4.079   5.892   8.677 -0.1356 -0.4815  0.1370
  150SAPE  H20R16639   4.083   6.002   8.673 -0.2936 -0.4838 -0.1332
  150SAPE  H20S16640   3.997   5.843   8.734  0.0524 -2.9645 -1.5646
  150SAPE  H20T16641   4.051   5.862   8.574 -2.3665  1.0216  0.2358
  150SAPE   C3316642   5.306   6.035  10.138  0.8371  0.7295 -0.5221
  150SAPE   H3X16643   5.369   6.072  10.054  1.2165 -0.6390 -0.8691
  150SAPE   H3Y16644   5.207   6.085  10.148  0.7661  0.2271  1.9102
  150SAPE   C3416645   5.276   5.887  10.089  0.5256 -0.0311  0.3563
  150SAPE   H4X16646   5.198   5.844  10.155  1.9116 -0.1145  1.9952
  150SAPE   H4Y16647   5.367   5.825  10.106 -0.2202 -1.8742 -1.9235
  150SAPE   C3516648   5.230   5.876   9.942  0.4784 -0.1009 -0.1452
  150SAPE   H5X16649   5.163   5.963   9.925 -0.7473 -0.9392  0.2714
  150SAPE   H5Y16650   5.180   5.779   9.928 -0.5938  0.3335  0.5443
  150SAPE   C3616651   5.353   5.878   9.850  0.6392 -0.0816  0.0284
  150SAPE   H6X16652   5.401   5.779   9.867 -1.4347 -0.7759  2.5798
  150SAPE   H6Y16653   5.434   5.950   9.871  0.9186 -0.2946 -0.2944
  150SAPE   C3716654   5.335   5.897   9.698 -0.4771  0.5828  0.1162
  150SAPE   H7X16655   5.317   6.004   9.677  3.5745  1.4878  0.4882
  150SAPE   H7Y16656   5.254   5.829   9.665  0.9939 -0.9343 -0.5083
  150SAPE   C3816657   5.465   5.869   9.618  0.6816 -0.2978 -0.5212
  150SAPE   H8X16658   5.496   5.767   9.650 -0.6571 -0.6451 -0.2654
  150SAPE   H8Y16659   5.547   5.934   9.657  0.1005  0.4254 -0.4905
  150SAPE   C3916660   5.442   5.877   9.467 -0.0601  0.9122 -0.0142
  150SAPE   H9X16661   5.383   5.788   9.436  1.7681 -0.0563 -0.9631
  150SAPE   H9Y16662   5.541   5.862   9.418 -0.2849  1.4661 -0.6510
  150SAPE  C31016663   5.373   5.998   9.420  0.6382 -0.2787  0.5571
  150SAPE  H10X16664   5.402   6.088   9.478  1.0755 -0.6123  0.8669
  150SAPE  H10Y16665   5.264   5.993   9.440  0.5393  2.0431  0.8598
  150SAPE  C31116666   5.393   6.016   9.263 -0.4643 -0.5123 -0.5094
  150SAPE  H11X16667   5.502   6.021   9.242 -0.4084 -1.4801 -0.5369
  150SAPE  H11Y16668   5.351   6.113   9.229 -0.1976  0.4117  1.6699
  150SAPE  C31216669   5.332   5.900   9.182  0.1451 -0.4521 -0.3875
  150SAPE  H12X16670   5.222   5.917   9.177 -0.2135 -2.2545  0.6170
  150SAPE  H12Y16671   5.346   5.798   9.224  2.4646  0.2236  0.6366
  150SAPE  C31316672   5.392   5.900   9.035  0.0510  0.8251 -0.3298
  150SAPE  H13X16673   5.501   5.916   9.017  0.0283  0.3669 -0.9251
  150SAPE  H13Y16674   5.345   5.996   9.004 -0.6745  1.1474  1.6518
  150SAPE  C31416675   5.328   5.789   8.958  0.2736 -0.3612 -0.0393
  150SAPE  H14X16676   5.220   5.790   8.982 -0.5927 -0.2016 -3.3924
  150SAPE  H14Y16677   5.371   5.693   8.992  1.6177  0.6033  1.1365
  150SAPE  C31516678   5.355   5.810   8.811 -0.0932 -0.2166 -0.4020
  150SAPE  H15X16679   5.348   5.909   8.760 -0.8398 -0.4280 -0.7191
  150SAPE  H15Y16680   5.283   5.748   8.754  1.1405 -0.8637 -1.2953
  150SAPE  C31616681   5.490   5.750   8.763 -1.1431  0.1476 -0.2374
  150SAPE  H16X16682   5.500   5.642   8.783  1.9691  0.5583  0.9734
  150SAPE  H16Y16683   5.579   5.801   8.806 -0.0716 -1.2130 -0.7863
  150SAPE  C31716684   5.512   5.759   8.613  0.6365 -0.2578 -0.4525
  150SAPE  H17X16685   5.463   5.846   8.564 -2.5490 -0.6404  1.7021
  150SAPE  H17Y16686   5.460   5.671   8.569 -1.9202 -0.9443  3.3784
  150SAPE  C31816687   5.660   5.757   8.581 -0.6558 -0.2666  0.2263
  150SAPE  H18X16688   5.677   5.748   8.471 -1.5341  0.2778  0.0333
  150SAPE  H18Y16689   5.703   5.661   8.617 -1.3594 -0.5879  0.2363
  150SAPE  H18Z16690   5.725   5.836   8.623  0.3410 -1.1522  0.3986
  151SAPE     N16691   3.744   2.959  10.655  0.3550  0.6918  0.4874
  151SAPE   HN116692   3.685   2.995  10.577 -2.4617 -1.0065  1.6868
  151SAPE   HN216693   3.685   2.921  10.731 -1.7239  0.8374 -0.9625
  151SAPE   HN316694   3.804   3.032  10.697  1.1027 -0.9350  2.4108
  151SAPE   C1216695   3.832   2.850  10.599 -0.6498  0.3185  0.0384
  151SAPE  H12A16696   3.921   2.840  10.665 -1.5302 -0.5190  1.1261
  151SAPE  H12B16697   3.868   2.887  10.500 -2.1017 -0.3831 -0.7929
  151SAPE   C1116698   3.752   2.726  10.585  0.0521 -0.1353  0.8171
  151SAPE  H11A16699   3.714   2.686  10.681 -0.6456 -0.0752  0.5700
  151SAPE  H11B16700   3.824   2.655  10.538 -0.4997 -2.0639  2.7386
  151SAPE     P16701   3.524   2.636  10.507  0.1158 -0.1274  0.1889
  151SAPE   O1316702   3.569   2.498  10.528  0.6086 -0.9742  0.0125
  151SAPE   O1416703   3.424   2.693  10.607  0.3402 -0.1632 -0.1148
  151SAPE   O1216704   3.641   2.742  10.488 -0.2294 -0.4201  0.2793
  151SAPE   O1116705   3.461   2.651  10.361 -0.3829  0.2547  0.2395
  151SAPE    C116706   3.532   2.593  10.250  0.1605 -0.2874  0.0135
  151SAPE    HA16707   3.605   2.675  10.235 -1.2483  0.9521 -0.3120
  151SAPE    HB16708   3.577   2.496  10.280 -1.4774 -1.2714 -0.6442
  151SAPE    C216709   3.442   2.580  10.125 -0.4042  0.2513 -0.4460
  151SAPE    HS16710   3.368   2.662  10.118  0.0288  0.5353 -2.0841
  151SAPE   O2116711   3.381   2.453  10.126 -0.0641 -0.1240  0.4025
  151SAPE   C2116712   3.270   2.429  10.196 -0.3884 -1.0438  0.9217
  151SAPE   O2216713   3.222   2.506  10.274 -0.1708  0.6749 -0.1699
  151SAPE   C2216714   3.209   2.299  10.149 -1.1840  0.1965  0.4023
  151SAPE   H2R16715   3.164   2.310  10.048 -1.6916 -0.8894  0.4946
  151SAPE   H2S16716   3.292   2.226  10.146 -1.0557  0.3254 -2.8072
  151SAPE    C316717   3.530   2.594   9.995  0.1754 -0.9099 -0.2815
  151SAPE    HX16718   3.612   2.521  10.010  0.6661 -0.0465  1.4368
  151SAPE    HY16719   3.566   2.699  10.000 -0.9137 -0.5394  0.2212
  151SAPE   O3116720   3.460   2.563   9.876 -0.2879 -0.2921  0.9261
  151SAPE   C3116721   3.365   2.636   9.836  0.2918  0.0486  0.3586
  151SAPE   O3216722   3.327   2.742   9.879 -0.0370  0.6335  0.3147
  151SAPE   C3216723   3.295   2.574   9.713 -0.0768  0.4826  0.1834
  151SAPE   H2X16724   3.201   2.625   9.683 -0.7593 -0.4292  0.6748
  151SAPE   H2Y16725   3.260   2.473   9.744  0.7377 -0.1330 -0.8444
  151SAPE   C2316726   3.093   2.250  10.244  0.4617 -0.0043 -0.3946
  151SAPE   H3R16727   3.023   2.333  10.265 -1.3983 -1.7490  0.6370
  151SAPE   H3S16728   3.137   2.217  10.340 -1.4582  1.2251  0.9737
  151SAPE   C2416729   3.030   2.118  10.190 -0.1056 -0.4217  0.3643
  151SAPE   H4R16730   2.966   2.082  10.273 -2.1226 -0.1394 -0.9849
  151SAPE   H4S16731   3.099   2.033  10.171  0.1486 -0.1279 -0.0452
  151SAPE   C2516732   2.946   2.149  10.067  0.0684  0.4752  0.3373
  151SAPE   H5R16733   2.874   2.229  10.087 -0.9609  0.1990 -1.9164
  151SAPE   C2616734   2.959   2.102   9.944  0.2419  0.2139  0.0995
  151SAPE   H6R16735   2.896   2.139   9.862  2.4068  0.7548 -1.4134
  151SAPE   C2716736   3.066   1.999   9.908 -0.1557  0.4457  0.3651
  151SAPE   H7R16737   3.018   1.941   9.826  0.7968  1.3663 -0.8915
  151SAPE   H7S16738   3.087   1.924   9.987 -1.0933 -0.3250 -0.0992
  151SAPE   C2816739   3.202   2.051   9.868 -0.1243 -0.2840  0.0689
  151SAPE   H8R16740   3.270   2.068   9.953 -0.8992  1.4321  0.4004
  151SAPE   C2916741   3.251   2.084   9.747 -0.1600  0.4294  0.3038
  151SAPE   H9R16742   3.356   2.116   9.742  0.5424 -1.9145 -1.4612
  151SAPE  C21016743   3.175   2.085   9.613  0.2878 -0.1126  0.7282
  151SAPE  H10R16744   3.086   2.152   9.620  0.8303  1.1704 -2.5740
  151SAPE  H10S16745   3.147   1.981   9.588 -2.0044  0.7818 -0.8021
  151SAPE  C21116746   3.266   2.142   9.508 -0.6094  0.2023  0.4818
  151SAPE  H11R16747   3.363   2.183   9.539 -1.0333  1.3260  0.3934
  151SAPE  C21216748   3.243   2.150   9.377  0.6339  0.6164 -0.4644
  151SAPE  H12R16749   3.325   2.169   9.305  0.9892 -1.4383 -0.6641
  151SAPE  C21316750   3.114   2.108   9.311  0.2660 -0.1218  0.3102
  151SAPE  H13R16751   3.085   2.186   9.238 -0.8697  1.1966  2.0640
  151SAPE  H13S16752   3.036   2.128   9.388 -0.4085 -0.8841 -0.1650
  151SAPE  C21416753   3.112   1.969   9.255 -0.5728  0.6193 -0.1101
  151SAPE  H14R16754   3.202   1.926   9.209 -2.8367 -0.5951 -3.8616
  151SAPE  C21516755   3.004   1.890   9.247 -0.6444 -0.0741 -0.3919
  151SAPE  H15R16756   3.000   1.790   9.200  1.3147  0.7547 -2.5441
  151SAPE  C21616757   2.867   1.933   9.293  0.7130 -0.9768  0.6253
  151SAPE  H16R16758   2.867   2.035   9.337 -1.0903 -0.8776  0.4545
  151SAPE  H16S16759   2.824   1.867   9.371  1.6113  0.8685  2.8146
  151SAPE  C21716760   2.772   1.947   9.176  0.1908 -0.8384 -0.7080
  151SAPE  H17R16761   2.762   1.845   9.133  0.7234 -1.4556  0.5559
  151SAPE  H17S16762   2.814   2.016   9.101  0.2073 -0.4385 -0.3365
  151SAPE  C21816763   2.628   1.990   9.216  1.0203 -0.1794 -0.0988
  151SAPE  H18R16764   2.639   2.094   9.254 -1.3842  0.1306 -0.1100
  151SAPE  H18S16765   2.577   1.935   9.298 -0.5095 -1.4306 -1.8024
  151SAPE  C21916766   2.513   2.011   9.117  0.0714 -0.1700  0.0353
  151SAPE  H19R16767   2.439   2.068   9.178  0.4419 -1.7097  2.0078
  151SAPE  H19S16768   2.469   1.911   9.097  1.7433 -0.6214 -1.6971
  151SAPE  C22016769   2.540   2.081   8.981 -0.0308 -0.2641  0.1571
  151SAPE  H20R16770   2.633   2.036   8.940  1.7394  2.1341  1.2917
  151SAPE  H20S16771   2.551   2.191   8.992 -2.8486  0.2038 -0.8836
  151SAPE  H20T16772   2.453   2.060   8.915 -1.0339  2.7039  0.3658
  151SAPE   C3316773   3.402   2.553   9.596 -0.6895  0.1933 -0.5667
  151SAPE   H3X16774   3.370   2.464   9.538  1.1733 -0.6272 -0.4214
  151SAPE   H3Y16775   3.487   2.502   9.646 -1.5119 -0.0303  0.6331
  151SAPE   C3416776   3.412   2.673   9.507  0.3079 -0.1201  0.0899
  151SAPE   H4X16777   3.503   2.652   9.447  0.5817  1.6284 -0.1650
  151SAPE   H4Y16778   3.443   2.746   9.585  2.8374 -1.7515  0.7173
  151SAPE   C3516779   3.288   2.703   9.423 -0.1018 -0.3357 -0.0667
  151SAPE   H5X16780   3.275   2.814   9.423  1.3998 -0.1457  0.3261
  151SAPE   H5Y16781   3.199   2.648   9.462  1.0654 -1.5620  0.9679
  151SAPE   C3616782   3.318   2.680   9.272 -0.4353  0.4319  0.0862
  151SAPE   H6X16783   3.422   2.714   9.254 -1.0728  1.5229 -1.7801
  151SAPE   H6Y16784   3.249   2.747   9.218 -0.3463 -0.6775 -1.4712
  151SAPE   C3716785   3.295   2.532   9.229  0.2330  0.2831  0.4084
  151SAPE   H7X16786   3.188   2.514   9.256  0.4984 -2.2374  0.0733
  151SAPE   H7Y16787   3.357   2.453   9.276 -1.2264 -0.2535  1.5092
  151SAPE   C3816788   3.312   2.507   9.080  0.8694  0.0822 -0.2672
  151SAPE   H8X16789   3.256   2.588   9.029 -1.8810 -1.3607  0.2988
  151SAPE   H8Y16790   3.268   2.409   9.052 -0.5021  0.5237  0.2904
  151SAPE   C3916791   3.455   2.513   9.021 -0.8053  1.1043 -0.1376
  151SAPE   H9X16792   3.521   2.436   9.068 -2.8588 -0.4211  0.3661
  151SAPE   H9Y16793   3.496   2.614   9.043  1.2700 -0.0368  1.7032
  151SAPE  C31016794   3.457   2.490   8.870 -0.5190 -0.1210  0.2883
  151SAPE  H10X16795   3.396   2.566   8.816 -1.7447 -0.1730  1.5581
  151SAPE  H10Y16796   3.415   2.392   8.838  1.6555 -0.6869 -1.0877
  151SAPE  C31116797   3.601   2.468   8.810  0.8405  0.1563 -0.7497
  151SAPE  H11X16798   3.642   2.376   8.858 -0.7676 -0.0323  0.3585
  151SAPE  H11Y16799   3.671   2.549   8.838  0.7252 -0.2674  0.8722
  151SAPE  C31216800   3.590   2.466   8.654 -0.3701  0.2932  0.2343
  151SAPE  H12X16801   3.532   2.559   8.636  0.1519  0.9402  1.7296
  151SAPE  H12Y16802   3.538   2.379   8.609  0.3719  2.0642 -4.6221
  151SAPE  C31316803   3.720   2.477   8.576 -0.3341  0.0911  0.1910
  151SAPE  H13X16804   3.797   2.400   8.597 -0.7531 -0.3945 -0.0215
  151SAPE  H13Y16805   3.770   2.571   8.608  1.6735 -0.6074 -0.7428
  151SAPE  C31416806   3.695   2.475   8.420 -0.3902 -0.4297 -0.2306
  151SAPE  H14X16807   3.673   2.580   8.391 -0.6542  0.2810  2.2690
  151SAPE  H14Y16808   3.607   2.410   8.401  0.0475 -1.7582  1.8769
  151SAPE  C31516809   3.814   2.428   8.331 -0.2732  0.4712  0.0447
  151SAPE  H15X16810   3.786   2.430   8.224  2.0238  1.3288 -0.5896
  151SAPE  H15Y16811   3.837   2.322   8.356  1.7202  1.1716  1.4182
  151SAPE  C31616812   3.942   2.504   8.342  0.0071 -0.0715 -0.8835
  151SAPE  H16X16813   3.970   2.527   8.447  0.4617  1.4275 -1.3054
  151SAPE  H16Y16814   3.934   2.599   8.285  2.3927  0.0182 -1.1859
  151SAPE  C31716815   4.060   2.428   8.278  0.1499  0.2803  0.4286
  151SAPE  H17X16816   4.049   2.431   8.167  0.7389  1.7364  0.3983
  151SAPE  H17Y16817   4.055   2.323   8.316 -0.1740  0.4558  0.8711
  151SAPE  C31816818   4.195   2.488   8.322  0.5335  0.0693  0.5835
  151SAPE  H18X16819   4.220   2.475   8.429 -0.1862  1.1977  0.9103
  151SAPE  H18Y16820   4.206   2.596   8.296 -1.0762 -0.4784 -2.9252
  151SAPE  H18Z16821   4.267   2.435   8.257  0.1673  1.3214 -0.9025
  152SAPE     N16822   3.734   2.335  10.636 -0.0066  0.4327  0.1929
  152SAPE   HN116823   3.789   2.378  10.713  0.6576  0.9466 -0.5576
  152SAPE   HN216824   3.807   2.323  10.563 -0.5054 -0.5934 -0.1545
  152SAPE   HN316825   3.662   2.403  10.604 -1.8387 -0.9348  1.1848
  152SAPE   C1216826   3.675   2.194  10.665 -0.6190  0.1460  0.0732
  152SAPE  H12A16827   3.650   2.148  10.567 -2.3357 -1.6011  1.2499
  152SAPE  H12B16828   3.584   2.215  10.726 -0.4567  1.2676 -0.0446
  152SAPE   C1116829   3.768   2.109  10.756 -0.5288  0.5192  0.3403
  152SAPE  H11A16830   3.725   2.008  10.771 -0.0859  0.5406  2.0097
  152SAPE  H11B16831   3.770   2.157  10.857  0.1703  1.9178 -0.3038
  152SAPE     P16832   4.024   2.057  10.794  0.2264 -0.3645  0.2873
  152SAPE   O1316833   4.078   2.179  10.850  0.6042  0.5245 -0.8758
  152SAPE   O1416834   3.973   1.957  10.887 -0.0413  0.3478 -0.0621
  152SAPE   O1216835   3.902   2.104  10.701  0.6778  0.2235 -0.1834
  152SAPE   O1116836   4.128   2.002  10.687  0.7599 -0.1841  0.1058
  152SAPE    C116837   4.204   2.090  10.609 -0.2771  0.1426 -0.1331
  152SAPE    HA16838   4.276   2.147  10.671  0.0597 -0.4773  0.0608
  152SAPE    HB16839   4.274   2.031  10.545  2.0419  3.5606 -1.0581
  152SAPE    C216840   4.130   2.194  10.520  0.0392  0.4083 -0.4925
  152SAPE    HS16841   4.062   2.249  10.588  0.4539 -1.2005  1.3200
  152SAPE   O2116842   4.063   2.131  10.408 -0.1031  0.0554 -0.1328
  152SAPE   C2116843   3.947   2.195  10.377 -0.3523 -0.9746  0.0915
  152SAPE   O2216844   3.901   2.293  10.434 -0.4849 -0.0550  0.0378
  152SAPE   C2216845   3.885   2.126  10.263 -0.8271  0.1402 -0.5218
  152SAPE   H2R16846   3.960   2.072  10.202 -1.4974 -2.3882  0.7579
  152SAPE   H2S16847   3.826   2.044  10.310 -0.6242  0.1622 -0.2306
  152SAPE    C316848   4.226   2.303  10.468 -0.3394  0.2936  0.6729
  152SAPE    HX16849   4.271   2.360  10.552 -1.0955 -0.5553  1.6701
  152SAPE    HY16850   4.176   2.392  10.424  0.2150 -0.1683 -0.9618
  152SAPE   O3116851   4.321   2.251  10.375 -0.1744 -0.5042  0.1958
  152SAPE   C3116852   4.292   2.243  10.241  0.1944  0.3620 -0.0791
  152SAPE   O3216853   4.194   2.286  10.183  0.1232 -0.2392  0.0247
  152SAPE   C3216854   4.400   2.168  10.165 -0.4418  0.2215  0.1801
  152SAPE   H2X16855   4.384   2.065  10.204 -0.5227 -0.3798 -1.3538
  152SAPE   H2Y16856   4.495   2.225  10.171 -0.2137 -0.0611 -0.6258
  152SAPE   C2316857   3.794   2.221  10.184  0.2531 -0.1292  0.4639
  152SAPE   H3R16858   3.857   2.306  10.150  1.7614 -0.9324  1.1422
  152SAPE   H3S16859   3.710   2.251  10.251 -0.9805 -1.3057 -0.5166
  152SAPE   C2416860   3.740   2.148  10.057  0.8936 -0.6911  0.0699
  152SAPE   H4R16861   3.732   2.040  10.080  3.3500 -1.0179 -0.2763
  152SAPE   H4S16862   3.826   2.153   9.987  1.7156  1.6657  1.1549
  152SAPE   C2516863   3.610   2.208  10.012  0.7383 -0.2231  0.2125
  152SAPE   H5R16864   3.530   2.214  10.087  1.1982 -0.6048  0.7367
  152SAPE   C2616865   3.583   2.244   9.886 -0.8699  0.7183 -0.3523
  152SAPE   H6R16866   3.487   2.292   9.861  0.1165  1.5114 -2.9814
  152SAPE   C2716867   3.668   2.229   9.758 -0.3681 -0.3608 -0.0314
  152SAPE   H7R16868   3.774   2.237   9.789  0.0960 -1.4159 -1.2715
  152SAPE   H7S16869   3.652   2.315   9.689  0.8919 -0.0695  0.0144
  152SAPE   C2816870   3.656   2.094   9.687  0.8906 -0.1400 -0.0760
  152SAPE   H8R16871   3.632   2.008   9.751  0.8041 -0.8724 -1.0604
  152SAPE   C2916872   3.646   2.070   9.551 -0.1151 -1.3309  0.6187
  152SAPE   H9R16873   3.632   1.970   9.506  1.4553  0.0202 -3.2748
  152SAPE  C21016874   3.644   2.186   9.450  0.1877  0.1703  0.0151
  152SAPE  H10R16875   3.640   2.289   9.493  0.0879  0.3523 -0.4185
  152SAPE  H10S16876   3.546   2.182   9.399  0.7983  2.8680 -1.5684
  152SAPE  C21116877   3.748   2.184   9.342 -0.1106 -0.2162 -0.2766
  152SAPE  H11R16878   3.838   2.241   9.371 -1.9645  1.7516  2.0622
  152SAPE  C21216879   3.737   2.128   9.216  0.4062 -0.4406  0.1294
  152SAPE  H12R16880   3.819   2.127   9.143  0.9600 -0.0093  0.7298
  152SAPE  C21316881   3.608   2.067   9.174  0.1112  0.3290  0.5735
  152SAPE  H13R16882   3.530   2.144   9.189  0.8897  1.1393  0.5297
  152SAPE  H13S16883   3.572   1.990   9.247 -0.7766 -0.1144 -0.3063
  152SAPE  C21416884   3.608   2.005   9.036  0.5847 -0.2994 -0.0376
  152SAPE  H14R16885   3.702   1.958   9.006  1.0478  0.2953  0.4686
  152SAPE  C21516886   3.500   1.981   8.953 -0.2672 -0.2027 -0.1216
  152SAPE  H15R16887   3.513   1.925   8.859  4.1413  0.1859  0.0355
  152SAPE  C21616888   3.358   2.024   8.975 -0.1380 -0.5448 -0.2790
  152SAPE  H16R16889   3.362   2.076   9.073  2.3289 -1.9037  0.4255
  152SAPE  H16S16890   3.304   1.929   8.997  0.7783 -0.5720  2.1064
  152SAPE  C21716891   3.301   2.097   8.854 -0.8851 -0.3293 -0.1085
  152SAPE  H17R16892   3.318   2.028   8.770 -1.1396  0.0262 -0.4568
  152SAPE  H17S16893   3.350   2.196   8.841 -1.7953  0.2849  0.8307
  152SAPE  C21816894   3.152   2.110   8.876  0.2399 -0.3206  0.4254
  152SAPE  H18R16895   3.122   2.153   8.974 -2.7029  0.5305 -0.7670
  152SAPE  H18S16896   3.113   2.006   8.871 -2.2480  0.5778 -0.1411
  152SAPE  C21916897   3.088   2.194   8.763 -0.0118 -0.0708  0.2560
  152SAPE  H19R16898   2.980   2.171   8.759 -0.3071  1.3506 -0.8316
  152SAPE  H19S16899   3.124   2.159   8.663 -0.3451 -0.8448  0.3999
  152SAPE  C22016900   3.111   2.351   8.764  0.1402  0.0766 -0.2561
  152SAPE  H20R16901   3.058   2.377   8.858 -1.8140 -2.2974 -0.6068
  152SAPE  H20S16902   3.063   2.406   8.681  1.0343 -1.4168 -1.8256
  152SAPE  H20T16903   3.219   2.375   8.756  0.1085  1.6841  2.6768
  152SAPE   C3316904   4.364   2.169  10.018 -0.0864  0.6964 -0.0880
  152SAPE   H3X16905   4.336   2.273   9.989  1.5328  1.0515 -0.4576
  152SAPE   H3Y16906   4.280   2.104   9.986 -1.9188  2.9944 -0.2168
  152SAPE   C3416907   4.496   2.140   9.945  0.1738 -0.0997 -0.1816
  152SAPE   H4X16908   4.496   2.035   9.909 -0.0808  0.2161 -1.1431
  152SAPE   H4Y16909   4.584   2.142  10.012  0.1795  0.5234 -0.2041
  152SAPE   C3516910   4.513   2.223   9.815  0.6805  0.6587 -0.5889
  152SAPE   H5X16911   4.585   2.179   9.742 -0.5515  0.6110 -1.8142
  152SAPE   H5Y16912   4.547   2.326   9.840  1.2358  1.1856 -3.2606
  152SAPE   C3616913   4.385   2.215   9.734 -0.5431  0.8900 -0.4287
  152SAPE   H6X16914   4.301   2.266   9.786 -1.4985 -1.5000  0.5208
  152SAPE   H6Y16915   4.350   2.114   9.705 -0.7489  1.0040 -0.5823
  152SAPE   C3716916   4.414   2.286   9.596 -0.2336  0.4769 -0.4980
  152SAPE   H7X16917   4.488   2.221   9.546  0.9734  1.6149 -0.2535
  152SAPE   H7Y16918   4.468   2.381   9.614  1.8542 -0.8911  0.8383
  152SAPE   C3816919   4.288   2.293   9.504  0.5625 -0.2477 -1.1926
  152SAPE   H8X16920   4.218   2.207   9.513 -1.1539  0.9680 -2.1411
  152SAPE   H8Y16921   4.337   2.307   9.405 -0.0095  0.4872 -1.3842
  152SAPE   C3916922   4.192   2.415   9.525  0.5140 -0.4209 -0.0790
  152SAPE   H9X16923   4.262   2.501   9.519  0.8654 -0.6812  0.2464
  152SAPE   H9Y16924   4.143   2.421   9.624 -0.1340  3.7041 -0.4711
  152SAPE  C31016925   4.093   2.417   9.401  0.5612  0.3740 -0.0387
  152SAPE  H10X16926   4.021   2.500   9.421  0.0256 -0.7200  3.0884
  152SAPE  H10Y16927   4.040   2.320   9.400  0.3984  0.3544  2.9028
  152SAPE  C31116928   4.162   2.431   9.263  0.3240  0.2980 -0.1436
  152SAPE  H11X16929   4.201   2.337   9.218 -1.3761  0.5483 -2.2914
  152SAPE  H11Y16930   4.253   2.494   9.276  0.4561  0.1087 -0.1456
  152SAPE  C31216931   4.079   2.491   9.151  0.8089 -0.3643  0.1633
  152SAPE  H12X16932   4.142   2.565   9.097 -0.1573 -0.0860 -0.6338
  152SAPE  H12Y16933   3.997   2.544   9.204 -0.7051 -0.5650 -1.8188
  152SAPE  C31316934   4.026   2.382   9.054  0.4655 -1.0091 -0.1534
  152SAPE  H13X16935   3.967   2.303   9.107 -0.3279  0.0852  0.6452
  152SAPE  H13Y16936   4.113   2.335   9.004 -1.9741 -1.0478 -4.9835
  152SAPE  C31416937   3.946   2.439   8.933 -0.0629 -0.0342  0.1460
  152SAPE  H14X16938   3.853   2.488   8.968  0.4002  0.1176  1.1903
  152SAPE  H14Y16939   3.914   2.354   8.869  1.7490 -0.7563  0.1450
  152SAPE  C31516940   4.019   2.529   8.832  0.4001  0.1063  0.0876
  152SAPE  H15X16941   4.080   2.604   8.887 -0.3659  0.4035  0.5510
  152SAPE  H15Y16942   3.939   2.578   8.772 -0.7627 -1.4849  0.2860
  152SAPE  C31616943   4.117   2.469   8.726  0.3352 -0.1589 -0.6085
  152SAPE  H16X16944   4.126   2.560   8.663 -0.6574  1.0513  0.9412
  152SAPE  H16Y16945   4.066   2.388   8.669  2.0811 -1.8115  0.0713
  152SAPE  C31716946   4.245   2.420   8.781  0.4834  0.5736  0.6560
  152SAPE  H17X16947   4.247   2.328   8.843  1.3344 -1.2185 -1.8748
  152SAPE  H17Y16948   4.294   2.496   8.845 -0.1583  0.8958  0.7787
  152SAPE  C31816949   4.344   2.391   8.666 -0.3516 -0.3555 -0.0122
  152SAPE  H18X16950   4.293   2.319   8.599  0.3490 -0.6955 -0.1834
  152SAPE  H18Y16951   4.432   2.342   8.712 -0.9226 -0.8753  0.5307
  152SAPE  H18Z16952   4.376   2.487   8.620 -0.3792  1.2988  3.1989
  153SAPE     N16953   5.561   3.993  10.815  0.4890 -0.2545 -0.0389
  153SAPE   HN116954   5.553   3.890  10.803  2.5554 -0.5656  0.8798
  153SAPE   HN216955   5.654   4.025  10.783  0.1921  1.9980  1.1214
  153SAPE   HN316956   5.558   4.018  10.916  2.0080 -0.0046 -0.0367
  153SAPE   C1216957   5.461   4.076  10.735 -0.0971 -0.0276  0.1343
  153SAPE  H12A16958   5.485   4.184  10.742  1.3199 -0.2291 -1.0858
  153SAPE  H12B16959   5.370   4.056  10.795  1.4902  0.6455  2.9390
  153SAPE   C1116960   5.441   4.045  10.588  0.0455 -0.1811 -0.1413
  153SAPE  H11A16961   5.529   4.047  10.521 -0.9094 -0.6048 -1.4658
  153SAPE  H11B16962   5.398   4.135  10.539  0.0225 -0.3268 -0.3916
  153SAPE     P16963   5.442   3.792  10.529 -0.1575 -0.1768  0.4140
  153SAPE   O1316964   5.557   3.791  10.618 -0.6264  0.1366  0.2972
  153SAPE   O1416965   5.350   3.675  10.530  0.0532 -0.1717 -0.4308
  153SAPE   O1216966   5.359   3.924  10.563  1.3143  0.4851  0.1767
  153SAPE   O1116967   5.493   3.812  10.386  0.1343 -0.1400  0.2553
  153SAPE    C116968   5.402   3.851  10.277 -0.2289 -0.1367  0.2187
  153SAPE    HA16969   5.307   3.893  10.317 -1.1598 -0.9256 -1.0721
  153SAPE    HB16970   5.445   3.936  10.219 -0.2141 -0.3481 -0.0888
  153SAPE    C216971   5.360   3.729  10.192 -0.7941 -0.0283 -0.9033
  153SAPE    HS16972   5.303   3.668  10.265  0.7760  0.2782  0.6410
  153SAPE   O2116973   5.484   3.665  10.151  0.2380 -0.7842  0.1386
  153SAPE   C2116974   5.459   3.550  10.090 -0.0093  0.0604 -0.2869
  153SAPE   O2216975   5.350   3.498  10.079 -0.0254  0.2452 -0.3639
  153SAPE   C2216976   5.586   3.481  10.054  0.6031  0.2112  0.0488
  153SAPE   H2R16977   5.659   3.550  10.004  1.0741 -0.9696 -0.9424
  153SAPE   H2S16978   5.623   3.440  10.150 -0.6727  0.4566  0.6587
  153SAPE    C316979   5.270   3.784  10.076  0.3550 -0.1442  0.4636
  153SAPE    HX16980   5.222   3.697  10.026  0.5638  0.4076 -0.7284
  153SAPE    HY16981   5.337   3.836  10.004  0.9455 -1.1191  0.2771
  153SAPE   O3116982   5.175   3.880  10.119  0.4363  0.0127  0.5691
  153SAPE   C3116983   5.054   3.833  10.155 -0.3062 -0.0940  0.1660
  153SAPE   O3216984   5.031   3.721  10.194  0.0857  0.0310  0.6825
  153SAPE   C3216985   4.962   3.955  10.131  0.0135 -0.1170  0.4841
  153SAPE   H2X16986   5.019   4.040  10.087 -1.2150  1.0862  1.1456
  153SAPE   H2Y16987   4.924   3.983  10.231  2.3623  0.1351  1.3858
  153SAPE   C2316988   5.590   3.361   9.952 -0.4885 -0.1081 -1.2688
  153SAPE   H3R16989   5.529   3.278   9.993 -1.2609 -0.1939 -2.5558
  153SAPE   H3S16990   5.694   3.321   9.959  0.0789  1.5052  2.4466
  153SAPE   C2416991   5.556   3.399   9.813 -0.0499  0.6552 -0.6269
  153SAPE   H4R16992   5.610   3.491   9.784 -0.4396  0.2307 -2.8493
  153SAPE   H4S16993   5.448   3.425   9.810 -0.4053 -0.0649  2.3239
  153SAPE   C2516994   5.594   3.292   9.717  0.3579  0.4255 -0.1036
  153SAPE   H5R16995   5.581   3.188   9.753 -0.7841  0.3338 -0.7416
  153SAPE   C2616996   5.644   3.304   9.596  0.4988  0.6789  0.7279
  153SAPE   H6R16997   5.674   3.213   9.542 -3.9888 -0.4755 -0.2038
  153SAPE   C2716998   5.683   3.434   9.522  0.3029  0.1955 -0.0359
  153SAPE   H7R16999   5.772   3.414   9.459  0.4437  2.7653 -0.7967
  153SAPE   H7S17000   5.708   3.505   9.604 -0.7175 -2.0476  2.3591
  153SAPE   C2817001   5.562   3.478   9.445 -0.8484 -0.3049  0.3871
  153SAPE   H8R17002   5.467   3.449   9.493 -1.1389  0.6590  0.4058
  153SAPE   C2917003   5.558   3.547   9.320 -0.4197 -0.2915 -0.0605
  153SAPE   H9R17004   5.462   3.586   9.282  0.3357  0.1668 -1.5977
  153SAPE  C21017005   5.666   3.590   9.233  0.0430 -0.0288 -0.0531
  153SAPE  H10R17006   5.772   3.560   9.250  0.1082  0.0037 -0.3930
  153SAPE  H10S17007   5.667   3.701   9.227  1.3952  0.0592  1.1415
  153SAPE  C21117008   5.663   3.537   9.089  0.8965 -0.1995 -0.0672
  153SAPE  H11R17009   5.722   3.446   9.069  1.3040  0.2818 -1.1200
  153SAPE  C21217010   5.620   3.598   8.982  0.4899 -0.2222  0.1435
  153SAPE  H12R17011   5.641   3.556   8.882 -2.4343  0.5296 -0.8899
  153SAPE  C21317012   5.562   3.735   8.963 -0.5082  0.7678  0.0896
  153SAPE  H13R17013   5.575   3.805   9.049 -0.7707  1.0300 -0.0800
  153SAPE  H13S17014   5.452   3.721   8.958 -0.2395 -2.8620  1.4054
  153SAPE  C21417015   5.612   3.804   8.842  0.3686 -0.0683  0.5365
  153SAPE  H14R17016   5.720   3.799   8.821  0.2927  1.9969 -0.5847
  153SAPE  C21517017   5.538   3.877   8.757  0.3733 -0.1490 -1.0549
  153SAPE  H15R17018   5.587   3.915   8.666 -0.8747 -1.9351 -2.5387
  153SAPE  C21617019   5.390   3.900   8.768  0.2208  0.6020  0.1881
  153SAPE  H16R17020   5.376   4.009   8.783 -2.2226  0.4789 -0.7801
  153SAPE  H16S17021   5.342   3.842   8.850  0.0620 -0.6527 -0.7721
  153SAPE  C21717022   5.309   3.873   8.638 -0.1797  0.7698 -0.0354
  153SAPE  H17R17023   5.360   3.923   8.553  2.3507 -1.0047  0.3364
  153SAPE  H17S17024   5.203   3.906   8.643 -0.9151 -1.5661  1.3020
  153SAPE  C21817025   5.304   3.722   8.590  0.5469  0.0878 -0.0426
  153SAPE  H18R17026   5.279   3.671   8.685 -1.3163  3.3666  1.4186
  153SAPE  H18S17027   5.409   3.690   8.570  1.3075  2.5634 -0.3671
  153SAPE  C21917028   5.204   3.697   8.468 -0.1064  0.0202 -0.5313
  153SAPE  H19R17029   5.243   3.763   8.388 -2.1377  0.2761 -1.3648
  153SAPE  H19S17030   5.107   3.745   8.492 -0.1396  0.3788 -1.3379
  153SAPE  C22017031   5.193   3.553   8.424  0.7829  0.1848  0.3403
  153SAPE  H20R17032   5.164   3.487   8.509  0.7276  0.0862  0.2456
  153SAPE  H20S17033   5.292   3.512   8.394  0.7403  0.6987 -0.5439
  153SAPE  H20T17034   5.132   3.527   8.335  0.4536 -0.6085  0.7847
  153SAPE   C3317035   4.839   3.917  10.041  0.7912 -0.0045 -0.0143
  153SAPE   H3X17036   4.749   3.974  10.072  2.8647  4.3804 -1.2511
  153SAPE   H3Y17037   4.827   3.807  10.050  0.8771 -0.0552 -0.4868
  153SAPE   C3417038   4.857   3.940   9.894  0.2849 -0.6543 -0.2201
  153SAPE   H4X17039   4.954   3.896   9.863  0.3160 -0.0948 -0.9248
  153SAPE   H4Y17040   4.853   4.049   9.874  2.8138 -0.6108 -0.7229
  153SAPE   C3517041   4.755   3.871   9.804  0.5699  0.1410 -0.1945
  153SAPE   H5X17042   4.658   3.906   9.846  0.9450  1.5342 -0.4475
  153SAPE   H5Y17043   4.775   3.761   9.800  1.9017  0.4055 -2.2553
  153SAPE   C3617044   4.773   3.912   9.656 -0.8196 -0.0837 -0.3319
  153SAPE   H6X17045   4.879   3.908   9.626 -0.6537  0.4922  0.1502
  153SAPE   H6Y17046   4.743   4.020   9.659  2.0848  0.7963  1.8641
  153SAPE   C3717047   4.689   3.832   9.554 -0.3734  0.8044 -0.3785
  153SAPE   H7X17048   4.701   3.895   9.463  3.9742  2.3841  1.0161
  153SAPE   H7Y17049   4.581   3.829   9.580 -0.5064  1.0446 -0.9012
  153SAPE   C3817050   4.737   3.686   9.521  0.2841 -0.0720 -0.3335
  153SAPE   H8X17051   4.718   3.626   9.613 -1.4561 -0.1467 -0.7152
  153SAPE   H8Y17052   4.845   3.689   9.495  0.2998  0.7055 -0.1814
  153SAPE   C3917053   4.665   3.613   9.403 -0.3195  0.6637 -0.3192
  153SAPE   H9X17054   4.562   3.586   9.434 -0.3998  0.5586 -0.6654
  153SAPE   H9Y17055   4.732   3.524   9.396  2.7810  2.7559  0.4055
  153SAPE  C31017056   4.655   3.695   9.272  0.3768 -0.2654 -0.0924
  153SAPE  H10X17057   4.755   3.733   9.240 -0.4839  0.4164 -2.1568
  153SAPE  H10Y17058   4.596   3.788   9.288  0.4552 -0.5931  2.5221
  153SAPE  C31117059   4.604   3.609   9.153 -0.1192 -0.3334 -1.2812
  153SAPE  H11X17060   4.507   3.566   9.184  2.0527 -3.5161  1.7669
  153SAPE  H11Y17061   4.665   3.517   9.137 -0.1764 -0.2480 -2.0098
  153SAPE  C31217062   4.560   3.690   9.030 -0.3056  0.1162 -0.4721
  153SAPE  H12X17063   4.641   3.751   8.987  2.2209 -3.5435 -1.3096
  153SAPE  H12Y17064   4.483   3.764   9.063 -2.3839 -2.6877  1.4302
  153SAPE  C31317065   4.505   3.607   8.915  0.4051 -0.0438 -0.5081
  153SAPE  H13X17066   4.443   3.526   8.959  1.8037 -0.6419  0.4249
  153SAPE  H13Y17067   4.590   3.548   8.876  0.0287 -0.2685 -0.9967
  153SAPE  C31417068   4.438   3.704   8.808 -0.2980 -0.0619 -0.1660
  153SAPE  H14X17069   4.519   3.772   8.773 -0.6372  0.1984 -0.4495
  153SAPE  H14Y17070   4.350   3.764   8.838  0.8644  1.2054  0.8476
  153SAPE  C31517071   4.386   3.628   8.685  0.4314 -0.3082  0.2320
  153SAPE  H15X17072   4.316   3.699   8.637 -0.5249 -0.6913  1.0484
  153SAPE  H15Y17073   4.331   3.536   8.714 -1.2434  0.3160 -0.8181
  153SAPE  C31617074   4.497   3.586   8.589 -0.4827  0.9000 -0.1722
  153SAPE  H16X17075   4.548   3.493   8.621  1.8085  1.4588 -1.9389
  153SAPE  H16Y17076   4.582   3.657   8.593  1.1648 -0.5939 -3.7529
  153SAPE  C31717077   4.449   3.562   8.448  0.3475  0.3787 -0.5736
  153SAPE  H17X17078   4.418   3.660   8.406 -0.2078 -0.1128 -1.3363
  153SAPE  H17Y17079   4.359   3.499   8.461  0.2207  0.9116  1.3520
  153SAPE  C31817080   4.549   3.508   8.347  0.5722 -0.4663 -0.3312
  153SAPE  H18X17081   4.638   3.575   8.344  1.0652 -1.1168 -0.9090
  153SAPE  H18Y17082   4.500   3.494   8.248 -0.7830  0.9963  0.1032
  153SAPE  H18Z17083   4.591   3.410   8.381 -0.4692 -0.5534  0.7672
  154SAPE     N17084   5.032   3.401  10.652  0.4676  0.7913 -0.4625
  154SAPE   HN117085   5.007   3.494  10.691  1.3644  0.2051  1.6321
  154SAPE   HN217086   5.126   3.378  10.689 -0.1710 -0.8245  0.2519
  154SAPE   HN317087   5.032   3.410  10.548 -1.6565 -0.9034 -0.6843
  154SAPE   C1217088   4.940   3.289  10.696 -0.7291 -0.7324  0.0284
  154SAPE  H12A17089   4.909   3.322  10.797 -0.2580  1.3240 -0.4435
  154SAPE  H12B17090   5.010   3.204  10.712 -1.3630 -1.7563 -2.3074
  154SAPE   C1117091   4.838   3.276  10.583  0.4393  0.1212 -0.0339
  154SAPE  H11A17092   4.772   3.190  10.607  0.7917  0.5297  2.7861
  154SAPE  H11B17093   4.889   3.258  10.486 -0.7452 -0.5129 -0.5520
  154SAPE     P17094   4.651   3.441  10.678  0.2855 -0.0133  0.2078
  154SAPE   O1317095   4.607   3.332  10.767  0.3197  0.3054  0.6253
  154SAPE   O1417096   4.705   3.555  10.754 -0.2830 -0.1151  0.0142
  154SAPE   O1217097   4.757   3.390  10.566 -0.0773 -0.4069  0.0473
  154SAPE   O1117098   4.535   3.494  10.589 -0.6925 -0.4123  0.0353
  154SAPE    C117099   4.468   3.412  10.497  0.5132  0.2149  0.2256
  154SAPE    HA17100   4.506   3.308  10.489  2.2619  0.9743 -2.2524
  154SAPE    HB17101   4.367   3.394  10.541  0.8160  0.8175  1.2140
  154SAPE    C217102   4.478   3.469  10.352 -0.4657  0.7168  0.3181
  154SAPE    HS17103   4.421   3.409  10.279  1.0992 -0.6230  0.1520
  154SAPE   O2117104   4.618   3.477  10.313  0.8381 -0.3278  0.4448
  154SAPE   C2117105   4.668   3.360  10.272  0.2181 -0.3818 -0.1165
  154SAPE   O2217106   4.615   3.251  10.274  0.2412  0.2564 -0.4100
  154SAPE   C2217107   4.806   3.380  10.215 -0.1837  0.9689  0.0462
  154SAPE   H2R17108   4.866   3.451  10.277 -0.4157  1.4318 -0.2544
  154SAPE   H2S17109   4.862   3.284  10.223  1.3999  1.6479 -2.1662
  154SAPE    C317110   4.410   3.614  10.362  0.5815  0.3948 -0.1452
  154SAPE    HX17111   4.452   3.686  10.435  1.7790  0.4969 -0.9064
  154SAPE    HY17112   4.309   3.590  10.403  1.2134  0.6205  1.6389
  154SAPE   O3117113   4.397   3.670  10.223  0.2601 -0.1006  0.3171
  154SAPE   C3117114   4.500   3.727  10.184  0.2924 -0.7268  0.6411
  154SAPE   O3217115   4.583   3.781  10.257  0.5049 -0.0748 -0.1687
  154SAPE   C3217116   4.510   3.735  10.033 -0.1587 -0.4523  0.4370
  154SAPE   H2X17117   4.617   3.721  10.006 -0.7626 -0.2081 -2.3889
  154SAPE   H2Y17118   4.484   3.838  10.001  1.0336 -0.4422 -0.6103
  154SAPE   C2317119   4.792   3.415  10.070  0.5538  0.7414 -0.1988
  154SAPE   H3R17120   4.741   3.512  10.051  0.9175  0.9157 -0.2964
  154SAPE   H3S17121   4.736   3.332  10.021 -0.5189  1.7898 -0.7906
  154SAPE   C2417122   4.927   3.419   9.993 -0.5416 -0.8727  0.4070
  154SAPE   H4R17123   4.995   3.337  10.025  1.5045  0.5025 -0.2619
  154SAPE   H4S17124   4.975   3.513  10.028 -2.7650  2.0034 -3.4799
  154SAPE   C2517125   4.910   3.408   9.845 -0.1758  0.3344  1.0347
  154SAPE   H5R17126   4.846   3.327   9.807 -1.0813  1.6828 -0.4380
  154SAPE   C2617127   4.960   3.491   9.749 -0.2518 -0.1656  0.0877
  154SAPE   H6R17128   4.951   3.473   9.641  0.8624 -2.0599  0.2737
  154SAPE   C2717129   5.039   3.620   9.778  0.4679  0.9433 -0.6217
  154SAPE   H7R17130   5.017   3.652   9.882  1.6359  1.7788 -0.6104
  154SAPE   H7S17131   4.987   3.703   9.726 -0.0360  1.6579  0.9597
  154SAPE   C2817132   5.184   3.613   9.737  0.2880  0.2893  0.6304
  154SAPE   H8R17133   5.251   3.559   9.807  2.9722  1.3289 -0.9571
  154SAPE   C2917134   5.225   3.651   9.608 -0.2789  0.2894 -0.7799
  154SAPE   H9R17135   5.331   3.644   9.583 -0.3576 -0.6801 -0.9109
  154SAPE  C21017136   5.132   3.695   9.502  0.1282 -0.1399 -0.1965
  154SAPE  H10R17137   5.050   3.754   9.548  0.8938  0.3493  0.5791
  154SAPE  H10S17138   5.092   3.616   9.435  1.3536 -0.8124 -0.1693
  154SAPE  C21117139   5.214   3.788   9.407 -0.0986  0.4112  0.5274
  154SAPE  H11R17140   5.322   3.767   9.409  0.6877  3.6905  3.5389
  154SAPE  C21217141   5.165   3.888   9.335 -0.6155 -0.1852  0.0012
  154SAPE  H12R17142   5.242   3.942   9.277  0.4185 -0.5248  1.0186
  154SAPE  C21317143   5.025   3.955   9.334 -0.2180 -0.3394 -0.3633
  154SAPE  H13R17144   5.013   3.970   9.443  0.0351 -2.9209  0.0793
  154SAPE  H13S17145   4.951   3.874   9.318  0.5781 -1.4619  1.3088
  154SAPE  C21417146   5.009   4.075   9.247  0.3625 -0.5163  0.7819
  154SAPE  H14R17147   5.053   4.170   9.282  1.0908  0.7025 -2.9823
  154SAPE  C21517148   4.969   4.077   9.115  0.0603  0.5484 -0.8003
  154SAPE  H15R17149   4.958   4.174   9.063  0.3159  1.8520  1.4381
  154SAPE  C21617150   4.936   3.956   9.038 -0.1192 -0.6201 -0.0671
  154SAPE  H16R17151   4.849   3.987   8.976  0.5117  0.5361 -0.4158
  154SAPE  H16S17152   4.899   3.868   9.094 -1.2908 -0.8298 -1.1301
  154SAPE  C21717153   5.059   3.916   8.962  0.6063 -0.5045  0.5062
  154SAPE  H17R17154   5.145   3.896   9.030 -0.3225  1.4259  2.3649
  154SAPE  H17S17155   5.090   3.992   8.887  2.0049  1.1242  2.6078
  154SAPE  C21817156   5.036   3.785   8.888  0.2805  0.4513  0.3278
  154SAPE  H18R17157   5.020   3.711   8.969 -0.5910  0.3263  0.0561
  154SAPE  H18S17158   5.119   3.763   8.818  0.0375  0.4036  0.0527
  154SAPE  C21917159   4.914   3.781   8.788  0.5136  0.2081 -0.3314
  154SAPE  H19R17160   4.935   3.871   8.726 -0.9427  1.5665  1.0723
  154SAPE  H19S17161   4.818   3.810   8.834  0.9531  0.7401  0.2653
  154SAPE  C22017162   4.908   3.645   8.721 -0.1203  0.7400 -0.0720
  154SAPE  H20R17163   4.866   3.557   8.773 -0.5212  0.0169 -1.5539
  154SAPE  H20S17164   5.015   3.624   8.697  0.1726  2.8933 -0.8492
  154SAPE  H20T17165   4.853   3.641   8.624 -0.1408 -0.7600 -0.0219
  154SAPE   C3317166   4.429   3.621   9.956 -0.6808 -0.3236  0.3221
  154SAPE   H3X17167   4.323   3.627   9.987 -0.8556  1.3233 -0.4890
  154SAPE   H3Y17168   4.479   3.533  10.000  0.4617 -0.5041 -1.2517
  154SAPE   C3417169   4.450   3.640   9.805  0.0771 -0.3565  0.2581
  154SAPE   H4X17170   4.561   3.649   9.799  0.3098 -2.4366  0.5808
  154SAPE   H4Y17171   4.402   3.737   9.782 -0.9670  0.1539  4.0115
  154SAPE   C3517172   4.413   3.512   9.736 -0.3153  0.9370 -0.3478
  154SAPE   H5X17173   4.473   3.426   9.774  0.1872  1.3677 -0.1665
  154SAPE   H5Y17174   4.433   3.508   9.627  0.0056 -1.3870 -0.2644
  154SAPE   C3617175   4.258   3.482   9.740  0.4437  0.3790 -0.3391
  154SAPE   H6X17176   4.195   3.567   9.707 -0.7412 -0.5309 -0.4711
  154SAPE   H6Y17177   4.229   3.439   9.838  0.2627 -2.0885 -1.3932
  154SAPE   C3717178   4.222   3.373   9.642  0.6156  0.3697 -0.3031
  154SAPE   H7X17179   4.259   3.274   9.677  1.6794  0.2251 -1.7322
  154SAPE   H7Y17180   4.279   3.390   9.548  0.8438 -3.3484 -0.9970
  154SAPE   C3817181   4.068   3.366   9.622 -0.4781  0.2560  0.8554
  154SAPE   H8X17182   4.022   3.465   9.602  0.3896  0.2997 -1.1157
  154SAPE   H8Y17183   4.032   3.333   9.722 -1.5480  0.6482  0.6229
  154SAPE   C3917184   4.022   3.273   9.510  0.3222  0.2533  0.2049
  154SAPE   H9X17185   3.912   3.262   9.525  0.9426 -2.5137  3.8782
  154SAPE   H9Y17186   4.056   3.169   9.525  2.9849  0.4215 -3.2627
  154SAPE  C31017187   4.046   3.327   9.371 -0.0043  1.1194 -0.0124
  154SAPE  H10X17188   4.148   3.365   9.352 -0.1799  1.4362 -0.3385
  154SAPE  H10Y17189   3.987   3.420   9.352 -0.7826  0.6313 -0.0353
  154SAPE  C31117190   4.004   3.216   9.271  0.0004  0.1995  0.1318
  154SAPE  H11X17191   3.908   3.169   9.301  0.2169  0.2398  0.9196
  154SAPE  H11Y17192   4.079   3.134   9.282 -2.0117 -1.8606 -0.6408
  154SAPE  C31217193   4.010   3.246   9.120  0.2304 -0.1828 -0.0810
  154SAPE  H12X17194   3.986   3.144   9.083  0.6621 -0.6441  0.8521
  154SAPE  H12Y17195   4.109   3.278   9.080 -1.6503  2.0015 -3.4636
  154SAPE  C31317196   3.907   3.349   9.074 -0.6625 -0.1955 -0.2240
  154SAPE  H13X17197   3.931   3.448   9.119 -0.9058 -0.3463  0.2449
  154SAPE  H13Y17198   3.808   3.312   9.110 -0.0507 -1.6449  0.0026
  154SAPE  C31417199   3.898   3.371   8.921  0.8308  0.1738 -0.1752
  154SAPE  H14X17200   3.820   3.444   8.893  2.2028  0.7524 -2.7532
  154SAPE  H14Y17201   3.871   3.273   8.876  1.4514  1.0824 -2.6910
  154SAPE  C31517202   4.035   3.414   8.866 -0.0671  0.1370 -0.1018
  154SAPE  H15X17203   4.117   3.341   8.887 -1.1937 -1.3074 -0.5736
  154SAPE  H15Y17204   4.062   3.510   8.915 -0.5720  0.0820  0.2910
  154SAPE  C31617205   4.018   3.430   8.710 -0.0190  0.3833 -0.3325
  154SAPE  H16X17206   4.116   3.465   8.670  0.5893 -1.7407 -0.8401
  154SAPE  H16Y17207   3.934   3.500   8.687 -0.9703 -0.6258  0.0214
  154SAPE  C31717208   4.001   3.292   8.634 -0.0528 -1.0388 -0.1541
  154SAPE  H17X17209   3.906   3.239   8.660  0.2276 -0.6446  1.8100
  154SAPE  H17Y17210   4.090   3.238   8.672 -0.8232 -2.2498  0.0144
  154SAPE  C31817211   4.030   3.290   8.483 -0.4242  0.1069  0.1244
  154SAPE  H18X17212   3.952   3.337   8.420 -0.2309 -0.3689 -0.4800
  154SAPE  H18Y17213   4.041   3.183   8.453  0.6384  0.4232 -0.7091
  154SAPE  H18Z17214   4.131   3.337   8.475 -0.8052  0.9997  0.4676
  155SAPE     N17215   0.204   2.475  10.845  0.3357 -0.7538  0.6198
  155SAPE   HN117216   0.126   2.428  10.895 -1.6023  0.7916 -0.8015
  155SAPE   HN217217   0.286   2.411  10.837  2.4609  1.7726  0.9208
  155SAPE   HN317218   0.237   2.558  10.899  0.8685 -1.0909  0.8253
  155SAPE   C1217219   0.157   2.524  10.706 -0.1317  0.4280 -0.8073
  155SAPE  H12A17220   0.189   2.437  10.644  0.3161 -1.1315  1.5087
  155SAPE  H12B17221   0.214   2.617  10.682  0.4890  0.0725 -0.7274
  155SAPE   C1117222   0.006   2.543  10.706  0.1888 -0.4935 -0.4342
  155SAPE  H11A17223  -0.049   2.449  10.728  0.9322 -1.1627 -1.3335
  155SAPE  H11B17224  -0.027   2.546  10.600 -2.2263  0.8295  0.2904
  155SAPE     P17225  -0.051   2.805  10.704 -0.5060 -0.5485 -0.2006
  155SAPE   O1317226  -0.119   2.901  10.796 -0.1469 -0.0276  0.1444
  155SAPE   O1417227   0.082   2.845  10.648 -0.0675  1.3611 -0.2682
  155SAPE   O1217228  -0.040   2.660  10.775 -0.0456 -0.0441 -0.1470
  155SAPE   O1117229  -0.148   2.783  10.574  0.0373 -0.2791  0.1362
  155SAPE    C117230  -0.270   2.717  10.601 -0.3130 -0.6118 -0.0020
  155SAPE    HA17231  -0.261   2.613  10.562 -1.0230 -0.2290 -1.2492
  155SAPE    HB17232  -0.307   2.721  10.706 -1.5195  0.7172 -0.4520
  155SAPE    C217233  -0.384   2.776  10.508 -0.4555 -0.0329 -0.5870
  155SAPE    HS17234  -0.476   2.718  10.528  0.3429 -0.9515  0.5695
  155SAPE   O2117235  -0.343   2.759  10.379  0.0287  0.1554  0.5165
  155SAPE   C2117236  -0.377   2.648  10.320 -0.8927 -0.0326  0.2753
  155SAPE   O2217237  -0.435   2.553  10.370 -0.5964 -0.2822 -0.0978
  155SAPE   C2217238  -0.345   2.658  10.167 -0.0596 -0.1952 -0.2308
  155SAPE   H2R17239  -0.406   2.742  10.129 -1.6385 -1.2249 -0.0805
  155SAPE   H2S17240  -0.243   2.697  10.151 -0.4646  0.5542 -1.1156
  155SAPE    C317241  -0.406   2.930  10.545  0.5586 -0.8091 -0.0750
  155SAPE    HX17242  -0.314   2.982  10.511  0.9132 -1.6048 -0.3460
  155SAPE    HY17243  -0.402   2.960  10.652 -0.4485 -1.8634  0.2756
  155SAPE   O3117244  -0.520   2.997  10.486  0.1536  0.2616 -0.0262
  155SAPE   C3117245  -0.641   2.964  10.521 -0.4738 -0.2973  0.8576
  155SAPE   O3217246  -0.678   2.896  10.609  0.4039  0.2340  0.5982
  155SAPE   C3217247  -0.743   3.052  10.448 -0.0848  0.1504  0.2152
  155SAPE   H2X17248  -0.711   3.080  10.345 -1.4574 -0.8108 -0.5120
  155SAPE   H2Y17249  -0.749   3.151  10.499 -0.7300 -0.0625  0.5570
  155SAPE   C2317250  -0.362   2.529  10.079  0.2720  0.0453 -0.5597
  155SAPE   H3R17251  -0.307   2.444  10.125  1.0741 -0.2552 -2.0053
  155SAPE   H3S17252  -0.315   2.534   9.979 -0.5022  0.1276 -0.9282
  155SAPE   C2417253  -0.513   2.485  10.064 -0.6541 -0.2909  0.5930
  155SAPE   H4R17254  -0.541   2.450  10.166  2.0639 -1.0587  1.1742
  155SAPE   H4S17255  -0.514   2.397   9.996 -0.5163  1.2452 -1.4973
  155SAPE   C2517256  -0.608   2.595  10.025  0.4905 -0.2810 -0.0076
  155SAPE   H5R17257  -0.589   2.697  10.062 -4.6640  1.1894 -0.6199
  155SAPE   C2617258  -0.714   2.595   9.942 -0.1386  0.3959 -0.7555
  155SAPE   H6R17259  -0.785   2.679   9.941 -1.5003 -0.5431  2.7827
  155SAPE   C2717260  -0.755   2.467   9.869 -0.5615  0.4908 -0.4201
  155SAPE   H7R17261  -0.838   2.413   9.920  1.6991 -2.0846  0.7750
  155SAPE   H7S17262  -0.675   2.391   9.862 -2.7701 -2.1971  1.3803
  155SAPE   C2817263  -0.805   2.497   9.730  0.0624 -0.4605 -0.4968
  155SAPE   H8R17264  -0.895   2.560   9.723  0.4522  0.4676  1.7970
  155SAPE   C2917265  -0.757   2.453   9.616  0.1622  0.8243  0.0326
  155SAPE   H9R17266  -0.818   2.473   9.526 -1.8487 -0.3637  1.0466
  155SAPE  C21017267  -0.646   2.355   9.591 -0.3286 -0.1273  0.7425
  155SAPE  H10R17268  -0.667   2.283   9.509 -0.6365  1.2563 -0.4479
  155SAPE  H10S17269  -0.644   2.290   9.681  1.4336 -0.9856  0.1233
  155SAPE  C21117270  -0.510   2.433   9.581  0.0846  0.8932  0.6043
  155SAPE  H11R17271  -0.493   2.513   9.655  2.4192  0.1523  0.9732
  155SAPE  C21217272  -0.416   2.424   9.479  0.2947  0.9899  0.8301
  155SAPE  H12R17273  -0.323   2.483   9.489  1.5109 -1.1179  2.7020
  155SAPE  C21317274  -0.423   2.342   9.348 -1.0299 -0.4501  0.1660
  155SAPE  H13R17275  -0.500   2.398   9.290 -0.6523  0.3804  0.4412
  155SAPE  H13S17276  -0.456   2.238   9.367 -0.9752 -0.3530  0.8150
  155SAPE  C21417277  -0.290   2.333   9.285 -0.5668 -0.2044  0.0662
  155SAPE  H14R17278  -0.223   2.264   9.339 -1.1991 -1.3352 -0.5329
  155SAPE  C21517279  -0.243   2.394   9.175  0.0225  0.0650 -0.2575
  155SAPE  H15R17280  -0.138   2.395   9.143  0.6203  2.6957  1.4670
  155SAPE  C21617281  -0.321   2.487   9.094  0.8553  0.5659  0.3976
  155SAPE  H16R17282  -0.426   2.507   9.124  0.7532 -0.6745  0.9294
  155SAPE  H16S17283  -0.329   2.455   8.988  0.9917 -1.1121  0.8522
  155SAPE  C21717284  -0.257   2.629   9.085 -0.6146  0.0588 -0.2911
  155SAPE  H17R17285  -0.215   2.652   9.186 -1.1040 -0.8731  0.1313
  155SAPE  H17S17286  -0.337   2.706   9.077 -1.7047 -0.7411  1.8707
  155SAPE  C21817287  -0.139   2.654   8.995 -0.0013  0.1453 -0.1472
  155SAPE  H18R17288  -0.158   2.587   8.909 -1.7481  0.7776 -0.2998
  155SAPE  H18S17289  -0.052   2.627   9.059  0.3250  1.2266 -0.1075
  155SAPE  C21917290  -0.145   2.794   8.948 -0.5045 -1.1897 -0.3034
  155SAPE  H19R17291  -0.115   2.864   9.029 -1.3573 -1.3427  0.1500
  155SAPE  H19S17292  -0.245   2.826   8.913  0.4353 -0.5482 -2.5780
  155SAPE  C22017293  -0.039   2.810   8.840  0.4654  0.3495  0.1506
  155SAPE  H20R17294  -0.081   2.759   8.751  2.3738 -0.2946 -0.4198
  155SAPE  H20S17295   0.058   2.762   8.861 -0.2260 -0.4911  1.6318
  155SAPE  H20T17296  -0.007   2.915   8.823  4.3347 -0.4047  1.7770
  155SAPE   C3317297  -0.880   2.988  10.438  0.2248  0.5339  0.0731
  155SAPE   H3X17298  -0.956   3.063  10.407  1.2743  0.9130 -1.7313
  155SAPE   H3Y17299  -0.914   2.950  10.536  0.1644  0.5712  0.0669
  155SAPE   C3417300  -0.885   2.858  10.347 -0.1337  0.0343 -0.5688
  155SAPE   H4X17301  -0.986   2.812  10.341  0.9963 -2.4234 -3.8603
  155SAPE   H4Y17302  -0.812   2.783  10.384  0.7124  0.2799 -1.6811
  155SAPE   C3517303  -0.834   2.882  10.208 -0.4344 -0.5115  0.4704
  155SAPE   H5X17304  -0.833   2.788  10.148 -0.0812 -2.1605  2.9050
  155SAPE   H5Y17305  -0.735   2.929  10.225 -1.0977  1.0854  0.1208
  155SAPE   C3617306  -0.915   2.988  10.131  0.4774 -0.5619 -0.2133
  155SAPE   H6X17307  -0.905   3.091  10.171  1.4597 -1.0935  0.9717
  155SAPE   H6Y17308  -1.021   2.963  10.153 -0.5117  3.0458 -0.1933
  155SAPE   C3717309  -0.898   2.977   9.980  0.0148 -0.1582 -0.4466
  155SAPE   H7X17310  -0.960   3.056   9.933  1.8675  1.8869  0.3854
  155SAPE   H7Y17311  -0.919   2.878   9.934 -1.1558  0.3397 -1.0130
  155SAPE   C3817312  -0.755   3.007   9.934 -0.2919 -0.0007 -1.2229
  155SAPE   H8X17313  -0.681   2.931   9.965 -0.1605  1.2255  1.7654
  155SAPE   H8Y17314  -0.711   3.094   9.988 -1.2034 -1.5171  2.2312
  155SAPE   C3917315  -0.749   3.038   9.783 -0.2229  0.3784  0.5753
  155SAPE   H9X17316  -0.654   3.090   9.760 -0.1939  0.2661  0.4414
  155SAPE   H9Y17317  -0.834   3.104   9.758 -1.9202 -1.9667 -0.1725
  155SAPE  C31017318  -0.749   2.908   9.703 -0.3546  0.6510  0.0941
  155SAPE  H10X17319  -0.839   2.843   9.712 -0.3406 -0.0743 -3.5751
  155SAPE  H10Y17320  -0.669   2.834   9.725 -2.3601 -1.3367  1.0701
  155SAPE  C31117321  -0.730   2.931   9.554  0.6597  0.0836  0.5964
  155SAPE  H11X17322  -0.632   2.983   9.547  0.2160  0.8623 -0.0228
  155SAPE  H11Y17323  -0.810   2.988   9.501 -0.5943 -0.9585  1.2938
  155SAPE  C31217324  -0.731   2.800   9.480 -0.3468 -0.6695 -0.2278
  155SAPE  H12X17325  -0.810   2.734   9.520  0.1466 -1.5826 -0.7381
  155SAPE  H12Y17326  -0.642   2.737   9.502  0.0466  0.3150  1.1876
  155SAPE  C31317327  -0.750   2.802   9.326  0.0781 -0.5548  0.1382
  155SAPE  H13X17328  -0.690   2.872   9.264 -1.0943 -0.1872 -0.6248
  155SAPE  H13Y17329  -0.849   2.845   9.300  2.1190  2.6399 -3.2673
  155SAPE  C31417330  -0.752   2.665   9.260  0.1017  0.2651  0.1174
  155SAPE  H14X17331  -0.850   2.619   9.283 -0.2679  1.0403  0.1325
  155SAPE  H14Y17332  -0.674   2.608   9.316 -1.4028 -2.7557 -0.6636
  155SAPE  C31517333  -0.732   2.665   9.113 -0.1501  0.9225  0.8296
  155SAPE  H15X17334  -0.628   2.698   9.095  0.6768 -0.9935  1.7412
  155SAPE  H15Y17335  -0.810   2.725   9.062 -0.8084 -1.8634 -1.7630
  155SAPE  C31617336  -0.733   2.518   9.052  0.0905  0.4351 -0.0175
  155SAPE  H16X17337  -0.835   2.475   9.054  1.2545 -2.4990  1.8628
  155SAPE  H16Y17338  -0.673   2.449   9.115  0.0452  0.3059 -0.1150
  155SAPE  C31717339  -0.664   2.514   8.915 -0.0597 -0.3886 -0.5470
  155SAPE  H17X17340  -0.635   2.409   8.892 -0.0880 -0.4845 -0.1635
  155SAPE  H17Y17341  -0.568   2.570   8.918  1.0174 -2.1733  0.9763
  155SAPE  C31817342  -0.742   2.578   8.801 -0.1671  0.7530  0.1150
  155SAPE  H18X17343  -0.850   2.560   8.821  0.1481  0.0760  1.2739
  155SAPE  H18Y17344  -0.712   2.528   8.706  1.7893 -0.2032  1.1921
  155SAPE  H18Z17345  -0.722   2.687   8.794 -0.4481  0.7006 -3.1348
  156SAPE     N17346   3.195   2.735  10.457 -0.4743  0.0156  0.1385
  156SAPE   HN117347   3.130   2.662  10.493 -1.8525  0.0816 -2.0190
  156SAPE   HN217348   3.189   2.721  10.354  0.0019 -0.8650  0.2244
  156SAPE   HN317349   3.291   2.708  10.485 -0.8342 -1.6583 -0.1463
  156SAPE   C1217350   3.166   2.877  10.494 -0.0061 -0.1882 -0.4232
  156SAPE  H12A17351   3.173   2.886  10.605  2.2057  0.8991 -0.6076
  156SAPE  H12B17352   3.064   2.904  10.459 -0.0133 -1.0943 -1.1208
  156SAPE   C1117353   3.281   2.987  10.457 -0.5725 -0.2487  0.4455
  156SAPE  H11A17354   3.254   3.024  10.356 -1.1347  1.5938  1.2415
  156SAPE  H11B17355   3.382   2.940  10.447 -0.5710 -0.2932  0.6557
  156SAPE     P17356   3.382   3.094  10.666 -0.5283  0.1342  0.2520
  156SAPE   O1317357   3.363   3.207  10.762  0.5815 -0.3828  0.0235
  156SAPE   O1417358   3.374   2.959  10.730 -0.1611 -0.0510  0.3175
  156SAPE   O1217359   3.280   3.099  10.550  0.2460  0.0967  0.5576
  156SAPE   O1117360   3.511   3.110  10.577 -0.5104  0.1224 -1.1401
  156SAPE    C117361   3.551   3.232  10.523  0.1447 -0.5091 -1.1078
  156SAPE    HA17362   3.468   3.305  10.531  0.8952  0.3618 -1.1145
  156SAPE    HB17363   3.640   3.269  10.578 -0.9052  0.6017 -0.1139
  156SAPE    C217364   3.564   3.228  10.366  0.4713 -0.1102 -0.9530
  156SAPE    HS17365   3.461   3.210  10.330 -0.5730 -2.5526  2.7304
  156SAPE   O2117366   3.655   3.127  10.326 -0.3568  0.1285  0.6717
  156SAPE   C2117367   3.610   3.044  10.235  0.0132 -0.6216 -0.4366
  156SAPE   O2217368   3.494   3.034  10.191  0.6411 -0.8188 -0.3403
  156SAPE   C2217369   3.715   2.942  10.205  0.2233  0.9512 -0.1917
  156SAPE   H2R17370   3.812   2.977  10.248  0.7802 -0.4929 -0.2123
  156SAPE   H2S17371   3.698   2.848  10.263  0.1805  0.0496 -1.6147
  156SAPE    C317372   3.613   3.367  10.319  0.1175 -0.3941 -0.2659
  156SAPE    HX17373   3.668   3.349  10.224  0.0833  0.9747 -0.5555
  156SAPE    HY17374   3.691   3.396  10.392 -0.7627  0.7986  0.2238
  156SAPE   O3117375   3.509   3.463  10.301 -0.5272  0.3319 -0.2616
  156SAPE   C3117376   3.559   3.589  10.299 -0.1984  0.5547  0.4453
  156SAPE   O3217377   3.676   3.621  10.288  0.0346  0.5086 -0.8350
  156SAPE   C3217378   3.446   3.688  10.315  0.1445  0.2023 -0.2279
  156SAPE   H2X17379   3.466   3.767  10.390 -2.8600  1.6199 -0.7551
  156SAPE   H2Y17380   3.349   3.640  10.343  1.3254 -1.4367  1.2573
  156SAPE   C2317381   3.727   2.902  10.053  0.2848 -0.5807  0.3684
  156SAPE   H3R17382   3.623   2.905  10.015  0.2739 -2.2802  0.1763
  156SAPE   H3S17383   3.762   2.798  10.036  0.7049 -0.3648 -0.1251
  156SAPE   C2417384   3.817   2.987   9.962 -0.1439 -0.7141 -0.5908
  156SAPE   H4R17385   3.813   2.952   9.857 -1.4921  2.6663 -1.8078
  156SAPE   H4S17386   3.922   2.979   9.999 -0.3728  2.1961  0.9389
  156SAPE   C2517387   3.771   3.127   9.982  0.2089 -0.2646 -0.1480
  156SAPE   H5R17388   3.811   3.175  10.073  0.7388 -0.2766 -0.3769
  156SAPE   C2617389   3.683   3.201   9.913 -0.6163 -0.3991  0.3137
  156SAPE   H6R17390   3.645   3.297   9.950  1.9639 -0.0271  2.2512
  156SAPE   C2717391   3.612   3.155   9.788 -0.1219 -0.3580  0.8295
  156SAPE   H7R17392   3.647   3.055   9.755 -1.1724 -0.7910  0.9652
  156SAPE   H7S17393   3.647   3.226   9.711  1.0929  0.5613  2.1804
  156SAPE   C2817394   3.464   3.144   9.799  0.5458 -0.3839  0.4430
  156SAPE   H8R17395   3.436   3.111   9.900  2.3773  0.9506  1.4527
  156SAPE   C2917396   3.370   3.173   9.706  0.1002  0.3703 -0.7174
  156SAPE   H9R17397   3.262   3.173   9.730  0.4418  0.5684  0.9645
  156SAPE  C21017398   3.407   3.220   9.566 -0.1166  0.0665 -0.6630
  156SAPE  H10R17399   3.511   3.257   9.555  0.1208 -0.3536  0.0671
  156SAPE  H10S17400   3.349   3.305   9.525  0.0771  0.3845 -0.2862
  156SAPE  C21117401   3.394   3.108   9.469 -0.3706  0.3021 -0.5974
  156SAPE  H11R17402   3.405   3.010   9.516  2.9580  1.2125  0.7663
  156SAPE  C21217403   3.372   3.116   9.340 -0.5340 -1.5909 -0.4248
  156SAPE  H12R17404   3.340   3.028   9.283  0.3017  0.1157 -3.8549
  156SAPE  C21317405   3.361   3.249   9.265 -0.8162  0.1426 -0.2841
  156SAPE  H13R17406   3.359   3.337   9.332  1.8281 -0.0798  0.1819
  156SAPE  H13S17407   3.268   3.246   9.204 -1.0095 -1.1867  0.0488
  156SAPE  C21417408   3.473   3.267   9.160  0.2199  0.0830 -0.5003
  156SAPE  H14R17409   3.571   3.272   9.210  0.5739  0.9389 -1.2605
  156SAPE  C21517410   3.464   3.266   9.025 -0.1371  0.3337 -0.4678
  156SAPE  H15R17411   3.555   3.283   8.965 -1.2421 -0.4420 -2.4917
  156SAPE  C21617412   3.335   3.240   8.943  0.1983  0.0620 -0.0225
  156SAPE  H16R17413   3.249   3.282   8.998  1.5653 -1.0709  3.1963
  156SAPE  H16S17414   3.318   3.132   8.926 -0.0696  0.1909 -0.6216
  156SAPE  C21717415   3.342   3.314   8.806 -0.0933 -0.4597 -0.0136
  156SAPE  H17R17416   3.354   3.423   8.821  0.2155 -0.6333  1.0358
  156SAPE  H17S17417   3.238   3.304   8.769 -0.4311 -1.1489  1.0794
  156SAPE  C21817418   3.426   3.266   8.683  0.7666 -0.1742 -0.2477
  156SAPE  H18R17419   3.534   3.284   8.704  0.5752  1.8811 -0.8191
  156SAPE  H18S17420   3.402   3.333   8.598 -0.3281  1.1552  1.0624
  156SAPE  C21917421   3.403   3.123   8.640  0.0885 -0.4099 -0.2840
  156SAPE  H19R17422   3.292   3.110   8.639 -0.1843  1.5175 -1.1928
  156SAPE  H19S17423   3.441   3.048   8.712 -0.1933 -0.0221  0.2751
  156SAPE  C22017424   3.455   3.081   8.504 -0.3519 -0.3536  1.0753
  156SAPE  H20R17425   3.562   3.096   8.480 -0.1011 -2.7579  0.4030
  156SAPE  H20S17426   3.387   3.132   8.433 -0.3595 -0.4281  1.0292
  156SAPE  H20T17427   3.447   2.971   8.491 -2.6493  0.0625 -2.7009
  156SAPE   C3317428   3.421   3.772  10.194  0.2001  0.1652  1.4859
  156SAPE   H3X17429   3.518   3.802  10.147 -0.2493 -0.5559  0.0377
  156SAPE   H3Y17430   3.377   3.863  10.240 -0.6537  1.0111 -0.8478
  156SAPE   C3417431   3.322   3.724  10.079 -0.0110  0.1541  0.3938
  156SAPE   H4X17432   3.307   3.799   9.998 -1.5724  0.7350  1.1747
  156SAPE   H4Y17433   3.223   3.722  10.131  0.0131 -2.1504  0.4601
  156SAPE   C3517434   3.365   3.588  10.019  0.3133  0.1714  0.7586
  156SAPE   H5X17435   3.370   3.522  10.108 -1.5415 -0.1539  0.6533
  156SAPE   H5Y17436   3.459   3.588   9.959  0.5455 -0.3181  1.1225
  156SAPE   C3617437   3.252   3.535   9.922 -0.3321  0.8824 -0.6073
  156SAPE   H6X17438   3.156   3.544   9.976  1.1594 -0.8551  2.6087
  156SAPE   H6Y17439   3.272   3.429   9.898 -0.1915  0.7472  0.0732
  156SAPE   C3717440   3.237   3.613   9.790 -0.2639 -0.3781 -0.6501
  156SAPE   H7X17441   3.339   3.617   9.745  0.3126  0.1348  0.6435
  156SAPE   H7Y17442   3.195   3.716   9.800 -0.4920 -0.4690 -0.6626
  156SAPE   C3817443   3.146   3.551   9.682 -0.2013  0.1265  0.2744
  156SAPE   H8X17444   3.043   3.557   9.724 -0.5311 -0.4675 -0.4186
  156SAPE   H8Y17445   3.168   3.442   9.681 -2.1013 -0.4387  3.5915
  156SAPE   C3917446   3.158   3.616   9.549 -0.1982  0.1687 -0.0284
  156SAPE   H9X17447   3.264   3.636   9.522 -0.7165  0.2738 -2.1122
  156SAPE   H9Y17448   3.114   3.717   9.567  0.1460 -0.1345  3.2116
  156SAPE  C31017449   3.081   3.545   9.429  0.4830  0.8016 -0.0631
  156SAPE  H10X17450   2.995   3.492   9.477  0.7153 -0.1527 -0.6558
  156SAPE  H10Y17451   3.147   3.461   9.399 -1.2003 -0.2461 -1.0132
  156SAPE  C31117452   3.044   3.637   9.319  0.4569  0.0157 -0.5799
  156SAPE  H11X17453   3.133   3.691   9.280 -0.5499  1.0186 -1.5902
  156SAPE  H11Y17454   2.981   3.717   9.365  0.1833 -1.1193  1.0945
  156SAPE  C31217455   2.961   3.592   9.209 -0.1294  0.0593 -0.0140
  156SAPE  H12X17456   2.942   3.669   9.131  1.9703  1.0671  0.3846
  156SAPE  H12Y17457   2.871   3.541   9.249 -0.5217 -0.2315 -1.2054
  156SAPE  C31317458   3.035   3.467   9.147 -0.1937 -0.4513 -0.1213
  156SAPE  H13X17459   3.023   3.385   9.220 -1.3208 -0.6119 -0.4706
  156SAPE  H13Y17460   3.141   3.496   9.130 -0.5130  1.3825  0.7971
  156SAPE  C31417461   2.970   3.421   9.016 -0.2195  0.2652 -0.0127
  156SAPE  H14X17462   2.862   3.408   9.040  0.4098 -1.5103  2.0554
  156SAPE  H14Y17463   3.005   3.318   8.996 -0.4339  0.1985 -0.0466
  156SAPE  C31517464   2.994   3.510   8.892 -0.1410 -0.0939 -0.3732
  156SAPE  H15X17465   3.103   3.519   8.873 -0.3138  1.3976 -0.8037
  156SAPE  H15Y17466   2.949   3.611   8.906 -1.5571 -0.8081  0.4018
  156SAPE  C31617467   2.914   3.456   8.774  0.3748 -0.3330  0.2627
  156SAPE  H16X17468   2.807   3.434   8.793  0.3165  0.0705  0.4042
  156SAPE  H16Y17469   2.955   3.355   8.749 -0.0687 -0.2908 -0.6869
  156SAPE  C31717470   2.917   3.548   8.652  0.4977 -0.0475  0.3152
  156SAPE  H17X17471   3.023   3.571   8.629  0.4222 -0.7847 -0.8713
  156SAPE  H17Y17472   2.858   3.638   8.679 -2.5484 -1.9181  0.3956
  156SAPE  C31817473   2.844   3.490   8.530  0.1435 -0.1453 -0.0267
  156SAPE  H18X17474   2.734   3.501   8.543  0.2944  2.2604 -0.2216
  156SAPE  H18Y17475   2.874   3.385   8.511  1.9217  0.2736  0.2931
  156SAPE  H18Z17476   2.876   3.538   8.435 -0.4646 -2.5947 -1.5507
  157SAPE     N17477   3.320   6.531  10.776  0.3095 -0.3546 -0.5423
  157SAPE   HN117478   3.382   6.484  10.706  1.4876  0.7968 -0.3116
  157SAPE   HN217479   3.220   6.515  10.753  0.5471 -2.2419 -0.4642
  157SAPE   HN317480   3.345   6.631  10.788 -3.5949  0.7980 -0.8278
  157SAPE   C1217481   3.358   6.461  10.904 -0.5301 -0.5531 -0.9020
  157SAPE  H12A17482   3.322   6.356  10.907  0.6611 -1.0205  3.1716
  157SAPE  H12B17483   3.313   6.518  10.988 -1.8121 -2.8246  0.0409
  157SAPE   C1117484   3.509   6.461  10.925 -0.0449 -0.3400  0.2629
  157SAPE  H11A17485   3.556   6.399  10.846 -1.5808 -1.3935  0.1237
  157SAPE  H11B17486   3.545   6.421  11.022 -0.0609  0.6522  0.6877
  157SAPE     P17487   3.715   6.630  10.884 -0.0051 -0.0085  0.1315
  157SAPE   O1317488   3.741   6.762  10.943 -0.6964  0.1849  0.4413
  157SAPE   O1417489   3.813   6.519  10.909 -0.8129  0.1569  0.2849
  157SAPE   O1217490   3.566   6.597  10.920 -0.1257  0.5113 -1.0212
  157SAPE   O1117491   3.698   6.641  10.732 -0.4053 -0.1227  0.6176
  157SAPE    C117492   3.701   6.763  10.653  0.6956  0.1646 -0.6362
  157SAPE    HA17493   3.619   6.831  10.685 -1.3837 -1.8703 -1.3379
  157SAPE    HB17494   3.799   6.815  10.657 -0.2543  1.9752  2.7221
  157SAPE    C217495   3.663   6.743  10.507  0.3608  0.3922  0.8872
  157SAPE    HS17496   3.674   6.842  10.457  1.9587  0.2797  0.9964
  157SAPE   O2117497   3.528   6.690  10.497  0.3287  0.7178  0.3129
  157SAPE   C2117498   3.435   6.784  10.508  0.0682 -0.3931 -0.0938
  157SAPE   O2217499   3.459   6.905  10.534  0.1835  0.7647  0.5267
  157SAPE   C2217500   3.297   6.738  10.459  0.2819 -0.6773 -0.9906
  157SAPE   H2R17501   3.306   6.662  10.378 -1.5966 -1.1977 -0.7593
  157SAPE   H2S17502   3.247   6.692  10.547 -0.7013 -1.0063 -1.7126
  157SAPE    C317503   3.766   6.647  10.442  0.0484  0.1530 -0.2406
  157SAPE    HX17504   3.761   6.554  10.503 -1.5682 -1.1808 -2.2485
  157SAPE    HY17505   3.871   6.677  10.461  0.2673  0.6125 -1.9748
  157SAPE   O3117506   3.740   6.614  10.302 -0.1781 -0.2352  0.4352
  157SAPE   C3117507   3.781   6.711  10.216 -0.2742 -0.1605  0.4160
  157SAPE   O3217508   3.833   6.815  10.251  0.4244 -0.4661  0.6515
  157SAPE   C3217509   3.773   6.656  10.072  0.2032 -0.3881 -0.8614
  157SAPE   H2X17510   3.670   6.615  10.065  0.0507 -0.3690  0.7986
  157SAPE   H2Y17511   3.844   6.570  10.067  1.8772  0.6586  2.0467
  157SAPE   C2317512   3.210   6.852  10.403  0.2356  0.0519  0.4668
  157SAPE   H3R17513   3.237   6.957  10.430  1.8530  0.1522 -1.2728
  157SAPE   H3S17514   3.106   6.837  10.438 -1.0458  0.8403 -2.6338
  157SAPE   C2417515   3.203   6.842  10.249  0.2868  0.3465 -0.0633
  157SAPE   H4R17516   3.125   6.913  10.213 -1.2738 -0.8557  0.8343
  157SAPE   H4S17517   3.157   6.746  10.215 -1.2513  0.8304  0.5672
  157SAPE   C2517518   3.340   6.857  10.195  0.7030 -0.0017  0.3326
  157SAPE   H5R17519   3.398   6.939  10.242 -0.1419  0.2505  0.9507
  157SAPE   C2617520   3.409   6.787  10.103  0.3691  0.2606 -0.2125
  157SAPE   H6R17521   3.513   6.816  10.081 -0.1713  2.0240 -0.6573
  157SAPE   C2717522   3.360   6.667  10.025 -1.0990  0.5231  0.0377
  157SAPE   H7R17523   3.262   6.637  10.069  0.1955  0.5605  3.1747
  157SAPE   H7S17524   3.433   6.587  10.053 -1.9092  0.6198  2.7541
  157SAPE   C2817525   3.345   6.705   9.882 -0.8813  0.9029  0.0943
  157SAPE   H8R17526   3.333   6.809   9.851 -3.3693 -0.0801 -2.7687
  157SAPE   C2917527   3.330   6.610   9.787 -0.3202 -0.7101  0.0822
  157SAPE   H9R17528   3.307   6.642   9.685 -0.1987  0.4579  0.4138
  157SAPE  C21017529   3.340   6.458   9.808  0.1800  0.4585 -0.1771
  157SAPE  H10R17530   3.254   6.420   9.867 -0.3457 -1.0287 -1.8132
  157SAPE  H10S17531   3.423   6.429   9.877 -0.0195 -3.7342 -1.3902
  157SAPE  C21117532   3.377   6.379   9.681 -0.1530 -0.0714  0.0630
  157SAPE  H11R17533   3.481   6.344   9.684  0.1713  0.8984  0.5972
  157SAPE  C21217534   3.295   6.352   9.575  0.8326 -0.9000  0.3969
  157SAPE  H12R17535   3.333   6.294   9.489  0.6020 -1.7366  0.8554
  157SAPE  C21317536   3.146   6.383   9.560 -0.0705  0.8283 -0.4561
  157SAPE  H13R17537   3.089   6.353   9.650 -0.1413 -1.2915 -1.1507
  157SAPE  H13S17538   3.103   6.312   9.487 -0.3152  0.7830 -0.2672
  157SAPE  C21417539   3.113   6.526   9.517  0.4556  0.4108  0.2098
  157SAPE  H14R17540   3.132   6.593   9.602  1.0425 -2.7339  2.7740
  157SAPE  C21517541   3.089   6.575   9.396  0.2522  0.0913  0.0443
  157SAPE  H15R17542   3.058   6.680   9.388  2.5505  0.7650 -0.8982
  157SAPE  C21617543   3.085   6.487   9.272  0.5123 -0.0682  0.1039
  157SAPE  H16R17544   2.999   6.536   9.220 -0.4319  1.7383  3.1282
  157SAPE  H16S17545   3.054   6.383   9.293  0.3702  0.4341  2.6773
  157SAPE  C21717546   3.215   6.512   9.191 -0.0914 -0.2223 -0.0646
  157SAPE  H17R17547   3.303   6.472   9.246  0.4095  1.2651  0.2869
  157SAPE  H17S17548   3.232   6.622   9.191 -1.1461 -0.0332  1.2142
  157SAPE  C21817549   3.223   6.457   9.047  0.1236  0.7839  0.9350
  157SAPE  H18R17550   3.219   6.347   9.036  1.8160  0.6179  1.6849
  157SAPE  H18S17551   3.319   6.486   8.998 -0.4050 -1.2300 -1.4714
  157SAPE  C21917552   3.127   6.527   8.943 -1.1188  0.2036  0.4363
  157SAPE  H19R17553   3.020   6.499   8.952 -1.2854 -0.3629 -2.4075
  157SAPE  H19S17554   3.148   6.479   8.845 -1.9560 -0.8340  0.7452
  157SAPE  C22017555   3.136   6.679   8.951 -0.1766  0.1723  0.6016
  157SAPE  H20R17556   3.100   6.710   8.851 -1.2358  0.6385  1.1228
  157SAPE  H20S17557   3.240   6.716   8.962  0.8112 -1.7974 -1.2001
  157SAPE  H20T17558   3.079   6.721   9.036 -2.7176 -1.3138 -0.2575
  157SAPE   C3317559   3.807   6.762   9.974 -0.1654 -0.3506  0.0317
  157SAPE   H3X17560   3.914   6.789   9.986  0.0195 -0.8783 -0.4145
  157SAPE   H3Y17561   3.737   6.849   9.972  0.2469 -0.0104 -1.7210
  157SAPE   C3417562   3.796   6.713   9.840 -0.5997  0.1233 -0.6498
  157SAPE   H4X17563   3.691   6.683   9.817 -0.6149  1.0800 -1.9374
  157SAPE   H4Y17564   3.849   6.616   9.830 -2.1435 -0.9208  0.7626
  157SAPE   C3517565   3.818   6.816   9.719  0.4820  0.0707 -0.9076
  157SAPE   H5X17566   3.922   6.855   9.725  0.7857 -0.9091  1.5270
  157SAPE   H5Y17567   3.735   6.889   9.715 -0.4888 -0.9186  0.1656
  157SAPE   C3617568   3.786   6.740   9.587 -0.5961 -0.0115 -0.3588
  157SAPE   H6X17569   3.699   6.670   9.585 -1.2529  0.8130 -1.3381
  157SAPE   H6Y17570   3.873   6.674   9.568 -2.1128 -1.9873 -0.7260
  157SAPE   C3717571   3.752   6.829   9.465  0.6539  1.1462 -1.0625
  157SAPE   H7X17572   3.843   6.886   9.439 -0.0935  1.9736 -1.9153
  157SAPE   H7Y17573   3.674   6.897   9.505 -2.9940 -2.4799 -1.2943
  157SAPE   C3817574   3.693   6.759   9.334  0.0258  0.1855 -0.1355
  157SAPE   H8X17575   3.592   6.721   9.359 -0.2255  1.0901  0.2889
  157SAPE   H8Y17576   3.756   6.681   9.286 -0.6170  1.6151 -3.5619
  157SAPE   C3917577   3.678   6.863   9.220 -0.0166 -0.0007  0.0433
  157SAPE   H9X17578   3.777   6.897   9.184 -0.6112  0.4375 -1.2492
  157SAPE   H9Y17579   3.609   6.948   9.239 -1.4218 -1.2363  0.6492
  157SAPE  C31017580   3.609   6.789   9.101  0.1370  0.8842  0.2654
  157SAPE  H10X17581   3.511   6.748   9.134  1.2725 -0.2511  2.4106
  157SAPE  H10Y17582   3.677   6.707   9.070 -0.5769  0.0413  0.8719
  157SAPE  C31117583   3.580   6.881   8.984  0.9455 -0.4196 -0.3144
  157SAPE  H11X17584   3.677   6.925   8.954  0.8146 -0.2924 -0.5510
  157SAPE  H11Y17585   3.522   6.972   9.009  1.9149  0.6055 -1.6279
  157SAPE  C31217586   3.544   6.812   8.853  0.0470 -0.3830 -0.5461
  157SAPE  H12X17587   3.437   6.788   8.840 -0.4216 -0.3074  2.4547
  157SAPE  H12Y17588   3.612   6.724   8.849 -1.2625 -1.6955  2.8607
  157SAPE  C31317589   3.582   6.908   8.738  0.5164  0.4242  0.7699
  157SAPE  H13X17590   3.539   6.851   8.653  2.0526 -4.3977  2.8046
  157SAPE  H13Y17591   3.693   6.906   8.733  0.5165 -2.0279  0.2678
  157SAPE  C31417592   3.525   7.052   8.755  0.0210  0.3848  0.2025
  157SAPE  H14X17593   3.580   7.108   8.833  0.1477  1.4570 -0.6296
  157SAPE  H14Y17594   3.419   7.054   8.787  0.1040  0.6257  0.4681
  157SAPE  C31517595   3.546   7.125   8.626  0.5760  0.1630  0.2496
  157SAPE  H15X17596   3.650   7.102   8.593  0.8995 -0.6019  1.7466
  157SAPE  H15Y17597   3.540   7.232   8.656 -2.7818  0.7425 -1.9198
  157SAPE  C31617598   3.436   7.097   8.523  0.0926 -0.2350  0.3015
  157SAPE  H16X17599   3.398   7.193   8.483 -0.9927 -1.1313 -0.9362
  157SAPE  H16Y17600   3.352   7.040   8.570  0.7238 -0.3375  1.3365
  157SAPE  C31717601   3.480   7.013   8.405 -0.1714  0.3467 -0.2404
  157SAPE  H17X17602   3.498   6.905   8.425  0.3082  0.5684  0.5445
  157SAPE  H17Y17603   3.576   7.056   8.371  0.3613 -1.7936 -1.6666
  157SAPE  C31817604   3.374   7.019   8.291  0.0590  0.6740  0.4176
  157SAPE  H18X17605   3.277   6.977   8.326  0.6921 -0.3670  1.0003
  157SAPE  H18Y17606   3.412   6.966   8.201  0.3785  3.1519 -1.0083
  157SAPE  H18Z17607   3.369   7.125   8.259  1.7116 -0.1183 -2.8878
  158SAPE     N17608   1.836   6.383  10.581 -0.1702 -0.6270 -0.1993
  158SAPE   HN117609   1.901   6.303  10.592  0.6055 -0.6489 -3.6889
  158SAPE   HN217610   1.773   6.382  10.664  0.0098  0.4066 -0.0301
  158SAPE   HN317611   1.779   6.359  10.497 -0.5184  0.1645 -0.2002
  158SAPE   C1217612   1.900   6.519  10.566 -0.0797  0.4309  0.2933
  158SAPE  H12A17613   1.946   6.528  10.465 -0.2641  1.5071  0.2919
  158SAPE  H12B17614   1.971   6.518  10.652  0.1480  1.2633  0.1262
  158SAPE   C1117615   1.799   6.632  10.568  1.3079  0.1132 -0.5459
  158SAPE  H11A17616   1.714   6.612  10.499  1.3440  1.5828 -1.0646
  158SAPE  H11B17617   1.852   6.718  10.521 -1.0790  0.2076 -3.4023
  158SAPE     P17618   1.850   6.755  10.801 -0.5848  0.2973  0.2670
  158SAPE   O1317619   1.770   6.825  10.907 -0.5231  0.4432  0.3640
  158SAPE   O1417620   1.944   6.653  10.849 -0.6896  0.5027  0.1624
  158SAPE   O1217621   1.750   6.677  10.702  0.2390 -0.1992 -0.2816
  158SAPE   O1117622   1.918   6.861  10.706  0.8438 -0.5920 -0.2759
  158SAPE    C117623   1.849   6.985  10.685 -0.7445  0.2924 -1.1016
  158SAPE    HA17624   1.753   6.965  10.632 -0.9720  0.3731 -0.7261
  158SAPE    HB17625   1.832   7.044  10.778 -0.4596  0.0021 -0.8629
  158SAPE    C217626   1.943   7.084  10.597  0.4932  0.5364  0.1520
  158SAPE    HS17627   1.876   7.156  10.545  0.5278  0.8496  0.5362
  158SAPE   O2117628   2.017   7.002  10.506 -0.0961  0.0747 -0.0394
  158SAPE   C2117629   1.942   6.950  10.406 -0.3031  0.1583  0.3771
  158SAPE   O2217630   1.820   6.961  10.388 -0.1161  0.3671  0.5480
  158SAPE   C2217631   2.036   6.853  10.328  1.0100 -0.1997 -0.0728
  158SAPE   H2R17632   2.105   6.801  10.398  0.6545  0.0078  0.4398
  158SAPE   H2S17633   1.975   6.777  10.276 -0.2977 -0.6487  2.0030
  158SAPE    C317634   2.050   7.169  10.680 -0.2486 -0.4378 -0.4749
  158SAPE    HX17635   2.136   7.099  10.686 -0.0172 -0.0509  1.4336
  158SAPE    HY17636   2.009   7.177  10.783  1.3508  1.9530  0.0574
  158SAPE   O3117637   2.085   7.293  10.619  0.4515 -0.1960  0.0573
  158SAPE   C3117638   2.198   7.290  10.541  0.0516 -0.1582 -0.0168
  158SAPE   O3217639   2.267   7.196  10.523  0.2254 -0.0176 -0.4948
  158SAPE   C3217640   2.207   7.428  10.465 -0.1706 -0.3327  0.2673
  158SAPE   H2X17641   2.296   7.485  10.500 -0.6711  1.5566 -1.3654
  158SAPE   H2Y17642   2.121   7.487  10.502  0.4717  0.8082 -0.0306
  158SAPE   C2317643   2.126   6.932  10.225  0.6203  0.3903 -0.4925
  158SAPE   H3R17644   2.205   6.860  10.196 -0.2726 -0.6938 -0.3109
  158SAPE   H3S17645   2.180   7.017  10.273  0.5390  0.2615 -0.1729
  158SAPE   C2417646   2.051   6.973  10.094 -0.4547  0.2780  0.4031
  158SAPE   H4R17647   2.134   7.010  10.030  1.3146  1.5218  3.2479
  158SAPE   H4S17648   1.987   7.064  10.098 -0.7915  0.0247  0.8574
  158SAPE   C2517649   1.976   6.860  10.032  0.4434  0.5254 -0.5667
  158SAPE   H5R17650   1.872   6.845  10.066  1.0962 -1.1771  0.8059
  158SAPE   C2617651   2.023   6.761   9.948 -0.3245  0.1953 -0.3750
  158SAPE   H6R17652   1.954   6.689   9.900  0.8131 -1.1806  0.0113
  158SAPE   C2717653   2.166   6.753   9.898  0.3365 -0.0384 -0.3758
  158SAPE   H7R17654   2.231   6.817   9.963  0.5489 -0.5139 -0.1120
  158SAPE   H7S17655   2.170   6.806   9.800  1.4375 -2.6417 -1.8478
  158SAPE   C2817656   2.221   6.615   9.868  0.1923 -0.5662 -0.3019
  158SAPE   H8R17657   2.277   6.573   9.953 -3.0913  0.1350  2.4226
  158SAPE   C2917658   2.178   6.541   9.760  0.2510  0.4356 -0.6967
  158SAPE   H9R17659   2.239   6.452   9.739  1.9932  1.0370  1.3929
  158SAPE  C21017660   2.081   6.576   9.655  1.1946 -0.2791  0.0613
  158SAPE  H10R17661   2.021   6.664   9.687  0.6308 -0.7540  0.3069
  158SAPE  H10S17662   2.002   6.498   9.650  2.0412 -1.1858  0.5081
  158SAPE  C21117663   2.148   6.619   9.525  0.6189 -0.8455  0.5678
  158SAPE  H11R17664   2.226   6.696   9.529 -0.9100  0.7100  1.8321
  158SAPE  C21217665   2.109   6.580   9.405 -0.8497  0.0467  0.1980
  158SAPE  H12R17666   2.173   6.623   9.327 -1.0937 -1.0206 -0.6097
  158SAPE  C21317667   2.005   6.488   9.350 -0.4928  0.1759 -0.3870
  158SAPE  H13R17668   1.943   6.449   9.433  1.6451  0.5713  1.4868
  158SAPE  H13S17669   2.038   6.392   9.303  1.3268  0.1383  0.8539
  158SAPE  C21417670   1.926   6.562   9.247 -0.6336 -0.5459  0.4875
  158SAPE  H14R17671   1.939   6.672   9.247  2.4728 -0.8211 -0.4879
  158SAPE  C21517672   1.843   6.508   9.159  0.2552 -0.8924  0.0137
  158SAPE  H15R17673   1.781   6.571   9.093  0.3943 -1.6581 -0.8687
  158SAPE  C21617674   1.803   6.364   9.146 -0.0701  0.5594 -0.5882
  158SAPE  H16R17675   1.701   6.359   9.103 -0.4375 -3.6907  0.3602
  158SAPE  H16S17676   1.799   6.310   9.243 -1.2630  0.9641 -0.3907
  158SAPE  C21717677   1.898   6.284   9.054 -0.2083 -0.1559 -0.3271
  158SAPE  H17R17678   1.873   6.177   9.037 -1.1804  0.4655 -3.4438
  158SAPE  H17S17679   1.994   6.301   9.108 -0.0176  2.3632 -1.3238
  158SAPE  C21817680   1.916   6.345   8.913 -0.0650  0.6007 -0.1982
  158SAPE  H18R17681   1.975   6.439   8.924 -0.0475  0.5076  0.5440
  158SAPE  H18S17682   1.819   6.374   8.868 -0.2153 -0.1986 -0.3943
  158SAPE  C21917683   1.989   6.259   8.815 -0.3461  0.3606 -0.0653
  158SAPE  H19R17684   1.918   6.175   8.801 -1.0489  0.6038  1.8268
  158SAPE  H19S17685   2.075   6.211   8.866 -0.8173 -0.7718 -0.3034
  158SAPE  C22017686   2.022   6.330   8.680 -0.4731 -0.0074 -0.1887
  158SAPE  H20R17687   2.096   6.270   8.622  0.1417  0.0370  0.5371
  158SAPE  H20S17688   2.060   6.431   8.705  1.9180 -1.3585  2.1938
  158SAPE  H20T17689   1.927   6.341   8.624 -1.2414  0.8510  1.2337
  158SAPE   C3317690   2.208   7.418  10.313  0.1478 -0.0463  0.2362
  158SAPE   H3X17691   2.302   7.366  10.286 -0.0104 -0.6981  0.8799
  158SAPE   H3Y17692   2.217   7.522  10.276  1.1947 -0.5047 -0.8470
  158SAPE   C3417693   2.075   7.365  10.248  0.4552 -0.6954 -0.9096
  158SAPE   H4X17694   1.990   7.429  10.278  1.1789 -1.2921  2.8261
  158SAPE   H4Y17695   2.069   7.261  10.288 -0.4098  0.1412  1.2432
  158SAPE   C3517696   2.084   7.363  10.093 -0.3125  0.8879  0.3790
  158SAPE   H5X17697   2.107   7.258  10.064 -0.9474  0.6272  0.7869
  158SAPE   H5Y17698   2.175   7.420  10.064  0.7857 -0.8234  0.3356
  158SAPE   C3617699   1.956   7.407  10.010 -0.6388 -0.3673 -0.8198
  158SAPE   H6X17700   1.934   7.509  10.047 -2.6991 -1.3368  0.8447
  158SAPE   H6Y17701   1.865   7.345  10.023 -0.3751 -0.3527  1.3958
  158SAPE   C3717702   1.983   7.404   9.855 -0.6609  0.1553 -0.3485
  158SAPE   H7X17703   1.996   7.297   9.828 -0.4687 -0.4192  1.8317
  158SAPE   H7Y17704   2.074   7.461   9.826  0.3540 -1.0693  0.3414
  158SAPE   C3817705   1.859   7.452   9.777 -0.4424  0.5131  0.3599
  158SAPE   H8X17706   1.839   7.559   9.795  0.2238  1.4279 -3.5146
  158SAPE   H8Y17707   1.776   7.388   9.813  0.4167 -0.1176  1.2937
  158SAPE   C3917708   1.897   7.422   9.626 -0.4792  0.5422  1.2581
  158SAPE   H9X17709   1.918   7.314   9.619  1.9123  1.0115  0.0626
  158SAPE   H9Y17710   1.990   7.480   9.605 -0.7320  0.1063 -1.4934
  158SAPE  C31017711   1.784   7.445   9.529  0.2828 -1.0333 -0.6822
  158SAPE  H10X17712   1.747   7.548   9.546 -0.7645 -1.1334 -2.1957
  158SAPE  H10Y17713   1.704   7.373   9.556  1.1305 -2.8609 -2.7167
  158SAPE  C31117714   1.835   7.438   9.384 -0.7533  0.3570  0.3934
  158SAPE  H11X17715   1.867   7.336   9.353  0.2906  1.1194 -1.1974
  158SAPE  H11Y17716   1.929   7.497   9.374 -0.6209 -0.1737 -2.3373
  158SAPE  C31217717   1.718   7.488   9.298  0.4683 -0.0279 -0.2089
  158SAPE  H12X17718   1.704   7.597   9.318  0.9939 -0.1699  1.0138
  158SAPE  H12Y17719   1.626   7.428   9.313 -0.2457  0.7335 -1.4173
  158SAPE  C31317720   1.757   7.475   9.151 -0.4311  0.0263  0.2348
  158SAPE  H13X17721   1.806   7.378   9.128  0.3009 -0.2405  2.6406
  158SAPE  H13Y17722   1.828   7.558   9.131  0.6379 -0.8448  0.3344
  158SAPE  C31417723   1.635   7.491   9.056 -0.2914  0.2683  0.0020
  158SAPE  H14X17724   1.583   7.588   9.070 -2.0920 -0.7316  0.4591
  158SAPE  H14Y17725   1.568   7.404   9.074  0.0899  0.0244  0.2789
  158SAPE  C31517726   1.679   7.483   8.907  0.1324  0.3850  0.2875
  158SAPE  H15X17727   1.763   7.553   8.886  0.1085 -0.7144 -4.6180
  158SAPE  H15Y17728   1.593   7.528   8.853  0.4827  1.4129  0.5533
  158SAPE  C31617729   1.725   7.349   8.842  0.3099 -0.3466 -0.2275
  158SAPE  H16X17730   1.630   7.291   8.844  0.8395 -1.2314 -0.6203
  158SAPE  H16Y17731   1.798   7.297   8.907  1.5093  1.1302 -0.3339
  158SAPE  C31717732   1.767   7.369   8.698 -0.1760  0.1527  0.4504
  158SAPE  H17X17733   1.698   7.439   8.646  1.9110  0.5317 -2.0289
  158SAPE  H17Y17734   1.751   7.272   8.646 -1.4240  1.6741 -2.1996
  158SAPE  C31817735   1.910   7.429   8.671  0.3618  0.1416 -0.3560
  158SAPE  H18X17736   1.917   7.459   8.564  0.0297 -2.9159 -1.3428
  158SAPE  H18Y17737   1.985   7.348   8.686  0.5122  0.3687  0.1240
  158SAPE  H18Z17738   1.931   7.519   8.732 -0.4206  0.2510 -0.2407
  159SAPE     N17739   6.637   5.923   6.033 -0.4802  0.2822 -0.2413
  159SAPE   HN117740   6.587   5.934   5.943 -1.3844  1.4691  0.3745
  159SAPE   HN217741   6.699   6.006   6.044 -0.3079  0.0958  0.2170
  159SAPE   HN317742   6.687   5.832   6.026 -0.4349  0.2090  0.8328
  159SAPE   C1217743   6.541   5.928   6.148  0.1264 -0.8031  1.1391
  159SAPE  H12A17744   6.459   5.854   6.133 -0.6144  0.1270  0.4269
  159SAPE  H12B17745   6.504   6.032   6.139  0.1565 -0.9806 -3.0453
  159SAPE   C1117746   6.605   5.907   6.287  0.0358  0.5015  0.1255
  159SAPE  H11A17747   6.615   5.798   6.302  1.2830  0.2389 -2.1360
  159SAPE  H11B17748   6.534   5.942   6.365  0.4884  1.0508  0.3007
  159SAPE     P17749   6.762   6.092   6.392  0.0941  0.0488 -0.1354
  159SAPE   O1317750   6.912   6.102   6.422 -0.3707  0.0147  0.5602
  159SAPE   O1417751   6.690   6.205   6.333  1.1179 -0.0805  0.0240
  159SAPE   O1217752   6.735   5.968   6.308  0.2702  0.5471  0.2468
  159SAPE   O1117753   6.690   6.059   6.526  0.2734  0.2246 -0.5208
  159SAPE    C117754   6.754   5.988   6.632 -0.7610 -0.2741 -0.2531
  159SAPE    HA17755   6.703   5.893   6.658  0.2462 -0.8650 -0.3632
  159SAPE    HB17756   6.852   5.947   6.599 -0.9538  0.9158 -2.4264
  159SAPE    C217757   6.769   6.081   6.757 -0.5319  1.1043 -0.7140
  159SAPE    HS17758   6.853   6.038   6.817 -2.9020 -1.0294  1.3095
  159SAPE   O2117759   6.647   6.078   6.832 -0.3584 -0.4543  0.1457
  159SAPE   C2117760   6.642   6.029   6.957  0.0232  0.1023 -0.1296
  159SAPE   O2217761   6.733   5.963   7.008 -0.3127 -0.2073 -0.4374
  159SAPE   C2217762   6.519   6.092   7.029  0.2342  0.4330 -0.0877
  159SAPE   H2R17763   6.511   6.201   7.010  0.1435  0.4807  0.2201
  159SAPE   H2S17764   6.428   6.043   6.988 -0.2496  0.9429  0.3574
  159SAPE    C317765   6.807   6.223   6.710  0.3674 -0.1768 -0.2810
  159SAPE    HX17766   6.717   6.257   6.653  0.4684  2.2617  0.8618
  159SAPE    HY17767   6.899   6.215   6.648  0.6594  0.3466  0.0789
  159SAPE   O3117768   6.840   6.313   6.821 -0.4065  0.1489  0.2618
  159SAPE   C3117769   6.750   6.378   6.882  0.2638  0.5120  0.2632
  159SAPE   O3217770   6.631   6.378   6.861  0.1966  0.4269 -0.0621
  159SAPE   C3217771   6.827   6.469   6.980  0.2435 -0.8573 -0.9509
  159SAPE   H2X17772   6.798   6.571   6.948  0.5172 -0.7866 -0.9735
  159SAPE   H2Y17773   6.936   6.455   6.968  0.2994 -0.0186 -1.4963
  159SAPE   C2317774   6.524   6.068   7.177  0.5900 -0.1482  0.3154
  159SAPE   H3R17775   6.620   6.091   7.228  0.4706  0.1265  0.4171
  159SAPE   H3S17776   6.526   5.957   7.185 -0.7688 -0.4580 -2.3957
  159SAPE   C2417777   6.411   6.121   7.260  0.3374 -0.1388 -0.1566
  159SAPE   H4R17778   6.419   6.072   7.359 -2.4087  1.0099  0.7499
  159SAPE   H4S17779   6.308   6.099   7.224  0.2154  1.4443 -0.8854
  159SAPE   C2517780   6.415   6.276   7.264 -0.2789 -0.9377  0.1557
  159SAPE   H5R17781   6.428   6.319   7.163 -1.8085 -1.0244 -0.1058
  159SAPE   C2617782   6.417   6.355   7.367  0.6047 -0.0066 -0.3981
  159SAPE   H6R17783   6.423   6.464   7.354 -1.4790  0.4889  2.0457
  159SAPE   C2717784   6.402   6.306   7.514 -0.0194  0.1607  0.2478
  159SAPE   H7R17785   6.482   6.354   7.575  2.3404 -1.8378 -1.1234
  159SAPE   H7S17786   6.437   6.201   7.519  1.3668  0.6078  0.2294
  159SAPE   C2817787   6.266   6.328   7.583 -0.1540  0.1283  0.2170
  159SAPE   H8R17788   6.181   6.340   7.515 -0.4306 -0.9927  0.3456
  159SAPE   C2917789   6.248   6.358   7.715  0.1313 -0.7662 -0.5242
  159SAPE   H9R17790   6.147   6.368   7.757  0.0707  0.1422 -0.8599
  159SAPE  C21017791   6.348   6.356   7.824  0.2332 -0.4158  0.2487
  159SAPE  H10R17792   6.347   6.444   7.892 -1.2233  0.8020 -1.2277
  159SAPE  H10S17793   6.442   6.373   7.767 -1.1015  0.2234 -1.9143
  159SAPE  C21117794   6.344   6.232   7.896 -0.2983  0.4015 -0.3148
  159SAPE  H11R17795   6.341   6.147   7.826 -1.5420 -0.0107  0.1933
  159SAPE  C21217796   6.339   6.214   8.034 -0.1103 -0.1896  0.2415
  159SAPE  H12R17797   6.336   6.112   8.076  1.9050 -0.7828 -0.9074
  159SAPE  C21317798   6.336   6.319   8.139  0.1442 -0.7413  0.1125
  159SAPE  H13R17799   6.235   6.323   8.186  0.5659  0.2685  0.9870
  159SAPE  H13S17800   6.358   6.419   8.095  0.2907 -0.9534 -0.2958
  159SAPE  C21417801   6.441   6.286   8.247 -0.6939 -0.2614  0.7979
  159SAPE  H14R17802   6.464   6.178   8.253  1.8646  0.2273  0.8269
  159SAPE  C21517803   6.516   6.372   8.314  0.8094 -0.1700  0.5443
  159SAPE  H15R17804   6.579   6.343   8.400  2.1407  1.3575  0.1268
  159SAPE  C21617805   6.497   6.526   8.309 -0.3834  0.5977 -0.2276
  159SAPE  H16R17806   6.422   6.553   8.232  0.4818 -0.3249 -1.4245
  159SAPE  H16S17807   6.586   6.587   8.285 -0.1162  0.2439 -0.1448
  159SAPE  C21717808   6.417   6.569   8.428  0.6426 -0.4178 -0.3603
  159SAPE  H17R17809   6.479   6.569   8.520 -0.5982 -0.5632  0.5019
  159SAPE  H17S17810   6.336   6.498   8.454  0.3042  0.2945  0.5826
  159SAPE  C21817811   6.352   6.707   8.396 -0.2242  0.0988 -0.6727
  159SAPE  H18R17812   6.329   6.720   8.288 -1.2269 -0.1014 -0.4972
  159SAPE  H18S17813   6.438   6.775   8.414  0.5163 -1.2397  1.2018
  159SAPE  C21917814   6.232   6.743   8.495  0.8838 -0.1691 -0.1879
  159SAPE  H19R17815   6.227   6.854   8.495 -1.5071 -0.2172  0.0147
  159SAPE  H19S17816   6.274   6.712   8.593  0.5933 -0.5316 -0.1758
  159SAPE  C22017817   6.104   6.669   8.456  0.5155  0.4486 -0.1138
  159SAPE  H20R17818   6.091   6.564   8.490 -2.2160  1.7448  3.3919
  159SAPE  H20S17819   6.096   6.658   8.345 -1.5033 -0.0063  0.0462
  159SAPE  H20T17820   6.011   6.719   8.489 -1.5587 -2.0791 -1.7025
  159SAPE   C3317821   6.775   6.435   7.124  0.2666  0.0105  0.2056
  159SAPE   H3X17822   6.669   6.401   7.128  0.0566  0.1745 -2.3691
  159SAPE   H3Y17823   6.789   6.524   7.190  1.5279  1.2053 -1.5841
  159SAPE   C3417824   6.862   6.338   7.201  0.9516 -1.1507  0.4122
  159SAPE   H4X17825   6.963   6.382   7.184  0.6327 -0.6300 -0.1699
  159SAPE   H4Y17826   6.847   6.241   7.150 -0.7502  0.2950 -2.0321
  159SAPE   C3517827   6.840   6.329   7.352 -0.2959 -0.3431  0.1405
  159SAPE   H5X17828   6.760   6.392   7.396  2.6126  1.3259  3.6033
  159SAPE   H5Y17829   6.923   6.391   7.392  0.5291 -0.3125 -1.5214
  159SAPE   C3617830   6.855   6.191   7.410 -0.1245  1.0630  0.3620
  159SAPE   H6X17831   6.938   6.143   7.353 -0.6078 -1.6945  1.8074
  159SAPE   H6Y17832   6.761   6.135   7.391  0.1285  1.4966 -2.6976
  159SAPE   C3717833   6.891   6.169   7.561  0.4485 -0.7801  0.5610
  159SAPE   H7X17834   6.987   6.225   7.573  1.4533 -2.1255 -0.6966
  159SAPE   H7Y17835   6.917   6.062   7.574  1.0127 -0.5673  1.2461
  159SAPE   C3817836   6.789   6.221   7.662 -0.5936 -0.2682  0.7048
  159SAPE   H8X17837   6.693   6.165   7.659 -0.3087 -0.8140  1.5042
  159SAPE   H8Y17838   6.763   6.326   7.636 -0.1590  0.5259  3.2111
  159SAPE   C3917839   6.852   6.238   7.798  0.4307  0.0100 -0.1480
  159SAPE   H9X17840   6.942   6.302   7.783  1.5842 -1.3695  0.6453
  159SAPE   H9Y17841   6.870   6.137   7.841  2.7159 -0.2121 -1.4339
  159SAPE  C31017842   6.749   6.318   7.885  0.2762 -0.1326 -0.6703
  159SAPE  H10X17843   6.659   6.256   7.905  2.1551 -2.5782  0.7017
  159SAPE  H10Y17844   6.724   6.401   7.815  3.0115  0.3677 -1.1645
  159SAPE  C31117845   6.806   6.344   8.019 -0.0201  0.8911 -0.3677
  159SAPE  H11X17846   6.747   6.425   8.068  0.3660  2.0090 -1.6799
  159SAPE  H11Y17847   6.904   6.385   7.986 -0.2568 -1.8466 -5.3535
  159SAPE  C31217848   6.821   6.230   8.115 -0.1366 -0.2211 -0.2719
  159SAPE  H12X17849   6.878   6.148   8.066 -0.4325  0.8256 -2.5394
  159SAPE  H12Y17850   6.723   6.191   8.149  0.2490 -1.2350 -0.2808
  159SAPE  C31317851   6.902   6.262   8.253  0.0926  0.3113  1.1742
  159SAPE  H13X17852   6.885   6.175   8.319 -0.0709 -1.7162 -1.3833
  159SAPE  H13Y17853   6.863   6.353   8.303  0.9941  1.7058 -0.5440
  159SAPE  C31417854   7.061   6.273   8.226 -0.1236  0.4113  0.0884
  159SAPE  H14X17855   7.088   6.326   8.132  2.9332 -6.2275 -3.4562
  159SAPE  H14Y17856   7.094   6.171   8.198  2.7941  1.3597 -0.2517
  159SAPE  C31517857   7.144   6.315   8.345  0.3212  0.4978 -0.0237
  159SAPE  H15X17858   7.111   6.246   8.426 -0.9894 -0.4246 -1.3021
  159SAPE  H15Y17859   7.120   6.421   8.371  0.8582  0.3067  1.3674
  159SAPE  C31617860   7.291   6.281   8.316  0.2964  0.8278 -0.2486
  159SAPE  H16X17861   7.330   6.321   8.220  1.6159  1.6903  0.6064
  159SAPE  H16Y17862   7.289   6.170   8.309  0.0837  0.7803  0.4273
  159SAPE  C31717863   7.373   6.346   8.426 -0.1030  0.2057 -0.1920
  159SAPE  H17X17864   7.356   6.455   8.415 -0.5724  0.5561  2.9854
  159SAPE  H17Y17865   7.479   6.325   8.402 -0.5030 -0.7782 -1.2362
  159SAPE  C31817866   7.343   6.303   8.566 -0.0225  0.3695 -0.1652
  159SAPE  H18X17867   7.412   6.360   8.631 -1.1469  1.8816 -0.2325
  159SAPE  H18Y17868   7.364   6.195   8.581 -1.3981  0.1498  0.3435
  159SAPE  H18Z17869   7.237   6.321   8.596  0.1722 -0.1413  0.9059
  160SAPE     N17870   6.589   4.835   6.265 -0.2275  0.1132  0.2491
  160SAPE   HN117871   6.645   4.808   6.181  1.4880 -0.5722  1.5397
  160SAPE   HN217872   6.591   4.939   6.261  0.5231  0.1161  0.5227
  160SAPE   HN317873   6.638   4.807   6.353 -0.5319  1.3459  0.8326
  160SAPE   C1217874   6.446   4.798   6.259 -0.1953 -0.2458 -0.2939
  160SAPE  H12A17875   6.419   4.729   6.342 -0.2651  0.1749  0.0378
  160SAPE  H12B17876   6.432   4.739   6.166  2.4875 -0.2932 -0.7460
  160SAPE   C1117877   6.365   4.928   6.272 -0.0418 -0.2565 -0.2106
  160SAPE  H11A17878   6.265   4.908   6.229 -0.4367 -0.0254  0.5794
  160SAPE  H11B17879   6.410   5.010   6.211  0.8719 -1.7772 -1.6798
  160SAPE     P17880   6.433   5.070   6.482  0.1133  0.7752 -0.5133
  160SAPE   O1317881   6.574   5.023   6.505 -0.0212  0.1352  0.3835
  160SAPE   O1417882   6.426   5.190   6.404  0.1868  0.0240  0.7276
  160SAPE   O1217883   6.344   4.967   6.404  0.6045 -0.4488 -0.1120
  160SAPE   O1117884   6.363   5.081   6.622  0.6086  0.4091 -0.1088
  160SAPE    C117885   6.319   4.967   6.681  0.7172  0.4678 -0.3016
  160SAPE    HA17886   6.225   4.923   6.643  1.0513 -0.3819 -0.1736
  160SAPE    HB17887   6.395   4.886   6.674 -0.2428 -0.6669  1.5688
  160SAPE    C217888   6.305   4.994   6.838 -0.0310  0.5377  0.3703
  160SAPE    HS17889   6.263   4.899   6.878 -2.8472  0.7994 -1.6485
  160SAPE   O2117890   6.223   5.110   6.854 -0.0874  0.1892  0.1836
  160SAPE   C2117891   6.145   5.119   6.963 -0.3399  0.0751 -0.9095
  160SAPE   O2217892   6.132   5.025   7.044 -0.0592  0.1723 -0.7792
  160SAPE   C2217893   6.083   5.259   6.968 -0.0169  0.2275  0.2485
  160SAPE   H2R17894   6.074   5.296   6.863  4.1830  0.8754 -0.0853
  160SAPE   H2S17895   5.983   5.234   7.009  0.6805 -1.8466  0.8176
  160SAPE    C317896   6.447   5.011   6.895 -0.3255  0.2803  0.3643
  160SAPE    HX17897   6.501   5.104   6.866  0.8009  0.1809  1.9721
  160SAPE    HY17898   6.510   4.925   6.863 -0.9611  0.8273 -2.5658
  160SAPE   O3117899   6.428   4.998   7.038  0.0770 -0.2427  0.2454
  160SAPE   C3117900   6.535   5.033   7.107 -0.1675  0.3286 -0.5276
  160SAPE   O3217901   6.642   5.060   7.064  0.0749  0.0455 -0.1991
  160SAPE   C3217902   6.483   5.040   7.254 -0.1913  0.2668  0.0070
  160SAPE   H2X17903   6.540   4.963   7.310 -1.6966 -0.7055  0.2794
  160SAPE   H2Y17904   6.375   5.012   7.254  0.1594 -1.2207  0.5970
  160SAPE   C2317905   6.162   5.355   7.050  0.0032  0.0385 -1.1494
  160SAPE   H3R17906   6.113   5.454   7.037 -0.2864  0.4089  2.0056
  160SAPE   H3S17907   6.268   5.355   7.017  0.9088 -0.6479  1.5133
  160SAPE   C2417908   6.159   5.344   7.200  0.2166  0.0577  0.9275
  160SAPE   H4R17909   6.225   5.417   7.250  1.6475  0.1767 -0.9870
  160SAPE   H4S17910   6.206   5.244   7.217  1.5674 -0.1315 -2.9767
  160SAPE   C2517911   6.019   5.343   7.260  0.1421  0.6017  0.0310
  160SAPE   H5R17912   5.959   5.253   7.241 -1.3714  0.9493  2.6474
  160SAPE   C2617913   5.975   5.427   7.359 -0.2011 -0.2003 -0.6811
  160SAPE   H6R17914   5.876   5.415   7.405  0.2372  0.0853  0.3668
  160SAPE   C2717915   6.063   5.547   7.406 -0.3059 -0.3102  0.4566
  160SAPE   H7R17916   5.989   5.607   7.465  1.6285  0.7340  1.9307
  160SAPE   H7S17917   6.094   5.610   7.321 -0.7954  1.3791  1.4832
  160SAPE   C2817918   6.183   5.520   7.493  0.0578 -0.3069 -0.0962
  160SAPE   H8R17919   6.205   5.413   7.512 -1.2191 -0.6205 -0.3300
  160SAPE   C2917920   6.269   5.610   7.540 -0.5901 -0.3568 -0.1016
  160SAPE   H9R17921   6.334   5.558   7.613  0.3586  0.2565 -0.4941
  160SAPE  C21017922   6.279   5.753   7.528 -0.0541 -0.5964 -0.4974
  160SAPE  H10R17923   6.270   5.792   7.632 -1.9760 -1.6867 -0.2134
  160SAPE  H10S17924   6.198   5.800   7.467 -0.2804 -0.4580 -0.0936
  160SAPE  C21117925   6.408   5.797   7.472  0.4865  0.3157  0.0111
  160SAPE  H11R17926   6.417   5.808   7.363  1.0589 -0.6714 -0.0465
  160SAPE  C21217927   6.531   5.801   7.535  0.1408  0.8379 -0.3713
  160SAPE  H12R17928   6.621   5.817   7.474  2.3620 -0.9302  2.2058
  160SAPE  C21317929   6.551   5.768   7.685  0.3778 -0.0297 -0.3880
  160SAPE  H13R17930   6.626   5.687   7.679  0.4253 -0.0577  0.5120
  160SAPE  H13S17931   6.459   5.731   7.736  0.2464 -1.6040 -1.6895
  160SAPE  C21417932   6.606   5.893   7.750  0.0168  0.0178  0.0090
  160SAPE  H14R17933   6.656   5.956   7.676  0.0703  1.5891  1.3320
  160SAPE  C21517934   6.594   5.938   7.875 -0.3036 -0.8023  0.4941
  160SAPE  H15R17935   6.630   6.038   7.907 -0.5101  0.0035 -1.6417
  160SAPE  C21617936   6.529   5.859   7.985 -0.0489 -0.3134  0.1704
  160SAPE  H16R17937   6.556   5.752   7.989  2.1572  0.1583 -0.5872
  160SAPE  H16S17938   6.419   5.861   7.974  0.0132 -2.6073 -1.4940
  160SAPE  C21717939   6.562   5.909   8.124 -0.2566  0.0176 -0.0775
  160SAPE  H17R17940   6.497   5.862   8.201 -0.8225 -1.3224 -1.3281
  160SAPE  H17S17941   6.544   6.019   8.120 -2.0530 -0.1654  1.5612
  160SAPE  C21817942   6.719   5.889   8.147 -0.3462 -0.0598  0.1716
  160SAPE  H18R17943   6.742   5.934   8.246  0.2974 -0.5757  0.2625
  160SAPE  H18S17944   6.775   5.946   8.070 -0.1805 -0.6040 -0.1094
  160SAPE  C21917945   6.776   5.752   8.160 -0.6409 -0.3650 -0.7691
  160SAPE  H19R17946   6.884   5.767   8.182 -0.5627 -0.8433 -0.8201
  160SAPE  H19S17947   6.760   5.697   8.065 -1.9758 -0.4773 -0.5044
  160SAPE  C22017948   6.715   5.658   8.269  0.0610 -0.0685  0.5286
  160SAPE  H20R17949   6.604   5.653   8.260  0.0922  1.7694 -5.6217
  160SAPE  H20S17950   6.753   5.701   8.364 -0.2592 -2.1358  1.6562
  160SAPE  H20T17951   6.752   5.554   8.254 -2.4108 -0.6920 -2.2862
  160SAPE   C3317952   6.503   5.176   7.319 -0.0163  0.1518 -0.6451
  160SAPE   H3X17953   6.434   5.254   7.283 -1.6155  1.2119  4.0449
  160SAPE   H3Y17954   6.605   5.220   7.311 -0.1804  1.0855  1.6290
  160SAPE   C3417955   6.471   5.160   7.476  0.8787 -0.3581 -1.3237
  160SAPE   H4X17956   6.547   5.088   7.515  0.2874  0.0510  0.7425
  160SAPE   H4Y17957   6.371   5.118   7.500  0.5720  1.2435  0.4752
  160SAPE   C3517958   6.499   5.295   7.553 -1.0517  0.3898  0.1680
  160SAPE   H5X17959   6.421   5.370   7.524 -0.9722  1.3725  2.2914
  160SAPE   H5Y17960   6.600   5.335   7.530 -0.1149 -1.4058  0.9850
  160SAPE   C3617961   6.482   5.273   7.706  1.1510  0.0295 -0.6246
  160SAPE   H6X17962   6.556   5.194   7.732  0.3572 -0.2944  0.7647
  160SAPE   H6Y17963   6.384   5.223   7.723  1.7422 -1.2080 -0.7168
  160SAPE   C3717964   6.498   5.396   7.798 -0.1208  0.6824 -0.1984
  160SAPE   H7X17965   6.423   5.477   7.786  2.4888  3.9505  3.3585
  160SAPE   H7Y17966   6.588   5.445   7.755  0.1956 -0.4350 -0.8652
  160SAPE   C3817967   6.507   5.367   7.943 -0.5523 -0.2173 -0.1353
  160SAPE   H8X17968   6.562   5.450   7.992 -0.1203 -0.0408 -0.9051
  160SAPE   H8Y17969   6.568   5.280   7.973 -0.6978 -0.0668  0.6017
  160SAPE   C3917970   6.371   5.349   8.007  0.5420 -0.2959  0.4197
  160SAPE   H9X17971   6.329   5.259   7.957 -0.5674  0.5886 -0.3028
  160SAPE   H9Y17972   6.322   5.440   7.967 -0.8324 -1.1351  0.1070
  160SAPE  C31017973   6.348   5.337   8.163  0.5877 -0.2433  0.0320
  160SAPE  H10X17974   6.422   5.261   8.199  0.2986 -0.6260 -0.1827
  160SAPE  H10Y17975   6.247   5.293   8.175  0.5308 -0.2054 -0.3140
  160SAPE  C31117976   6.363   5.469   8.233 -0.7101 -0.2024  0.0770
  160SAPE  H11X17977   6.324   5.547   8.165  1.0309 -2.0053 -3.1850
  160SAPE  H11Y17978   6.465   5.506   8.259 -0.3310  0.3132 -2.0255
  160SAPE  C31217979   6.279   5.468   8.365 -0.3172 -0.4560 -0.0591
  160SAPE  H12X17980   6.177   5.432   8.336 -0.8787  1.8522 -1.2338
  160SAPE  H12Y17981   6.272   5.576   8.390 -0.2582  0.6202 -4.0567
  160SAPE  C31317982   6.343   5.398   8.480 -0.5419 -0.8036 -0.0496
  160SAPE  H13X17983   6.441   5.449   8.496 -1.5968  1.2248  0.3440
  160SAPE  H13Y17984   6.358   5.293   8.449 -0.0052 -0.7888  0.1436
  160SAPE  C31417985   6.247   5.396   8.604 -0.2386  0.5898 -0.0308
  160SAPE  H14X17986   6.214   5.499   8.627 -0.1555  0.1004  2.5275
  160SAPE  H14Y17987   6.303   5.350   8.688  1.0005  0.5428 -0.8544
  160SAPE  C31517988   6.116   5.307   8.585  0.2319 -0.2119 -0.6732
  160SAPE  H15X17989   6.144   5.223   8.518  2.0415  1.7007 -2.4479
  160SAPE  H15Y17990   6.050   5.371   8.522 -0.4016 -1.6903 -1.5642
  160SAPE  C31617991   6.049   5.266   8.715  0.2024  0.2675  0.8406
  160SAPE  H16X17992   6.055   5.359   8.777 -0.6991 -0.5760  2.2617
  160SAPE  H16Y17993   6.117   5.188   8.754  1.6448  0.9021 -0.3277
  160SAPE  C31717994   5.911   5.213   8.713 -0.4188 -0.1780 -0.4754
  160SAPE  H17X17995   5.838   5.284   8.666 -0.2330  0.5301  0.2861
  160SAPE  H17Y17996   5.885   5.213   8.821 -1.0567  2.1220 -0.5556
  160SAPE  C31817997   5.906   5.064   8.655 -0.0555 -0.1564 -0.4322
  160SAPE  H18X17998   5.805   5.019   8.644  1.6947 -4.9127  0.6576
  160SAPE  H18Y17999   5.962   4.999   8.725 -0.2022  2.1846  2.0217
  160SAPE  H18Z18000   5.949   5.042   8.555 -2.2772 -0.6785 -1.3181
  161SAPE     N18001   2.764   4.196   5.922  0.1979  0.7195 -0.3199
  161SAPE   HN118002   2.806   4.169   5.831  1.8332 -1.2174  0.9102
  161SAPE   HN218003   2.679   4.141   5.947  0.6137  0.5560  0.7914
  161SAPE   HN318004   2.733   4.294   5.935 -0.1178  0.2886  3.6571
  161SAPE   C1218005   2.868   4.178   6.035 -0.5476  0.1623  0.4952
  161SAPE  H12A18006   2.958   4.238   6.012  0.0956  0.3570  3.2641
  161SAPE  H12B18007   2.877   4.069   6.058 -0.1126 -0.1489 -1.0364
  161SAPE   C1118008   2.798   4.235   6.155  0.3902 -0.7018 -0.0268
  161SAPE  H11A18009   2.867   4.235   6.242 -0.2495  1.9996  0.5841
  161SAPE  H11B18010   2.704   4.183   6.179 -0.1943  1.3544  2.6041
  161SAPE     P18011   2.647   4.458   6.130  0.3386  0.2388 -0.4264
  161SAPE   O1318012   2.684   4.600   6.123 -0.5488 -0.1400 -0.3736
  161SAPE   O1418013   2.570   4.401   6.015 -0.1111 -0.6098  0.3272
  161SAPE   O1218014   2.780   4.376   6.145 -0.6507  0.3194  0.7298
  161SAPE   O1118015   2.566   4.454   6.262 -0.2513  0.5667  0.0026
  161SAPE    C118016   2.495   4.344   6.323 -1.0259 -0.2911  0.2575
  161SAPE    HA18017   2.394   4.336   6.275 -0.9329  0.3843 -0.0667
  161SAPE    HB18018   2.551   4.249   6.321 -1.1326 -0.3434 -0.8539
  161SAPE    C218019   2.473   4.364   6.476  0.9426  0.9981 -0.2509
  161SAPE    HS18020   2.381   4.424   6.492 -0.8283 -1.1696 -1.7834
  161SAPE   O2118021   2.585   4.434   6.532  0.0533  0.4183 -0.4659
  161SAPE   C2118022   2.702   4.387   6.546  0.2391 -0.0730 -0.1152
  161SAPE   O2218023   2.731   4.270   6.532  0.0534 -0.3466  0.5466
  161SAPE   C2218024   2.796   4.495   6.585 -0.0571  0.1795 -1.0100
  161SAPE   H2R18025   2.871   4.525   6.508  1.0331 -0.6239 -0.2966
  161SAPE   H2S18026   2.739   4.589   6.599 -1.1408 -0.4388 -1.2060
  161SAPE    C318027   2.437   4.218   6.534 -0.6217 -0.1045 -0.4072
  161SAPE    HX18028   2.514   4.140   6.549 -1.6307 -0.6034  3.4281
  161SAPE    HY18029   2.363   4.168   6.467  0.3395 -0.5231 -1.1755
  161SAPE   O3118030   2.382   4.237   6.666 -0.0837  0.5801 -0.2634
  161SAPE   C3118031   2.257   4.285   6.669 -0.2292 -0.0602 -0.0224
  161SAPE   O3218032   2.187   4.310   6.577  0.1859 -0.2322  0.6663
  161SAPE   C3218033   2.200   4.281   6.814  0.0670 -0.1137 -0.6900
  161SAPE   H2X18034   2.175   4.387   6.836 -0.4043  0.1875 -2.5013
  161SAPE   H2Y18035   2.280   4.231   6.872 -1.0986 -1.0403  0.1829
  161SAPE   C2318036   2.877   4.457   6.723  0.2095  0.0738 -0.3797
  161SAPE   H3R18037   2.923   4.549   6.763 -3.1262  2.2766 -1.1491
  161SAPE   H3S18038   2.950   4.383   6.684  1.3036  1.2898 -0.7017
  161SAPE   C2418039   2.793   4.393   6.833  0.2424  0.0039 -0.3481
  161SAPE   H4R18040   2.860   4.376   6.920 -0.0495 -1.6855 -0.4157
  161SAPE   H4S18041   2.768   4.294   6.790 -0.4384  0.3449 -0.7658
  161SAPE   C2518042   2.666   4.476   6.874 -0.3725 -0.1389  0.4785
  161SAPE   H5R18043   2.598   4.495   6.790 -0.8743  2.2208  1.3496
  161SAPE   C2618044   2.629   4.498   6.999 -0.2026  0.3580 -0.5586
  161SAPE   H6R18045   2.525   4.530   7.016 -0.2751 -0.4958  0.7761
  161SAPE   C2718046   2.708   4.457   7.123 -0.6872 -0.1348  0.2590
  161SAPE   H7R18047   2.816   4.467   7.100 -0.3583 -1.0603  1.3151
  161SAPE   H7S18048   2.685   4.351   7.147 -1.2736 -0.5248 -1.8615
  161SAPE   C2818049   2.681   4.536   7.250  0.1447  0.9197 -0.3879
  161SAPE   H8R18050   2.676   4.645   7.240  2.5332  1.1957  0.5576
  161SAPE   C2918051   2.681   4.487   7.379 -0.3187  0.0560 -0.3652
  161SAPE   H9R18052   2.658   4.553   7.464 -0.4215 -0.3778 -0.0545
  161SAPE  C21018053   2.707   4.351   7.424  0.0573  0.5078  0.0900
  161SAPE  H10R18054   2.778   4.363   7.509  1.6356 -0.3477 -1.0604
  161SAPE  H10S18055   2.756   4.300   7.339  2.9043  0.8677  1.4023
  161SAPE  C21118056   2.589   4.272   7.474  0.3115  0.0543 -0.3488
  161SAPE  H11R18057   2.499   4.285   7.413  0.2673  1.1999 -0.0602
  161SAPE  C21218058   2.575   4.209   7.597 -0.2654 -0.1104  0.1006
  161SAPE  H12R18059   2.479   4.160   7.617  0.0651 -0.8190  0.0129
  161SAPE  C21318060   2.686   4.201   7.699 -0.5546  0.2092  0.6571
  161SAPE  H13R18061   2.776   4.145   7.666 -0.4490  0.1462  1.0445
  161SAPE  H13S18062   2.665   4.124   7.776  1.2354 -1.1285 -0.1260
  161SAPE  C21418063   2.715   4.325   7.780 -0.4736 -0.4875  0.3914
  161SAPE  H14R18064   2.654   4.413   7.754  0.1439 -0.2797 -0.3845
  161SAPE  C21518065   2.801   4.324   7.876  0.3297 -0.0485 -0.6674
  161SAPE  H15R18066   2.819   4.417   7.931  2.3273 -1.5076  1.3579
  161SAPE  C21618067   2.878   4.197   7.922  0.6481  0.0464 -0.4390
  161SAPE  H16R18068   2.985   4.222   7.909  0.1710  1.0036 -3.1813
  161SAPE  H16S18069   2.872   4.108   7.857 -0.6342 -0.4226  0.2637
  161SAPE  C21718070   2.833   4.154   8.068 -0.1993 -0.3356 -0.3325
  161SAPE  H17R18071   2.832   4.243   8.134  4.1016 -1.3217  1.3405
  161SAPE  H17S18072   2.907   4.077   8.097  1.1938  1.0077 -0.1829
  161SAPE  C21818073   2.699   4.076   8.074  0.0572 -0.3704  0.6322
  161SAPE  H18R18074   2.715   3.981   8.018 -0.2840  1.8424 -3.6251
  161SAPE  H18S18075   2.613   4.131   8.030  0.2665  1.0433  1.9008
  161SAPE  C21918076   2.652   4.044   8.210 -0.5581 -0.1006 -0.2970
  161SAPE  H19R18077   2.619   4.133   8.268 -0.4120  0.1244 -0.5572
  161SAPE  H19S18078   2.741   3.995   8.256  0.4303  0.1003 -1.9272
  161SAPE  C22018079   2.536   3.947   8.224 -0.1434  0.1657 -0.2652
  161SAPE  H20R18080   2.514   3.928   8.331  0.7545 -2.2280 -0.4301
  161SAPE  H20S18081   2.559   3.846   8.183 -3.3099 -1.2015  1.0160
  161SAPE  H20T18082   2.445   3.989   8.176  1.6126  1.7966 -2.3709
  161SAPE   C3318083   2.064   4.213   6.833  0.2080  0.4933 -0.3250
  161SAPE   H3X18084   1.989   4.251   6.760 -0.6366  1.4156  0.9871
  161SAPE   H3Y18085   2.022   4.236   6.933  0.1568  2.8396 -0.8261
  161SAPE   C3418086   2.074   4.067   6.805  0.3153 -0.1906 -0.2732
  161SAPE   H4X18087   2.158   4.029   6.866  0.9525  0.1167 -0.9428
  161SAPE   H4Y18088   2.111   4.042   6.703 -0.4365  0.3558 -0.6943
  161SAPE   C3518089   1.952   3.973   6.840 -0.7385  0.0522  0.1054
  161SAPE   H5X18090   1.982   3.868   6.820  0.2589  0.5721 -1.2895
  161SAPE   H5Y18091   1.875   3.994   6.763  0.0978  0.2790 -0.6904
  161SAPE   C3618092   1.906   3.983   6.979  0.3233  0.3996 -0.0114
  161SAPE   H6X18093   1.874   4.087   7.003 -0.2031  0.6278 -1.5792
  161SAPE   H6Y18094   1.993   3.964   7.046  0.5431  0.8167 -0.1766
  161SAPE   C3718095   1.797   3.885   7.016  0.7134 -0.4933  0.2338
  161SAPE   H7X18096   1.840   3.785   7.036  0.0418 -0.6474  0.9705
  161SAPE   H7Y18097   1.722   3.884   6.935  1.4041  1.8398 -0.5196
  161SAPE   C3818098   1.719   3.918   7.140  0.4643  0.7888  0.0647
  161SAPE   H8X18099   1.643   3.839   7.153  1.5916 -0.0214  2.0453
  161SAPE   H8Y18100   1.664   4.015   7.131 -1.4486 -0.3532 -1.3768
  161SAPE   C3918101   1.810   3.910   7.271  0.1083  0.3772 -0.5372
  161SAPE   H9X18102   1.884   3.992   7.272  1.2346 -0.6175 -0.2247
  161SAPE   H9Y18103   1.862   3.812   7.269 -0.9136 -0.3299  2.5785
  161SAPE  C31018104   1.720   3.899   7.391 -0.8061  0.2346 -0.4617
  161SAPE  H10X18105   1.657   3.808   7.398 -0.6387  0.1312 -0.2748
  161SAPE  H10Y18106   1.654   3.989   7.390  0.8398  1.5401 -3.5389
  161SAPE  C31118107   1.791   3.905   7.531  0.4088  0.2404  0.4556
  161SAPE  H11X18108   1.852   3.998   7.534  1.3517 -0.2970 -0.8781
  161SAPE  H11Y18109   1.855   3.814   7.532 -1.2526 -1.0737 -2.1638
  161SAPE  C31218110   1.701   3.899   7.650  0.3315  0.1096 -0.7437
  161SAPE  H12X18111   1.650   3.802   7.635 -0.3195  0.4881 -1.0192
  161SAPE  H12Y18112   1.621   3.976   7.655  1.3945  1.1812  1.4398
  161SAPE  C31318113   1.766   3.904   7.786 -0.5393 -0.9574  0.2790
  161SAPE  H13X18114   1.821   4.000   7.795  0.0086 -1.2762  0.4018
  161SAPE  H13Y18115   1.852   3.833   7.783  1.8229  1.7336 -0.6577
  161SAPE  C31418116   1.663   3.902   7.901  0.8526 -0.2601  0.6122
  161SAPE  H14X18117   1.577   3.838   7.871  0.8166  1.1790 -2.8086
  161SAPE  H14Y18118   1.621   4.004   7.908 -1.4669 -0.9146 -2.1150
  161SAPE  C31518119   1.718   3.862   8.041 -0.1855  0.0327  0.3310
  161SAPE  H15X18120   1.642   3.873   8.121 -1.4426 -0.8806 -0.7019
  161SAPE  H15Y18121   1.807   3.923   8.069  0.2523  0.3059 -1.4825
  161SAPE  C31618122   1.763   3.718   8.047 -0.3242  0.9229 -0.2419
  161SAPE  H16X18123   1.843   3.695   7.974 -0.2834 -0.3410  0.1648
  161SAPE  H16Y18124   1.690   3.641   8.013  0.6796  0.1722 -0.7410
  161SAPE  C31718125   1.817   3.691   8.186 -0.0041 -0.2687  0.2877
  161SAPE  H17X18126   1.750   3.729   8.266 -0.5374  2.1327 -1.2248
  161SAPE  H17Y18127   1.916   3.738   8.205 -0.2214 -0.0834  0.9772
  161SAPE  C31818128   1.831   3.537   8.214 -0.1100  0.0606 -0.3101
  161SAPE  H18X18129   1.854   3.506   8.318  0.1718 -0.9001 -0.6501
  161SAPE  H18Y18130   1.913   3.492   8.154  0.2593 -0.1947  0.3814
  161SAPE  H18Z18131   1.743   3.478   8.183  0.0828 -1.4451  1.8059
  162SAPE     N18132   2.161   6.348   6.351 -0.0834  0.3232 -0.4813
  162SAPE   HN118133   2.096   6.429   6.362 -1.0934 -0.6516  1.0266
  162SAPE   HN218134   2.179   6.326   6.251  1.2663  1.2211 -0.4572
  162SAPE   HN318135   2.105   6.272   6.395  0.5605 -1.5589 -2.7082
  162SAPE   C1218136   2.292   6.384   6.415 -0.3566 -0.3232 -0.4125
  162SAPE  H12A18137   2.370   6.340   6.349 -0.7000  0.9144 -1.6960
  162SAPE  H12B18138   2.297   6.336   6.515  0.7703  0.0691 -0.2617
  162SAPE   C1118139   2.313   6.537   6.432 -0.2456 -0.4077 -0.0500
  162SAPE  H11A18140   2.415   6.549   6.474 -0.5910  0.2010  0.6313
  162SAPE  H11B18141   2.253   6.585   6.512  2.1539  1.2861  0.8557
  162SAPE     P18142   2.406   6.695   6.242 -0.2585 -0.0429 -0.0874
  162SAPE   O1318143   2.497   6.592   6.186 -0.3447 -0.2574 -0.7704
  162SAPE   O1418144   2.335   6.779   6.141 -0.1150  0.0969  0.4753
  162SAPE   O1218145   2.291   6.619   6.322  0.0861  0.0240 -0.2303
  162SAPE   O1118146   2.480   6.797   6.342 -0.1350  0.1536 -0.1466
  162SAPE    C118147   2.396   6.901   6.391 -0.4473  0.0670 -0.5065
  162SAPE    HA18148   2.357   6.961   6.307 -0.5260 -0.5456 -0.9154
  162SAPE    HB18149   2.309   6.858   6.446 -2.0758  1.6793 -1.6859
  162SAPE    C218150   2.472   6.998   6.494 -0.7270 -0.6287 -0.8948
  162SAPE    HS18151   2.530   7.076   6.440 -0.9848  0.6719  0.6462
  162SAPE   O2118152   2.556   6.916   6.582 -0.5077  0.4815  0.2580
  162SAPE   C2118153   2.640   6.989   6.652  0.1399  0.9413 -0.0414
  162SAPE   O2218154   2.666   7.108   6.641  0.4603  0.5361  0.3416
  162SAPE   C2218155   2.701   6.904   6.764 -0.3485  0.1397 -0.0068
  162SAPE   H2R18156   2.626   6.905   6.845 -0.8223  3.8314 -0.3053
  162SAPE   H2S18157   2.729   6.801   6.734 -0.7914 -0.2616  0.9418
  162SAPE    C318158   2.371   7.087   6.580 -0.9184  0.4929  0.2365
  162SAPE    HX18159   2.274   7.090   6.526 -1.1241 -1.1670  0.4524
  162SAPE    HY18160   2.414   7.189   6.584  1.2406 -0.3552  0.3487
  162SAPE   O3118161   2.338   7.028   6.705  0.2222 -0.4526 -0.6775
  162SAPE   C3118162   2.341   7.108   6.812  0.4744 -0.1491  0.0503
  162SAPE   O3218163   2.338   7.229   6.812  0.1243 -0.2314  0.3058
  162SAPE   C3218164   2.359   7.028   6.943  0.5151  0.6523  0.5250
  162SAPE   H2X18165   2.405   6.934   6.909 -1.6999  0.3308 -1.9235
  162SAPE   H2Y18166   2.262   7.009   6.995  0.4286 -0.2852  0.0406
  162SAPE   C2318167   2.836   6.946   6.831 -0.0347 -0.3944  0.0582
  162SAPE   H3R18168   2.824   7.053   6.858 -1.7793 -0.6454  0.4075
  162SAPE   H3S18169   2.906   6.960   6.745  0.7938  1.2401  0.9421
  162SAPE   C2418170   2.868   6.856   6.944  0.2244 -0.5475  0.1329
  162SAPE   H4R18171   2.892   6.753   6.908 -0.0417 -0.9258  1.0011
  162SAPE   H4S18172   2.786   6.845   7.018 -0.3241 -0.8644 -0.5126
  162SAPE   C2518173   2.994   6.909   7.007 -0.8401 -0.3551  0.5233
  162SAPE   H5R18174   3.072   6.948   6.940  0.5923  0.0327  2.3571
  162SAPE   C2618175   3.020   6.939   7.134  0.4493 -0.0660  0.3018
  162SAPE   H6R18176   3.119   6.978   7.164  0.1389  1.0955 -0.1073
  162SAPE   C2718177   2.926   6.921   7.256 -0.0295  0.4519  0.6132
  162SAPE   H7R18178   2.957   6.828   7.309 -2.7485  0.8561  3.2172
  162SAPE   H7S18179   2.826   6.899   7.214 -0.3187  0.1851  1.4239
  162SAPE   C2818180   2.924   7.032   7.356  0.1356  0.0064  0.1892
  162SAPE   H8R18181   2.930   7.131   7.308 -2.6400  0.7557  1.2151
  162SAPE   C2918182   2.932   7.025   7.488  0.7841 -0.5241  0.0012
  162SAPE   H9R18183   2.935   7.118   7.547  0.3449 -1.1487  1.0397
  162SAPE  C21018184   2.945   6.900   7.569 -0.1200 -0.5836 -0.5024
  162SAPE  H10R18185   2.925   6.807   7.511 -0.8165 -1.1671  0.6283
  162SAPE  H10S18186   2.871   6.895   7.652  0.0745  1.4493 -0.1620
  162SAPE  C21118187   3.089   6.898   7.626 -0.4091 -0.0673  0.7884
  162SAPE  H11R18188   3.165   6.893   7.547  0.9662 -0.5337  2.0796
  162SAPE  C21218189   3.136   6.917   7.753 -0.0993  0.2386  0.3014
  162SAPE  H12R18190   3.244   6.912   7.774  0.4469 -0.0912 -2.2862
  162SAPE  C21318191   3.047   6.929   7.872  0.4730 -0.6452  0.4494
  162SAPE  H13R18192   3.042   6.827   7.915 -0.4758 -0.1111  1.6802
  162SAPE  H13S18193   2.950   6.968   7.834 -0.1306 -2.1819  0.3666
  162SAPE  C21418194   3.094   7.024   7.978  0.2460  0.0527  0.0592
  162SAPE  H14R18195   3.115   6.964   8.068 -0.2731 -0.3424 -0.0758
  162SAPE  C21518196   3.106   7.160   7.982 -0.3112 -0.1313  0.3906
  162SAPE  H15R18197   3.146   7.204   8.074 -1.2726 -0.4172  0.9596
  162SAPE  C21618198   3.071   7.257   7.872  0.5545  0.5084 -0.3274
  162SAPE  H16R18199   3.009   7.339   7.912  0.4955  0.2836  0.0533
  162SAPE  H16S18200   3.002   7.202   7.804  0.4675  1.3354 -0.9165
  162SAPE  C21718201   3.194   7.304   7.787 -0.4192  0.4563  0.3506
  162SAPE  H17R18202   3.260   7.226   7.744  0.8656  1.9237 -0.4585
  162SAPE  H17S18203   3.262   7.360   7.855  0.4875 -1.0363  0.7265
  162SAPE  C21818204   3.160   7.388   7.657 -0.1342  0.0906  0.1240
  162SAPE  H18R18205   3.073   7.446   7.696  0.1419 -1.9729  4.4131
  162SAPE  H18S18206   3.134   7.312   7.580  4.0689 -0.5608 -0.9042
  162SAPE  C21918207   3.268   7.483   7.624 -0.0222 -0.1788  0.5679
  162SAPE  H19R18208   3.279   7.563   7.701  0.1063  0.0578  0.3045
  162SAPE  H19S18209   3.241   7.533   7.529 -2.5151  0.2782  1.4444
  162SAPE  C22018210   3.409   7.411   7.594  0.8320 -0.9990 -0.1881
  162SAPE  H20R18211   3.394   7.306   7.559 -0.5458 -1.3551  1.3246
  162SAPE  H20S18212   3.454   7.398   7.695 -2.8339  0.3713  1.7960
  162SAPE  H20T18213   3.478   7.469   7.529  0.7169 -2.4879 -1.7055
  162SAPE   C3318214   2.442   7.102   7.053 -0.0750 -0.2155  0.0360
  162SAPE   H3X18215   2.388   7.198   7.065 -1.8128 -0.6686 -2.9390
  162SAPE   H3Y18216   2.530   7.143   7.000 -0.3960  1.7135  0.9089
  162SAPE   C3418217   2.477   7.015   7.177  0.4476 -0.3708  0.4335
  162SAPE   H4X18218   2.538   6.931   7.135  0.5590  0.1725 -0.5067
  162SAPE   H4Y18219   2.383   6.976   7.220  0.9757 -0.3869  1.6149
  162SAPE   C3518220   2.549   7.092   7.288 -0.0406  0.0247  0.0017
  162SAPE   H5X18221   2.646   7.126   7.246 -0.7822  1.0304 -0.9520
  162SAPE   H5Y18222   2.567   7.019   7.370  2.5253  2.4042  1.7238
  162SAPE   C3618223   2.466   7.197   7.358  0.4290 -0.2582 -0.1299
  162SAPE   H6X18224   2.368   7.152   7.386 -0.4381  0.7959 -1.3339
  162SAPE   H6Y18225   2.429   7.280   7.293  0.5765 -1.1477 -1.3852
  162SAPE   C3718226   2.516   7.243   7.498 -0.1007  0.6933  0.2947
  162SAPE   H7X18227   2.509   7.149   7.558  4.6665 -1.3639 -1.8468
  162SAPE   H7Y18228   2.440   7.315   7.534  1.2867  1.2614  2.3050
  162SAPE   C3818229   2.660   7.294   7.512  0.2786 -0.4867 -0.6795
  162SAPE   H8X18230   2.679   7.368   7.432  2.0371 -0.0771  0.0541
  162SAPE   H8Y18231   2.734   7.210   7.517  1.5077  0.6036  0.0986
  162SAPE   C3918232   2.682   7.358   7.657  0.3207 -0.0257  0.1713
  162SAPE   H9X18233   2.607   7.438   7.671  1.0557  0.8580 -0.7783
  162SAPE   H9Y18234   2.784   7.401   7.667  0.4717 -0.6163  1.3366
  162SAPE  C31018235   2.669   7.263   7.782  0.3290  0.1948  0.6567
  162SAPE  H10X18236   2.760   7.199   7.777  0.3114  0.2535 -1.0163
  162SAPE  H10Y18237   2.576   7.206   7.761  0.6024  0.7500 -2.5397
  162SAPE  C31118238   2.671   7.346   7.911  0.0516  0.7935  0.0512
  162SAPE  H11X18239   2.588   7.418   7.899  0.0066  0.5209 -1.5002
  162SAPE  H11Y18240   2.763   7.408   7.919  0.8084 -0.3285  0.3160
  162SAPE  C31218241   2.644   7.260   8.035  0.1259  0.0190 -0.0858
  162SAPE  H12X18242   2.718   7.178   8.042 -0.5036 -0.8788 -2.7289
  162SAPE  H12Y18243   2.550   7.206   8.012  1.1243 -2.4649  1.2876
  162SAPE  C31318244   2.617   7.342   8.156  0.6229  0.2814 -0.2522
  162SAPE  H13X18245   2.537   7.417   8.143  1.1644  1.3175  1.8399
  162SAPE  H13Y18246   2.712   7.395   8.183  0.7213 -0.0237  0.0054
  162SAPE  C31418247   2.584   7.261   8.284 -0.4632  0.3348  0.4319
  162SAPE  H14X18248   2.498   7.195   8.255 -1.5378  2.1219 -0.6364
  162SAPE  H14Y18249   2.545   7.338   8.353 -1.8879  0.3841 -0.3815
  162SAPE  C31518250   2.707   7.190   8.348  0.7582 -0.1588 -0.3234
  162SAPE  H15X18251   2.777   7.272   8.375  1.9212 -1.7264  1.6518
  162SAPE  H15Y18252   2.762   7.118   8.284  0.8948  0.3433 -0.7796
  162SAPE  C31618253   2.670   7.127   8.481  0.6858 -0.8037  0.2180
  162SAPE  H16X18254   2.597   7.194   8.531  0.3332  0.5535 -2.0098
  162SAPE  H16Y18255   2.757   7.128   8.551  1.1971 -0.5568 -0.4153
  162SAPE  C31718256   2.618   6.981   8.465  0.2580 -0.0845 -0.2828
  162SAPE  H17X18257   2.699   6.908   8.442  1.2697  0.4534  1.4569
  162SAPE  H17Y18258   2.545   6.985   8.380 -1.1821  3.3953  0.9292
  162SAPE  C31818259   2.553   6.936   8.592  0.3852 -0.2006  0.3221
  162SAPE  H18X18260   2.475   7.005   8.631 -0.8524 -1.6446  0.4807
  162SAPE  H18Y18261   2.637   6.938   8.665  0.0021  3.2810  0.8349
  162SAPE  H18Z18262   2.502   6.837   8.590 -1.2954  0.6492 -0.7374
  163SAPE     N18263   0.026   5.022   6.624 -0.5151 -0.6917  0.0931
  163SAPE   HN118264   0.041   5.125   6.619  0.4720 -0.8508 -0.8137
  163SAPE   HN218265   0.089   4.971   6.558  0.4713  1.9568 -1.1679
  163SAPE   HN318266  -0.067   5.004   6.581  0.2593 -2.9883 -0.7451
  163SAPE   C1218267   0.017   4.969   6.765  0.0954  0.0290 -0.6009
  163SAPE  H12A18268  -0.061   5.025   6.821  0.8293  0.0081  0.4708
  163SAPE  H12B18269   0.115   4.999   6.807  0.7983  0.2101 -2.2845
  163SAPE   C1118270  -0.009   4.819   6.778 -0.1343  0.3821  0.2448
  163SAPE  H11A18271  -0.014   4.792   6.886 -0.8828  0.8517  0.3395
  163SAPE  H11B18272   0.084   4.783   6.729 -0.4144  0.2352 -0.1866
  163SAPE     P18273  -0.148   4.669   6.609  0.0454  0.1099  0.0332
  163SAPE   O1318274  -0.290   4.636   6.590  0.2341  0.0292  0.2104
  163SAPE   O1418275  -0.085   4.717   6.484 -0.1183  0.8382  0.3387
  163SAPE   O1218276  -0.127   4.784   6.715  0.4214 -0.0483 -0.1895
  163SAPE   O1118277  -0.064   4.554   6.675  0.8784  0.9312  0.1852
  163SAPE    C118278  -0.139   4.433   6.734 -0.1452  0.1686 -0.3228
  163SAPE    HA18279  -0.220   4.401   6.665 -0.7585  2.6162 -0.8320
  163SAPE    HB18280  -0.062   4.353   6.732  0.7359  0.9310  1.2984
  163SAPE    C218281  -0.186   4.447   6.885 -0.5484  0.0215 -0.3059
  163SAPE    HS18282  -0.218   4.347   6.922  1.6397 -0.1860  1.2156
  163SAPE   O2118283  -0.300   4.534   6.889 -0.1781  0.4515 -0.4369
  163SAPE   C2118284  -0.413   4.473   6.836  0.0854  0.8775  0.5142
  163SAPE   O2218285  -0.418   4.357   6.807 -0.0810  0.2220 -0.0085
  163SAPE   C2218286  -0.525   4.572   6.821 -0.2913 -0.0390 -0.3565
  163SAPE   H2R18287  -0.486   4.674   6.842  0.3158 -0.4836  0.7560
  163SAPE   H2S18288  -0.536   4.568   6.711  1.7856 -0.5089 -0.5902
  163SAPE    C318289  -0.077   4.489   6.992  0.1305  0.1139 -0.0685
  163SAPE    HX18290  -0.042   4.586   6.952  0.6363 -1.1777 -3.0753
  163SAPE    HY18291   0.008   4.417   6.993  0.4789  0.5231  0.2824
  163SAPE   O3118292  -0.128   4.515   7.123 -0.6447  0.1763  0.2650
  163SAPE   C3118293  -0.152   4.394   7.193 -0.5977  0.0996 -0.2518
  163SAPE   O3218294  -0.160   4.284   7.139 -0.1015 -0.4099 -0.1580
  163SAPE   C3218295  -0.142   4.413   7.341 -0.0758  0.3415  0.2908
  163SAPE   H2X18296  -0.213   4.491   7.378  0.8782  2.2297 -1.6482
  163SAPE   H2Y18297  -0.043   4.452   7.371  0.2162 -0.4871  0.4240
  163SAPE   C2318298  -0.660   4.537   6.901 -0.1559  0.1657  0.5397
  163SAPE   H3R18299  -0.699   4.438   6.870 -0.4629  0.5382 -0.3061
  163SAPE   H3S18300  -0.734   4.616   6.879 -0.0594  0.3014  0.7005
  163SAPE   C2418301  -0.647   4.541   7.053 -0.0029  0.3953 -0.1417
  163SAPE   H4R18302  -0.566   4.471   7.083  0.1654  1.1430  1.2566
  163SAPE   H4S18303  -0.743   4.517   7.102  0.0710 -1.0877 -0.6812
  163SAPE   C2518304  -0.608   4.685   7.096 -0.0166  0.6518 -0.6798
  163SAPE   H5R18305  -0.665   4.767   7.049  0.3619  1.4908  0.2912
  163SAPE   C2618306  -0.519   4.718   7.186 -0.4004 -0.4617 -0.8536
  163SAPE   H6R18307  -0.515   4.821   7.223 -0.1576 -0.5321 -0.6796
  163SAPE   C2718308  -0.424   4.622   7.249 -0.2543 -0.1539  0.3132
  163SAPE   H7R18309  -0.328   4.677   7.260  0.9642 -1.7550 -1.5646
  163SAPE   H7S18310  -0.393   4.532   7.192  1.0258 -0.3797  1.3407
  163SAPE   C2818311  -0.486   4.587   7.376 -0.4416 -0.4600 -0.3146
  163SAPE   H8R18312  -0.566   4.511   7.373 -1.8005  0.8395  1.1639
  163SAPE   C2918313  -0.453   4.639   7.499  0.0716 -0.2566  0.5876
  163SAPE   H9R18314  -0.513   4.599   7.582  0.4107 -1.0229  0.4762
  163SAPE  C21018315  -0.352   4.748   7.528  0.1126  0.1015 -0.2562
  163SAPE  H10R18316  -0.321   4.807   7.440  0.6158 -0.5030 -0.4931
  163SAPE  H10S18317  -0.260   4.690   7.552  0.2931 -0.1573 -1.5327
  163SAPE  C21118318  -0.399   4.837   7.649  0.2559  0.6565  0.2193
  163SAPE  H11R18319  -0.491   4.894   7.629 -0.2230 -0.7012 -1.6720
  163SAPE  C21218320  -0.329   4.880   7.754  0.5784 -0.0319  0.1309
  163SAPE  H12R18321  -0.382   4.950   7.822 -0.7927  0.9941 -1.8947
  163SAPE  C21318322  -0.193   4.834   7.784 -0.1436  0.3907  0.0699
  163SAPE  H13R18323  -0.131   4.911   7.835  2.6915 -1.9155  0.4209
  163SAPE  H13S18324  -0.134   4.808   7.693  0.6654  0.8904  0.4362
  163SAPE  C21418325  -0.179   4.716   7.884 -0.3806  0.5231  0.2007
  163SAPE  H14R18326  -0.156   4.621   7.833  3.6861  1.2152  0.4234
  163SAPE  C21518327  -0.200   4.722   8.018  0.0652  0.0964  0.0299
  163SAPE  H15R18328  -0.201   4.627   8.074 -2.1221 -0.7729 -1.3225
  163SAPE  C21618329  -0.237   4.852   8.090  0.1885  0.4421 -0.6931
  163SAPE  H16R18330  -0.347   4.865   8.097  0.1487 -0.6187  2.0138
  163SAPE  H16S18331  -0.192   4.943   8.046 -0.5806  0.4517 -1.4872
  163SAPE  C21718332  -0.191   4.842   8.242 -0.0565 -0.0852  0.3317
  163SAPE  H17R18333  -0.098   4.782   8.230  0.1673  0.2954  0.1446
  163SAPE  H17S18334  -0.263   4.775   8.294 -0.0074 -0.4724 -0.0964
  163SAPE  C21818335  -0.172   4.977   8.312 -0.1282  0.6818 -0.0244
  163SAPE  H18R18336  -0.163   4.958   8.421  1.5222 -1.0426 -0.4054
  163SAPE  H18S18337  -0.260   5.044   8.305  0.2305  1.5304  2.4562
  163SAPE  C21918338  -0.058   5.053   8.262  0.6342  0.0282  0.2735
  163SAPE  H19R18339  -0.091   5.097   8.166  0.3129  1.1382  0.8770
  163SAPE  H19S18340   0.028   4.991   8.229  0.0771 -1.3678  1.3200
  163SAPE  C22018341  -0.006   5.158   8.357 -0.5632  0.1105  0.4945
  163SAPE  H20R18342  -0.094   5.222   8.379 -0.7717 -0.2206  0.6327
  163SAPE  H20S18343   0.066   5.227   8.309 -0.7080  1.2049  1.7924
  163SAPE  H20T18344   0.038   5.107   8.446  0.6868  0.2136 -0.0405
  163SAPE   C3318345  -0.163   4.286   7.427  0.0302  0.3944  0.3653
  163SAPE   H3X18346  -0.059   4.255   7.452 -0.4350 -1.3137  0.3201
  163SAPE   H3Y18347  -0.217   4.199   7.385  1.1757 -1.3921  2.4212
  163SAPE   C3418348  -0.231   4.320   7.565 -0.0561  0.4540  0.7093
  163SAPE   H4X18349  -0.339   4.302   7.551  0.1722 -1.3558  1.0197
  163SAPE   H4Y18350  -0.210   4.423   7.601 -0.4426  0.7734  0.0497
  163SAPE   C3518351  -0.189   4.217   7.676 -0.0062 -0.4196 -0.3353
  163SAPE   H5X18352  -0.080   4.224   7.696  0.0672  1.6517 -1.1379
  163SAPE   H5Y18353  -0.224   4.114   7.654  2.5619 -1.4710  0.1693
  163SAPE   C3618354  -0.249   4.262   7.820  0.6321 -0.0244  0.4210
  163SAPE   H6X18355  -0.359   4.253   7.816  0.6513 -0.4013  0.6516
  163SAPE   H6Y18356  -0.219   4.367   7.839 -0.2912  0.0090  1.8390
  163SAPE   C3718357  -0.206   4.165   7.935 -0.6730  0.1218  0.2342
  163SAPE   H7X18358  -0.095   4.173   7.936 -0.5101 -1.7898  1.0492
  163SAPE   H7Y18359  -0.239   4.063   7.905  1.8249 -0.7842  0.2740
  163SAPE   C3818360  -0.266   4.209   8.065 -0.3163 -0.0082 -0.7390
  163SAPE   H8X18361  -0.377   4.213   8.052 -0.6247  0.4033  1.5636
  163SAPE   H8Y18362  -0.238   4.314   8.088 -0.1115 -0.4733  1.3819
  163SAPE   C3918363  -0.227   4.113   8.189 -0.0968 -0.8627 -0.8116
  163SAPE   H9X18364  -0.177   4.021   8.152  1.3845 -0.6293  0.5278
  163SAPE   H9Y18365  -0.326   4.094   8.235  0.9153  1.4770  2.7050
  163SAPE  C31018366  -0.148   4.168   8.315  0.8061  0.3155  0.5710
  163SAPE  H10X18367  -0.198   4.261   8.348 -0.0643  0.7992 -1.8855
  163SAPE  H10Y18368  -0.044   4.190   8.283  0.4010  0.5795 -0.6178
  163SAPE  C31118369  -0.155   4.078   8.441 -0.7610 -0.7137  0.6940
  163SAPE  H11X18370  -0.131   3.970   8.430 -1.2140 -0.6255 -1.5971
  163SAPE  H11Y18371  -0.254   4.088   8.491  0.3004  0.3359  2.7287
  163SAPE  C31218372  -0.060   4.146   8.543  0.0998  0.7525 -0.6954
  163SAPE  H12X18373  -0.075   4.256   8.549  0.2736  0.7087  2.1025
  163SAPE  H12Y18374   0.048   4.138   8.517  0.8357  3.1853  1.1631
  163SAPE  C31318375  -0.084   4.101   8.687 -0.3391  0.2550 -0.2588
  163SAPE  H13X18376  -0.055   3.994   8.699  0.2825  0.1269 -2.4284
  163SAPE  H13Y18377  -0.190   4.122   8.715  0.1057 -0.0765  1.8155
  163SAPE  C31418378   0.008   4.177   8.796 -0.6293  0.3420 -0.7466
  163SAPE  H14X18379  -0.020   4.134   8.895  0.7044  0.2481 -0.3950
  163SAPE  H14Y18380  -0.015   4.284   8.780 -1.2660  0.3996  0.4079
  163SAPE  C31518381   0.161   4.151   8.780 -0.3064  1.0809  0.6615
  163SAPE  H15X18382   0.193   4.168   8.675 -0.4419  1.9410  0.7512
  163SAPE  H15Y18383   0.177   4.044   8.807  0.7399  1.1613  0.4088
  163SAPE  C31618384   0.244   4.226   8.883  0.1204  0.1678  0.8372
  163SAPE  H16X18385   0.200   4.211   8.984  0.7022 -2.8099  0.7340
  163SAPE  H16Y18386   0.226   4.336   8.878 -0.1172  0.2195  2.2750
  163SAPE  C31718387   0.384   4.180   8.893 -0.3286  0.4508  0.0455
  163SAPE  H17X18388   0.439   4.210   8.801 -0.8093  0.2761 -0.2973
  163SAPE  H17Y18389   0.391   4.070   8.900  1.4704  0.4509 -0.9224
  163SAPE  C31818390   0.462   4.251   9.003 -0.1756 -0.2726 -0.2335
  163SAPE  H18X18391   0.441   4.360   8.999  1.1960  0.0228  0.0078
  163SAPE  H18Y18392   0.573   4.240   9.002 -0.3289 -2.4401  0.8507
  163SAPE  H18Z18393   0.426   4.221   9.104 -0.9407  1.4603  0.0581
  164SAPE     N18394   2.744   3.587   5.925  0.3369 -0.0857 -0.3282
  164SAPE   HN118395   2.759   3.485   5.937  1.1849  0.2822  2.2336
  164SAPE   HN218396   2.646   3.613   5.905  0.5979  2.5225  1.3204
  164SAPE   HN318397   2.809   3.608   5.846 -1.2870 -1.3051 -2.0590
  164SAPE   C1218398   2.791   3.662   6.051 -0.0424  0.1865  0.6027
  164SAPE  H12A18399   2.894   3.624   6.069  0.0591  0.1462 -0.0383
  164SAPE  H12B18400   2.718   3.644   6.132  0.5495 -1.1910  0.8624
  164SAPE   C1118401   2.813   3.808   6.006  0.5407  0.1546  0.0421
  164SAPE  H11A18402   2.887   3.814   5.923  1.7507 -0.0946  1.0678
  164SAPE  H11B18403   2.862   3.859   6.092 -1.7365 -0.1612  1.6231
  164SAPE     P18404   2.577   3.915   6.070 -0.2216  0.1531  0.0625
  164SAPE   O1318405   2.534   4.054   6.040  0.0998  0.2431  0.7642
  164SAPE   O1418406   2.473   3.807   6.078  0.0576  0.2298 -0.0411
  164SAPE   O1218407   2.689   3.869   5.965  0.1767  0.7034 -0.1599
  164SAPE   O1118408   2.653   3.927   6.204 -0.5820  0.0858  0.2294
  164SAPE    C118409   2.583   3.966   6.319  0.2668  0.7378 -0.4851
  164SAPE    HA18410   2.645   4.041   6.373  0.2712 -0.0866  0.6889
  164SAPE    HB18411   2.491   4.022   6.292  0.5596  2.1172  1.2311
  164SAPE    C218412   2.558   3.833   6.396 -0.1991 -0.2399  0.0854
  164SAPE    HS18413   2.546   3.756   6.317 -2.1635  0.6134 -0.5226
  164SAPE   O2118414   2.440   3.847   6.469 -0.6743  0.4036 -0.0809
  164SAPE   C2118415   2.377   3.734   6.499 -0.1754  0.0140  0.2533
  164SAPE   O2218416   2.403   3.620   6.467 -0.0096  0.1959  0.4169
  164SAPE   C2218417   2.262   3.780   6.587  0.1232  0.9521  0.4316
  164SAPE   H2R18418   2.300   3.857   6.658  2.6204 -0.0664  0.3227
  164SAPE   H2S18419   2.184   3.820   6.519  2.7412  3.4775 -1.3267
  164SAPE    C318420   2.673   3.787   6.491 -0.4006 -0.9140 -0.5123
  164SAPE    HX18421   2.756   3.760   6.422  0.4066  0.2900 -0.0429
  164SAPE    HY18422   2.645   3.692   6.541  0.0495 -0.4858  0.5743
  164SAPE   O3118423   2.716   3.901   6.576 -0.2083  0.4264 -0.1995
  164SAPE   C3118424   2.651   3.903   6.700  0.6235 -0.3477  0.4014
  164SAPE   O3218425   2.576   3.816   6.735  0.1706  0.8007  0.0056
  164SAPE   C3218426   2.686   4.033   6.774 -0.2872  0.9618 -0.6527
  164SAPE   H2X18427   2.644   4.119   6.719 -0.5275  0.1668 -1.7322
  164SAPE   H2Y18428   2.796   4.046   6.766 -0.1171 -0.4885 -1.0249
  164SAPE   C2318429   2.199   3.663   6.667  0.2498 -0.2905  1.0750
  164SAPE   H3R18430   2.166   3.579   6.603 -2.0548 -1.2542  3.3405
  164SAPE   H3S18431   2.110   3.715   6.710 -0.3450 -1.7555  1.6577
  164SAPE   C2418432   2.292   3.613   6.780 -0.0078  0.4450 -0.3957
  164SAPE   H4R18433   2.383   3.583   6.722 -0.5596  2.1163 -2.2495
  164SAPE   H4S18434   2.246   3.525   6.829  1.5036  0.7058  1.6166
  164SAPE   C2518435   2.320   3.715   6.886 -0.1212  0.2983 -0.6142
  164SAPE   H5R18436   2.354   3.809   6.841  1.3994 -0.5418 -1.2875
  164SAPE   C2618437   2.321   3.694   7.024  0.3445 -0.1744  0.3621
  164SAPE   H6R18438   2.337   3.781   7.090 -1.4094 -0.4298  1.1782
  164SAPE   C2718439   2.292   3.563   7.095  0.9555  0.3031  0.1952
  164SAPE   H7R18440   2.342   3.557   7.194 -1.7925 -0.9459  1.6358
  164SAPE   H7S18441   2.340   3.479   7.041 -0.1945 -0.1650 -0.1447
  164SAPE   C2818442   2.140   3.536   7.115 -0.7521 -0.1638 -0.4570
  164SAPE   H8R18443   2.081   3.485   7.037 -1.1421 -1.9829  0.9626
  164SAPE   C2918444   2.071   3.571   7.224  0.6909 -0.7084 -0.3382
  164SAPE   H9R18445   1.970   3.535   7.249 -0.3755  1.0480 -1.8242
  164SAPE  C21018446   2.112   3.641   7.344  0.5502 -0.2025  0.4050
  164SAPE  H10R18447   2.071   3.744   7.346  1.9981  0.4048  0.3053
  164SAPE  H10S18448   2.223   3.656   7.342  0.2818  2.2845  0.6298
  164SAPE  C21118449   2.066   3.577   7.464 -0.2002  0.3497 -0.3950
  164SAPE  H11R18450   1.977   3.617   7.514  1.8431  3.0288  1.3822
  164SAPE  C21218451   2.118   3.464   7.515 -0.2573  0.3602  0.4078
  164SAPE  H12R18452   2.099   3.436   7.620  0.9514  0.4267  0.6640
  164SAPE  C21318453   2.220   3.377   7.457 -0.1445  0.5236 -0.1642
  164SAPE  H13R18454   2.234   3.397   7.349  2.5350  1.9218  0.3518
  164SAPE  H13S18455   2.192   3.270   7.457  0.3297  0.3928  0.4627
  164SAPE  C21418456   2.355   3.387   7.515 -0.2256  0.3273 -0.2848
  164SAPE  H14R18457   2.428   3.425   7.443 -0.4380  0.3757 -0.4755
  164SAPE  C21518458   2.403   3.344   7.632 -0.3290  0.5564  0.0685
  164SAPE  H15R18459   2.511   3.359   7.649  0.0831 -0.5373 -1.3947
  164SAPE  C21618460   2.328   3.278   7.742  0.2891  0.5772 -0.5554
  164SAPE  H16R18461   2.351   3.169   7.748  0.8316  0.6706 -0.8731
  164SAPE  H16S18462   2.218   3.291   7.738  0.0785 -0.7043  0.1684
  164SAPE  C21718463   2.362   3.328   7.890  0.5382  0.2868  0.2425
  164SAPE  H17R18464   2.314   3.428   7.902  1.5054  1.2814 -3.0061
  164SAPE  H17S18465   2.472   3.340   7.891  0.5457  0.2438  0.0108
  164SAPE  C21818466   2.311   3.239   7.999 -0.2437  0.0084  1.0078
  164SAPE  H18R18467   2.320   3.132   7.971  1.6175 -0.0975  1.8700
  164SAPE  H18S18468   2.205   3.258   8.027 -0.8033 -0.9215 -0.3532
  164SAPE  C21918469   2.392   3.261   8.127  0.3163  0.0894  0.4268
  164SAPE  H19R18470   2.370   3.367   8.151 -1.2590  0.2345 -1.3806
  164SAPE  H19S18471   2.497   3.262   8.091 -0.2569  3.1481 -1.5774
  164SAPE  C22018472   2.360   3.161   8.235  0.6371  0.5486  0.3423
  164SAPE  H20R18473   2.412   3.186   8.330 -0.1966 -0.9731  1.2564
  164SAPE  H20S18474   2.380   3.058   8.198 -2.0869 -0.2658  0.9069
  164SAPE  H20T18475   2.252   3.169   8.259  0.2340 -0.6335 -0.9424
  164SAPE   C3318476   2.649   4.039   6.928  0.5087  0.2398  0.6383
  164SAPE   H3X18477   2.704   4.117   6.986 -0.1875 -0.5893  2.4969
  164SAPE   H3Y18478   2.678   3.942   6.973  1.0551 -0.2615 -0.7438
  164SAPE   C3418479   2.501   4.068   6.960 -1.3164 -0.2593  0.0748
  164SAPE   H4X18480   2.436   4.009   6.890 -1.3602  0.4311 -0.4816
  164SAPE   H4Y18481   2.492   4.174   6.927  1.0038 -0.5235 -1.6756
  164SAPE   C3518482   2.465   4.040   7.102 -0.3856  0.2804  0.6496
  164SAPE   H5X18483   2.525   4.115   7.159 -1.8412  2.0827 -0.0725
  164SAPE   H5Y18484   2.483   3.934   7.131 -3.3945  0.0601  2.1645
  164SAPE   C3618485   2.318   4.077   7.126  0.9668  0.1107 -0.4009
  164SAPE   H6X18486   2.254   4.025   7.052  0.0842  2.5187 -1.3905
  164SAPE   H6Y18487   2.312   4.187   7.119  0.2747  0.0541 -0.7632
  164SAPE   C3718488   2.276   4.049   7.269 -0.1322 -0.3053 -0.1762
  164SAPE   H7X18489   2.351   4.077   7.346  1.0761  0.1169 -1.4649
  164SAPE   H7Y18490   2.270   3.939   7.282  0.0231 -0.7027 -2.8939
  164SAPE   C3818491   2.147   4.123   7.310 -0.9664 -0.1635 -0.2030
  164SAPE   H8X18492   2.075   4.086   7.235  0.0364 -1.3738 -0.6144
  164SAPE   H8Y18493   2.152   4.234   7.314 -1.0780 -0.1348 -0.7761
  164SAPE   C3918494   2.104   4.095   7.457  0.1777 -0.7795  0.1432
  164SAPE   H9X18495   2.096   3.985   7.461  0.8326 -0.8086  2.8198
  164SAPE   H9Y18496   2.001   4.134   7.476  0.1897 -0.2624 -0.7965
  164SAPE  C31018497   2.201   4.126   7.566 -0.1997 -0.4457  0.2546
  164SAPE  H10X18498   2.273   4.206   7.537  0.6123 -0.2289  2.6459
  164SAPE  H10Y18499   2.260   4.034   7.583  1.0233  0.4235  0.8788
  164SAPE  C31118500   2.161   4.160   7.706  0.4605  0.1053 -0.0118
  164SAPE  H11X18501   2.084   4.087   7.741  0.0187  1.0312  1.0009
  164SAPE  H11Y18502   2.109   4.257   7.719  1.2271  0.4185  0.7567
  164SAPE  C31218503   2.279   4.167   7.822  0.7760 -0.0110  0.2133
  164SAPE  H12X18504   2.343   4.254   7.795  0.9866 -0.2748 -0.1496
  164SAPE  H12Y18505   2.347   4.079   7.819  2.7191  1.3207 -3.9030
  164SAPE  C31318506   2.203   4.192   7.960 -0.1425 -0.3217  0.0733
  164SAPE  H13X18507   2.164   4.296   7.961  1.1983  0.2409 -1.4917
  164SAPE  H13Y18508   2.283   4.178   8.036 -0.1878 -1.2992 -0.0440
  164SAPE  C31418509   2.093   4.097   8.003  0.3004  0.4955  0.6156
  164SAPE  H14X18510   2.137   3.997   7.981  0.8420  0.9226 -0.3022
  164SAPE  H14Y18511   2.001   4.108   7.940  1.1093 -2.7897 -1.4029
  164SAPE  C31518512   2.054   4.099   8.143 -0.4049  0.3168  0.1496
  164SAPE  H15X18513   2.142   4.130   8.203 -1.9718  0.5832  2.4462
  164SAPE  H15Y18514   2.036   3.992   8.166 -0.5877  0.0162 -1.3105
  164SAPE  C31618515   1.929   4.169   8.184  0.7238 -0.3113  0.5602
  164SAPE  H16X18516   1.857   4.160   8.099  1.4837  0.3344 -0.1626
  164SAPE  H16Y18517   1.947   4.277   8.203  0.1080  0.1447 -1.2318
  164SAPE  C31718518   1.865   4.106   8.311 -0.4409  0.0677  0.0520
  164SAPE  H17X18519   1.847   3.997   8.298 -3.5284  0.0826  2.7617
  164SAPE  H17Y18520   1.761   4.145   8.299 -0.3995  1.3348  3.0097
  164SAPE  C31818521   1.907   4.139   8.457  0.3442 -0.2533 -0.2565
  164SAPE  H18X18522   1.883   4.068   8.538  2.3771 -0.9296 -0.1751
  164SAPE  H18Y18523   1.870   4.242   8.477  2.2194  0.1905  1.2066
  164SAPE  H18Z18524   2.018   4.139   8.464  0.2768 -0.2230  1.0399
  165SAPE     N18525   2.604   4.730   6.396  0.3817 -0.0460 -0.4759
  165SAPE   HN118526   2.542   4.736   6.479 -1.7266  0.7492 -2.0044
  165SAPE   HN218527   2.595   4.642   6.341  3.5262 -0.8802  0.1378
  165SAPE   HN318528   2.704   4.751   6.414  0.0544 -0.3400  2.0355
  165SAPE   C1218529   2.564   4.833   6.290  0.3595  0.0301 -0.0029
  165SAPE  H12A18530   2.477   4.789   6.237  1.5682 -2.3825 -0.1293
  165SAPE  H12B18531   2.648   4.845   6.218  0.8520  2.3247  0.8815
  165SAPE   C1118532   2.533   4.964   6.352 -0.2633 -0.0533 -0.5147
  165SAPE  H11A18533   2.629   5.003   6.393 -2.1297  1.2380  3.1021
  165SAPE  H11B18534   2.472   4.961   6.445  1.4589 -0.7596  0.6354
  165SAPE     P18535   2.320   5.056   6.236  0.0864 -0.1549 -0.2161
  165SAPE   O1318536   2.286   5.137   6.115 -0.1499  0.2958 -0.0992
  165SAPE   O1418537   2.249   4.923   6.240 -0.8628  0.6364 -0.4129
  165SAPE   O1218538   2.477   5.042   6.256 -0.4990 -0.5863  0.1007
  165SAPE   O1118539   2.272   5.130   6.367  0.2374 -0.3672 -0.2747
  165SAPE    C118540   2.322   5.259   6.400 -0.4993  0.7785 -0.5055
  165SAPE    HA18541   2.403   5.291   6.332 -0.5562 -1.9922 -2.0509
  165SAPE    HB18542   2.243   5.337   6.392  0.3447  1.8273  0.9331
  165SAPE    C218543   2.369   5.262   6.558 -0.2364  0.7947 -0.0671
  165SAPE    HS18544   2.376   5.153   6.580 -0.4988  0.2845 -2.2492
  165SAPE   O2118545   2.273   5.327   6.647  0.4132  0.0320  0.1733
  165SAPE   C2118546   2.150   5.283   6.652 -0.1804  0.2103  0.2583
  165SAPE   O2218547   2.102   5.182   6.606 -0.7744  0.7839  0.7335
  165SAPE   C2218548   2.075   5.382   6.740  0.0693  0.5052 -0.3079
  165SAPE   H2R18549   2.144   5.463   6.770  2.7825 -1.8869  0.2704
  165SAPE   H2S18550   1.993   5.423   6.676  0.6902 -0.6170 -1.8760
  165SAPE    C318551   2.511   5.315   6.587  0.6806 -0.1731 -0.1760
  165SAPE    HX18552   2.529   5.409   6.532 -0.6697 -0.0417 -0.4397
  165SAPE    HY18553   2.587   5.244   6.548  0.6666  0.9275 -2.3568
  165SAPE   O3118554   2.528   5.338   6.728  1.0680  0.1930 -0.0530
  165SAPE   C3118555   2.510   5.464   6.781 -0.1727 -0.0196 -0.7190
  165SAPE   O3218556   2.483   5.562   6.718  0.8551  0.4679 -0.3130
  165SAPE   C3218557   2.539   5.448   6.932  0.2748  0.4943  0.4016
  165SAPE   H2X18558   2.640   5.404   6.943  0.1903 -0.3346 -1.6360
  165SAPE   H2Y18559   2.470   5.372   6.975  3.0898 -1.8322  1.0699
  165SAPE   C2318560   2.026   5.326   6.873 -0.1318  0.2272  0.0492
  165SAPE   H3R18561   2.104   5.256   6.911 -0.5142 -0.2380 -0.0208
  165SAPE   H3S18562   1.934   5.270   6.848  0.4330  0.2173 -2.1765
  165SAPE   C2418563   1.993   5.432   6.982 -0.0230  0.0515  0.1606
  165SAPE   H4R18564   1.936   5.371   7.055 -0.3693 -0.1845 -0.3036
  165SAPE   H4S18565   1.918   5.500   6.936  0.4818 -0.3864 -1.3511
  165SAPE   C2518566   2.107   5.511   7.045  0.4850  0.2931  0.4548
  165SAPE   H5R18567   2.164   5.572   6.974  1.2699  0.8504  1.5287
  165SAPE   C2618568   2.155   5.493   7.167 -0.1175 -0.4891  0.2906
  165SAPE   H6R18569   2.230   5.564   7.207 -1.3090  1.3966 -0.6639
  165SAPE   C2718570   2.103   5.406   7.277  0.3816 -0.7033 -0.5394
  165SAPE   H7R18571   1.993   5.408   7.291  0.5070 -0.5086  0.4822
  165SAPE   H7S18572   2.143   5.451   7.370 -1.0812 -0.7967  0.1691
  165SAPE   C2818573   2.150   5.267   7.256  0.3352  1.0661  0.9651
  165SAPE   H8R18574   2.105   5.205   7.177 -2.2333  1.3045  2.1528
  165SAPE   C2918575   2.237   5.201   7.322 -0.1171  0.3703 -0.3867
  165SAPE   H9R18576   2.270   5.103   7.284  0.3183  0.6576 -0.7558
  165SAPE  C21018577   2.317   5.261   7.438  0.0241  0.9832  1.0114
  165SAPE  H10R18578   2.337   5.370   7.437 -0.2090  1.0388  1.7024
  165SAPE  H10S18579   2.414   5.206   7.442  0.3610  1.4275 -0.4265
  165SAPE  C21118580   2.246   5.238   7.568  0.0367 -0.1061  0.0706
  165SAPE  H11R18581   2.142   5.273   7.567  0.5255  1.4990  0.9347
  165SAPE  C21218582   2.309   5.195   7.684  0.0392  0.2116  0.5834
  165SAPE  H12R18583   2.251   5.178   7.776  2.1591 -1.4614  1.6973
  165SAPE  C21318584   2.455   5.162   7.703 -0.0488 -0.1729  0.4535
  165SAPE  H13R18585   2.518   5.250   7.727  1.9432 -1.0206 -1.3254
  165SAPE  H13S18586   2.484   5.114   7.607  0.8426 -2.3961  1.7707
  165SAPE  C21418587   2.479   5.053   7.805  0.2027 -0.3853 -0.4532
  165SAPE  H14R18588   2.508   4.954   7.766  0.5627 -0.0515 -1.0455
  165SAPE  C21518589   2.488   5.060   7.942 -0.7212 -0.1894  0.1051
  165SAPE  H15R18590   2.500   4.969   8.002 -0.5400  1.5534  2.9032
  165SAPE  C21618591   2.473   5.189   8.022  0.1212  0.3898  0.1260
  165SAPE  H16R18592   2.369   5.193   8.062  0.3668  1.6412  0.6888
  165SAPE  H16S18593   2.484   5.279   7.957 -2.3964  1.7922  1.4708
  165SAPE  C21718594   2.555   5.211   8.147  0.5524 -0.7512  0.2856
  165SAPE  H17R18595   2.662   5.212   8.120  1.6757  0.1460  4.0886
  165SAPE  H17S18596   2.529   5.122   8.210 -1.5819 -1.5411 -1.5712
  165SAPE  C21818597   2.510   5.338   8.216 -0.6107 -0.1442 -0.0664
  165SAPE  H18R18598   2.401   5.335   8.232 -0.5512 -1.6872  0.1566
  165SAPE  H18S18599   2.533   5.426   8.152  5.1596  0.1545  1.7926
  165SAPE  C21918600   2.592   5.364   8.344 -0.6759 -0.7420 -0.0796
  165SAPE  H19R18601   2.699   5.350   8.318  0.3052  1.2440  2.4375
  165SAPE  H19S18602   2.551   5.284   8.410 -4.3164  0.0208 -1.1569
  165SAPE  C22018603   2.568   5.503   8.407 -0.3567 -0.5567  0.4393
  165SAPE  H20R18604   2.621   5.513   8.504  3.6008 -0.7975 -1.4673
  165SAPE  H20S18605   2.466   5.540   8.426  1.2009  3.1645  2.5432
  165SAPE  H20T18606   2.617   5.576   8.339  1.3613 -0.1087  2.0554
  165SAPE   C3318607   2.522   5.576   7.017 -0.7478 -0.0986 -0.5629
  165SAPE   H3X18608   2.414   5.602   7.017 -0.6222  0.4754 -1.3998
  165SAPE   H3Y18609   2.583   5.657   6.972  0.7269 -1.8609 -1.9117
  165SAPE   C3418610   2.578   5.544   7.157 -0.3783  1.0355 -0.3148
  165SAPE   H4X18611   2.688   5.533   7.151 -0.4063  1.0962 -0.9212
  165SAPE   H4Y18612   2.539   5.444   7.187 -0.5220  0.6468 -1.7535
  165SAPE   C3518613   2.532   5.643   7.253  0.4970  0.6342 -0.3366
  165SAPE   H5X18614   2.421   5.648   7.250  0.3328  2.3051  3.2546
  165SAPE   H5Y18615   2.565   5.747   7.234  0.7678  0.5455 -0.3491
  165SAPE   C3618616   2.554   5.614   7.407 -0.1858 -0.8457  0.0407
  165SAPE   H6X18617   2.658   5.576   7.421 -1.0591 -3.0932  0.9284
  165SAPE   H6Y18618   2.484   5.535   7.441 -2.1396  1.1354  0.8821
  165SAPE   C3718619   2.539   5.741   7.495  0.5213 -0.4334 -0.6160
  165SAPE   H7X18620   2.437   5.782   7.478 -0.1384 -0.9827  1.6518
  165SAPE   H7Y18621   2.617   5.810   7.456  0.8909 -1.0779 -1.0267
  165SAPE   C3818622   2.563   5.714   7.646 -0.2086  0.0343 -0.6879
  165SAPE   H8X18623   2.671   5.693   7.659 -0.5688 -1.2405  0.5108
  165SAPE   H8Y18624   2.514   5.619   7.678 -0.9759  0.3989 -0.7600
  165SAPE   C3918625   2.516   5.838   7.728 -0.0403 -0.4769 -0.5952
  165SAPE   H9X18626   2.408   5.856   7.711 -0.0438 -0.9785 -1.1268
  165SAPE   H9Y18627   2.575   5.930   7.706  0.9855 -0.0074  3.3031
  165SAPE  C31018628   2.542   5.810   7.875 -0.2105 -0.3023 -0.4194
  165SAPE  H10X18629   2.648   5.782   7.893 -0.5535 -0.1280  2.2163
  165SAPE  H10Y18630   2.485   5.717   7.898 -0.6913  0.4062  1.4200
  165SAPE  C31118631   2.503   5.926   7.973 -0.4387  0.0642  0.0109
  165SAPE  H11X18632   2.400   5.963   7.956 -0.0641  1.4643  0.6548
  165SAPE  H11Y18633   2.566   6.014   7.948  0.8821 -0.8954 -0.1101
  165SAPE  C31218634   2.529   5.886   8.116 -0.2609 -0.4961 -0.3649
  165SAPE  H12X18635   2.632   5.846   8.121 -0.6574 -1.4300  0.4972
  165SAPE  H12Y18636   2.448   5.821   8.155 -0.1768 -0.7283 -0.5804
  165SAPE  C31318637   2.524   6.015   8.203  0.3830 -0.2763 -0.0854
  165SAPE  H13X18638   2.416   6.035   8.221  0.7295  1.6206  0.0670
  165SAPE  H13Y18639   2.553   6.104   8.142 -1.3329  1.1931  1.1613
  165SAPE  C31418640   2.596   6.004   8.340 -0.0411  0.0944  0.3579
  165SAPE  H14X18641   2.594   6.104   8.387  1.7066  0.2667  0.1392
  165SAPE  H14Y18642   2.700   5.967   8.330 -0.2799 -0.9932  1.5280
  165SAPE  C31518643   2.535   5.901   8.426  0.4109 -0.1414  0.5220
  165SAPE  H15X18644   2.554   5.799   8.387  0.8626  0.8558 -2.0226
  165SAPE  H15Y18645   2.426   5.922   8.437  0.5674  1.0861 -0.1277
  165SAPE  C31618646   2.608   5.916   8.564  0.6236 -0.0118 -0.5295
  165SAPE  H16X18647   2.560   5.978   8.643  0.3637  0.6691 -1.2153
  165SAPE  H16Y18648   2.705   5.968   8.547  0.3785  0.9610  0.8761
  165SAPE  C31718649   2.631   5.783   8.638 -0.9466  0.4560  0.5316
  165SAPE  H17X18650   2.683   5.702   8.584  0.4816  0.1328  2.3116
  165SAPE  H17Y18651   2.537   5.727   8.658  0.0824 -1.2982  0.7027
  165SAPE  C31818652   2.689   5.807   8.776 -0.0724  0.0935  0.9453
  165SAPE  H18X18653   2.737   5.715   8.817  1.2361  0.6276  0.6508
  165SAPE  H18Y18654   2.629   5.857   8.854  0.9526  1.8292  0.6666
  165SAPE  H18Z18655   2.777   5.873   8.764  0.7715 -1.4272 -2.3986
  166SAPE     N18656   0.906   2.853   5.893  0.0545  0.1404  0.0604
  166SAPE   HN118657   0.871   2.934   5.948 -1.8816  0.4958 -1.5531
  166SAPE   HN218658   1.005   2.842   5.923 -0.0087 -0.9235 -0.0854
  166SAPE   HN318659   0.895   2.878   5.792 -1.0961  1.5787  0.5070
  166SAPE   C1218660   0.830   2.723   5.915  0.2557 -0.7817 -0.8007
  166SAPE  H12A18661   0.737   2.734   5.853  1.7443 -3.9931 -4.0207
  166SAPE  H12B18662   0.803   2.716   6.022  0.2771 -2.2186 -0.8643
  166SAPE   C1118663   0.900   2.602   5.867  0.4668 -0.0091 -0.3845
  166SAPE  H11A18664   0.894   2.593   5.756  0.3750 -1.5531 -0.2653
  166SAPE  H11B18665   0.858   2.508   5.907 -0.3690  0.5116 -0.0132
  166SAPE     P18666   1.074   2.562   6.062  0.1355  0.2022  0.0719
  166SAPE   O1318667   1.023   2.432   6.111  0.3420 -0.0928 -0.4663
  166SAPE   O1418668   1.222   2.563   6.071 -0.2844 -0.1858 -0.2174
  166SAPE   O1218669   1.035   2.603   5.910 -0.1319  0.0456  0.0184
  166SAPE   O1118670   1.013   2.678   6.143  0.8717 -0.2763  0.1488
  166SAPE    C118671   1.093   2.770   6.222 -0.0127  0.9364 -0.6637
  166SAPE    HA18672   1.200   2.740   6.215 -0.5693 -1.6206  0.7530
  166SAPE    HB18673   1.070   2.867   6.174 -2.8348 -0.7774 -3.1625
  166SAPE    C218674   1.045   2.766   6.376  0.0488 -0.2014  0.4636
  166SAPE    HS18675   1.091   2.854   6.425 -0.9603 -0.8946  2.7775
  166SAPE   O2118676   1.096   2.649   6.435 -0.2081  0.1075 -0.2914
  166SAPE   C2118677   1.214   2.658   6.479  0.1153  0.2931 -0.1967
  166SAPE   O2218678   1.288   2.753   6.470 -0.4527 -0.3517  0.2324
  166SAPE   C2218679   1.254   2.521   6.539 -0.0899  0.1347 -0.5270
  166SAPE   H2R18680   1.192   2.490   6.626  1.3693 -0.3992  0.3532
  166SAPE   H2S18681   1.241   2.459   6.448  0.2397  1.2088 -1.3164
  166SAPE    C318682   0.890   2.791   6.405 -0.1511  0.0812 -0.9756
  166SAPE    HX18683   0.844   2.704   6.352 -0.8994 -0.9445  1.2442
  166SAPE    HY18684   0.850   2.874   6.343 -1.5429 -0.0536 -0.2896
  166SAPE   O3118685   0.851   2.797   6.547 -0.5519  0.3117 -0.2557
  166SAPE   C3118686   0.842   2.672   6.614  0.6918 -0.8238 -0.1935
  166SAPE   O3218687   0.860   2.567   6.560  0.2744 -0.2610 -0.2235
  166SAPE   C3218688   0.805   2.691   6.767  0.8872  0.3182  0.4112
  166SAPE   H2X18689   0.724   2.767   6.765  0.2978 -0.3158 -0.1641
  166SAPE   H2Y18690   0.894   2.735   6.817  2.4658  0.0268 -1.9270
  166SAPE   C2318691   1.403   2.499   6.571  0.0575 -0.4199 -0.0729
  166SAPE   H3R18692   1.459   2.562   6.498  0.6819 -2.8459 -1.8280
  166SAPE   H3S18693   1.437   2.404   6.525  2.5575  0.2635  0.1813
  166SAPE   C2418694   1.438   2.524   6.718  0.3597  0.7355  0.2699
  166SAPE   H4R18695   1.546   2.510   6.740  0.7834  0.0645 -2.0025
  166SAPE   H4S18696   1.388   2.446   6.778 -0.6015  2.8826  2.4067
  166SAPE   C2518697   1.386   2.664   6.752 -0.1912  0.2312 -0.0969
  166SAPE   H5R18698   1.447   2.749   6.717 -0.3315  0.9596  1.3517
  166SAPE   C2618699   1.287   2.703   6.828  0.5291 -0.2464 -0.4746
  166SAPE   H6R18700   1.267   2.810   6.845 -4.8450 -1.1538  0.7294
  166SAPE   C2718701   1.188   2.612   6.891 -0.1240 -0.4080 -0.2021
  166SAPE   H7R18702   1.183   2.518   6.831  2.2148  0.5720 -2.0839
  166SAPE   H7S18703   1.087   2.659   6.888 -0.3667 -0.9120 -0.1010
  166SAPE   C2818704   1.216   2.582   7.036 -0.2264  1.0643 -0.3398
  166SAPE   H8R18705   1.322   2.568   7.061 -0.3232  2.1918  0.8068
  166SAPE   C2918706   1.134   2.578   7.145  0.1898 -1.1424  0.2085
  166SAPE   H9R18707   1.177   2.552   7.243 -1.2363  1.7211  1.7077
  166SAPE  C21018708   0.984   2.616   7.145 -0.0718  0.1036  0.0138
  166SAPE  H10R18709   0.952   2.618   7.038  1.3310  0.0417 -0.4199
  166SAPE  H10S18710   0.971   2.719   7.184 -0.2971  0.2498 -0.4434
  166SAPE  C21118711   0.910   2.507   7.212  0.4443  0.5760  0.3515
  166SAPE  H11R18712   0.902   2.409   7.163  1.2309  0.9107 -0.4558
  166SAPE  C21218713   0.850   2.520   7.331  0.2666  0.5197  0.1165
  166SAPE  H12R18714   0.790   2.435   7.367  0.9064  0.1250  0.2695
  166SAPE  C21318715   0.848   2.638   7.422  0.6514  0.4797 -0.1460
  166SAPE  H13R18716   0.756   2.638   7.483 -0.0078 -1.4876 -1.0566
  166SAPE  H13S18717   0.846   2.731   7.362 -0.4920 -0.0045 -0.8825
  166SAPE  C21418718   0.968   2.650   7.521 -0.0063 -0.6298 -0.1420
  166SAPE  H14R18719   1.064   2.687   7.482 -0.3039  1.0124  0.5976
  166SAPE  C21518720   0.968   2.635   7.658  0.0524 -0.2583 -0.1671
  166SAPE  H15R18721   1.059   2.661   7.713  0.1356  0.1528 -0.4902
  166SAPE  C21618722   0.849   2.597   7.737  0.5125  0.5799 -0.2152
  166SAPE  H16R18723   0.756   2.570   7.681  0.0922 -0.3642  0.9025
  166SAPE  H16S18724   0.833   2.684   7.804  0.3775  0.2630  0.1642
  166SAPE  C21718725   0.883   2.480   7.831  0.2775  0.6848  0.0451
  166SAPE  H17R18726   0.821   2.501   7.921 -1.3307 -1.3810 -0.5119
  166SAPE  H17S18727   0.990   2.462   7.855  0.2668 -2.0081 -1.4806
  166SAPE  C21818728   0.834   2.348   7.767  0.3074 -0.0661 -0.5906
  166SAPE  H18R18729   0.914   2.330   7.693 -0.9081 -1.6453 -1.5987
  166SAPE  H18S18730   0.741   2.351   7.707  0.0573 -0.1308 -0.2128
  166SAPE  C21918731   0.813   2.240   7.871 -0.9584 -0.4248 -0.0004
  166SAPE  H19R18732   0.793   2.145   7.817  0.1064 -0.3787 -0.4952
  166SAPE  H19S18733   0.726   2.266   7.935  0.1625 -1.3025  1.9638
  166SAPE  C22018734   0.933   2.214   7.968 -0.5808 -0.8332  0.7530
  166SAPE  H20R18735   0.906   2.122   8.025 -0.6417 -2.2256 -1.4180
  166SAPE  H20S18736   0.959   2.300   8.034  1.3082 -1.0375  0.3252
  166SAPE  H20T18737   1.023   2.175   7.917  0.4848 -0.2631  2.1182
  166SAPE   C3318738   0.743   2.569   6.827  0.9328  0.1665 -0.6214
  166SAPE   H3X18739   0.821   2.497   6.860 -0.1139 -0.8180 -0.2275
  166SAPE   H3Y18740   0.683   2.514   6.751  0.1092  0.2048 -0.0122
  166SAPE   C3418741   0.651   2.602   6.943 -0.4018 -0.3167 -0.8526
  166SAPE   H4X18742   0.565   2.668   6.920  0.7259  0.3849 -3.3736
  166SAPE   H4Y18743   0.718   2.642   7.023 -0.6916 -1.0741 -0.2157
  166SAPE   C3518744   0.586   2.483   7.007  0.0540  0.1188  0.1864
  166SAPE   H5X18745   0.667   2.409   7.016  0.9664  1.1303  0.5014
  166SAPE   H5Y18746   0.504   2.444   6.943  0.1438  1.2209 -0.6521
  166SAPE   C3618747   0.528   2.520   7.145  0.1316  0.4051  0.4247
  166SAPE   H6X18748   0.437   2.581   7.127 -0.9337 -1.6444 -1.6041
  166SAPE   H6Y18749   0.591   2.582   7.213  0.3820 -1.2732  1.7828
  166SAPE   C3718750   0.481   2.397   7.236 -0.0464 -0.7365 -0.1146
  166SAPE   H7X18751   0.568   2.334   7.264  1.2273  0.4855 -1.1757
  166SAPE   H7Y18752   0.421   2.327   7.174  1.2992 -0.9712 -1.1744
  166SAPE   C3818753   0.396   2.437   7.357  0.2105 -0.4207 -0.3138
  166SAPE   H8X18754   0.338   2.345   7.381 -2.0815  0.8946 -0.5421
  166SAPE   H8Y18755   0.326   2.515   7.320 -1.5596 -1.5987  0.4150
  166SAPE   C3918756   0.489   2.479   7.469 -0.5763 -0.2606  0.6678
  166SAPE   H9X18757   0.554   2.561   7.433 -1.8151  0.4939  0.0701
  166SAPE   H9Y18758   0.554   2.390   7.474 -0.8849 -0.7367 -2.0184
  166SAPE  C31018759   0.424   2.515   7.609 -0.4581 -0.9024  0.1817
  166SAPE  H10X18760   0.358   2.604   7.605  0.2788 -0.3087  0.7581
  166SAPE  H10Y18761   0.508   2.547   7.675 -1.7088  0.5630  1.1140
  166SAPE  C31118762   0.350   2.396   7.677  0.2054 -0.3929  0.2361
  166SAPE  H11X18763   0.419   2.310   7.663  1.8158  1.0651 -1.1512
  166SAPE  H11Y18764   0.258   2.371   7.619  0.6402 -2.1339  0.2279
  166SAPE  C31218765   0.323   2.433   7.817  0.0323 -0.2154  0.1540
  166SAPE  H12X18766   0.281   2.536   7.813  0.1511 -0.1743 -0.0758
  166SAPE  H12Y18767   0.413   2.434   7.883 -0.3439  1.1312  0.6912
  166SAPE  C31318768   0.222   2.342   7.891  0.0246 -0.7930 -0.5226
  166SAPE  H13X18769   0.243   2.236   7.866  0.3011 -1.1251  1.0262
  166SAPE  H13Y18770   0.120   2.366   7.854 -0.0083  0.0593  0.0990
  166SAPE  C31418771   0.228   2.357   8.051 -0.3576 -0.1876 -0.0275
  166SAPE  H14X18772   0.228   2.463   8.085 -0.5898 -0.3303  0.4398
  166SAPE  H14Y18773   0.330   2.324   8.078 -1.2590 -0.1944  4.0915
  166SAPE  C31518774   0.124   2.278   8.124 -0.3727 -0.0766  0.3770
  166SAPE  H15X18775   0.119   2.175   8.083  3.6570 -0.3578  0.1387
  166SAPE  H15Y18776   0.020   2.312   8.108 -0.1535 -0.4923 -2.3137
  166SAPE  C31618777   0.154   2.260   8.271  0.0011  0.1814  0.3097
  166SAPE  H16X18778   0.226   2.332   8.315  1.4560 -0.9398 -0.1603
  166SAPE  H16Y18779   0.207   2.164   8.288  1.3674  1.0931  1.4636
  166SAPE  C31718780   0.036   2.239   8.375 -0.0538 -0.7565  0.3463
  166SAPE  H17X18781  -0.021   2.151   8.337  1.8923 -1.2144 -1.7374
  166SAPE  H17Y18782  -0.029   2.328   8.358  0.7932 -0.4972 -2.0453
  166SAPE  C31818783   0.084   2.213   8.517  0.2555 -0.0833 -1.2073
  166SAPE  H18X18784   0.129   2.304   8.562  0.9350 -1.0785  0.2016
  166SAPE  H18Y18785   0.154   2.128   8.533 -1.8439 -1.8984 -1.0813
  166SAPE  H18Z18786  -0.001   2.201   8.588  1.5367 -0.3216  0.3478
  167SAPE     N18787   3.277   3.596   6.194 -0.1246  0.2598  0.0132
  167SAPE   HN118788   3.282   3.544   6.105 -4.0979  0.3873 -0.4627
  167SAPE   HN218789   3.325   3.688   6.183  0.5777 -0.0810  0.1450
  167SAPE   HN318790   3.333   3.535   6.258  0.4875  1.0700  0.2754
  167SAPE   C1218791   3.133   3.614   6.232 -0.0350  0.3345 -0.5558
  167SAPE  H12A18792   3.095   3.680   6.151 -0.5766 -1.2464 -1.6621
  167SAPE  H12B18793   3.143   3.667   6.329  1.0225  1.5989 -1.3283
  167SAPE   C1118794   3.056   3.484   6.247  0.5734  0.8452  0.5120
  167SAPE  H11A18795   2.967   3.516   6.305  1.5417  2.6779  1.0804
  167SAPE  H11B18796   3.108   3.404   6.303 -1.7568 -0.9518  0.2462
  167SAPE     P18797   2.971   3.306   6.071  0.1238  0.2766 -0.0153
  167SAPE   O1318798   2.846   3.314   5.991  0.2264  0.1493 -0.2397
  167SAPE   O1418799   3.074   3.222   6.007 -0.5757  0.6490 -0.3605
  167SAPE   O1218800   3.025   3.442   6.115  0.4202  0.3518  0.0323
  167SAPE   O1118801   2.925   3.234   6.206 -0.0908  0.5041  0.1254
  167SAPE    C118802   2.788   3.203   6.214  0.1783  0.3894 -0.4954
  167SAPE    HA18803   2.732   3.299   6.220 -1.0955 -0.2812 -1.2208
  167SAPE    HB18804   2.750   3.151   6.124 -1.2097  1.9817 -0.8869
  167SAPE    C218805   2.755   3.121   6.339  0.7232  0.4958  1.6817
  167SAPE    HS18806   2.645   3.111   6.342  0.7158 -1.4037 -1.1148
  167SAPE   O2118807   2.811   3.185   6.452 -0.0149 -0.6705  0.8650
  167SAPE   C2118808   2.766   3.306   6.495 -0.1159 -0.3435  0.2772
  167SAPE   O2218809   2.676   3.371   6.444  0.0701  0.0047  0.0072
  167SAPE   C2218810   2.863   3.362   6.597 -0.3287 -0.1996 -0.5664
  167SAPE   H2R18811   2.913   3.274   6.644 -3.2326 -0.7584  1.7569
  167SAPE   H2S18812   2.943   3.407   6.534 -0.4609  0.8281 -0.0166
  167SAPE    C318813   2.808   2.973   6.327 -0.1974  0.5478 -0.0722
  167SAPE    HX18814   2.917   2.971   6.309  0.0620  1.4764  1.2174
  167SAPE    HY18815   2.758   2.923   6.242  1.6086 -0.9166 -0.3302
  167SAPE   O3118816   2.771   2.896   6.444 -0.7875 -0.4166  0.0730
  167SAPE   C3118817   2.844   2.904   6.552  0.6094  0.8215  0.3561
  167SAPE   O3218818   2.952   2.957   6.559  0.3430  0.6957  0.4050
  167SAPE   C3218819   2.776   2.832   6.669 -0.3789 -0.1375  0.2243
  167SAPE   H2X18820   2.848   2.823   6.754  0.2605 -1.0698 -0.4002
  167SAPE   H2Y18821   2.740   2.731   6.643  1.5264 -0.4245 -1.5552
  167SAPE   C2318822   2.802   3.468   6.695  0.1717 -0.5478  0.2950
  167SAPE   H3R18823   2.781   3.561   6.639 -0.5360 -1.0989 -0.3737
  167SAPE   H3S18824   2.878   3.504   6.767  0.1836 -1.0998  0.5613
  167SAPE   C2418825   2.692   3.412   6.780  0.0142  0.2665  0.2002
  167SAPE   H4R18826   2.725   3.313   6.819 -1.6325  0.0649  1.1826
  167SAPE   H4S18827   2.607   3.379   6.717  0.9514 -0.3225 -0.7868
  167SAPE   C2518828   2.646   3.501   6.893  0.2529  0.1074  0.4454
  167SAPE   H5R18829   2.587   3.588   6.858  0.3371  0.6546  1.5994
  167SAPE   C2618830   2.668   3.486   7.026  0.4133  0.1022 -0.0904
  167SAPE   H6R18831   2.638   3.569   7.091 -0.6938  0.2844 -0.8046
  167SAPE   C2718832   2.749   3.377   7.096  0.3394 -1.0524 -0.2076
  167SAPE   H7R18833   2.792   3.304   7.023 -0.5206 -0.9677 -0.8210
  167SAPE   H7S18834   2.679   3.311   7.153  0.9463 -2.3077 -0.8635
  167SAPE   C2818835   2.864   3.441   7.169  0.3222  0.0762  0.5027
  167SAPE   H8R18836   2.941   3.498   7.114 -0.7126  0.6964 -0.3407
  167SAPE   C2918837   2.891   3.418   7.299  0.6627 -1.1640 -0.1192
  167SAPE   H9R18838   2.989   3.457   7.331 -0.7598  2.8662 -0.0297
  167SAPE  C21018839   2.817   3.341   7.408  0.2295  0.8869  0.8028
  167SAPE  H10R18840   2.726   3.293   7.368  1.3204 -0.6881  0.0904
  167SAPE  H10S18841   2.792   3.421   7.481 -1.9361  1.1488 -0.1673
  167SAPE  C21118842   2.894   3.223   7.457 -0.1869  0.1281  0.2567
  167SAPE  H11R18843   2.963   3.180   7.383 -1.6008  0.5181 -1.3520
  167SAPE  C21218844   2.884   3.161   7.577  0.0777 -0.6999  0.4212
  167SAPE  H12R18845   2.955   3.078   7.592 -2.2084 -2.4558  2.2557
  167SAPE  C21318846   2.786   3.197   7.691  0.0981  0.2048 -0.4234
  167SAPE  H13R18847   2.697   3.246   7.647 -1.2649 -1.1834  0.7145
  167SAPE  H13S18848   2.836   3.276   7.752  1.9380 -0.9888 -0.2988
  167SAPE  C21418849   2.742   3.086   7.779 -0.1350  0.3790 -1.0217
  167SAPE  H14R18850   2.644   3.043   7.753 -0.0583  0.7863 -2.0404
  167SAPE  C21518851   2.813   3.034   7.879 -0.2430  0.9539 -0.4299
  167SAPE  H15R18852   2.759   2.966   7.947 -0.9814 -1.2145 -2.9918
  167SAPE  C21618853   2.949   3.079   7.931  0.0506  0.2833 -0.2210
  167SAPE  H16R18854   2.912   3.119   8.028  0.6003 -0.9993  0.5451
  167SAPE  H16S18855   2.988   3.169   7.878  1.1757  0.0474  0.1806
  167SAPE  C21718856   3.047   2.959   7.959  0.5532 -0.0401  0.4775
  167SAPE  H17R18857   3.045   2.881   7.880  0.9868  0.8593 -0.4556
  167SAPE  H17S18858   3.022   2.912   8.056  2.2578 -0.9251  0.5362
  167SAPE  C21818859   3.179   3.026   7.999 -0.2176  0.0285  0.2119
  167SAPE  H18R18860   3.243   2.943   8.037 -1.1440 -0.1712  1.3889
  167SAPE  H18S18861   3.157   3.099   8.080  0.4751 -0.0980  0.5243
  167SAPE  C21918862   3.250   3.088   7.881  0.3726  0.6013 -0.0455
  167SAPE  H19R18863   3.187   3.152   7.816  0.5984  0.4574 -0.4086
  167SAPE  H19S18864   3.274   3.003   7.814  1.1881 -0.2703  1.3123
  167SAPE  C22018865   3.387   3.153   7.924 -0.4995 -0.1331  0.5635
  167SAPE  H20R18866   3.368   3.230   8.002 -3.1411  0.3271 -0.4223
  167SAPE  H20S18867   3.436   3.205   7.839 -1.5013  0.1365  0.1283
  167SAPE  H20T18868   3.458   3.079   7.967  0.1222 -0.7080 -1.3746
  167SAPE   C3318869   2.653   2.911   6.732 -0.3484  0.0213 -0.3266
  167SAPE   H3X18870   2.615   2.830   6.797 -1.2958 -0.3064 -1.2637
  167SAPE   H3Y18871   2.567   2.942   6.669 -1.7283  0.9538  1.8990
  167SAPE   C3418872   2.698   3.030   6.809  0.8407 -0.0679  0.8072
  167SAPE   H4X18873   2.752   3.105   6.747  1.2201 -1.8921 -1.2012
  167SAPE   H4Y18874   2.771   3.005   6.889  1.2075  0.1739  0.5541
  167SAPE   C3518875   2.576   3.090   6.864  0.5636  0.6435  0.3723
  167SAPE   H5X18876   2.505   3.113   6.782  1.4618 -0.4230 -0.7419
  167SAPE   H5Y18877   2.601   3.186   6.915  1.1626  0.3556  0.6335
  167SAPE   C3618878   2.494   3.012   6.968 -0.3125 -0.3975  0.6479
  167SAPE   H6X18879   2.489   2.903   6.948 -0.5507  0.0841 -2.2829
  167SAPE   H6Y18880   2.392   3.056   6.965 -0.8287 -1.3892  2.3105
  167SAPE   C3718881   2.557   3.020   7.106  0.2278 -0.0889 -0.3252
  167SAPE   H7X18882   2.614   3.112   7.132  1.3611 -0.7330 -0.4498
  167SAPE   H7Y18883   2.628   2.935   7.116  2.2899  1.2266 -2.5620
  167SAPE   C3818884   2.449   3.011   7.212  0.1589  0.3160 -0.5670
  167SAPE   H8X18885   2.368   2.940   7.184  0.1057  0.4803 -0.8351
  167SAPE   H8Y18886   2.378   3.097   7.212 -0.6366 -0.3073 -2.2913
  167SAPE   C3918887   2.499   2.976   7.351  0.2374  0.1458 -1.0467
  167SAPE   H9X18888   2.579   3.044   7.386 -0.0741  0.8613 -1.7024
  167SAPE   H9Y18889   2.558   2.882   7.348  0.1054 -0.2060  2.6547
  167SAPE  C31018890   2.386   2.972   7.459 -0.5042 -0.1381  0.4611
  167SAPE  H10X18891   2.297   2.908   7.439 -1.0392  0.1698  1.7668
  167SAPE  H10Y18892   2.341   3.073   7.467  0.7569  0.4617  0.2093
  167SAPE  C31118893   2.450   2.954   7.601 -0.5748  1.0113  0.5675
  167SAPE  H11X18894   2.477   3.057   7.633 -0.4488  0.3880  2.6041
  167SAPE  H11Y18895   2.540   2.889   7.604 -0.3596  1.2125 -0.8862
  167SAPE  C31218896   2.347   2.903   7.697  0.4574  0.0455  0.5967
  167SAPE  H12X18897   2.315   2.800   7.669 -1.5136  1.1146 -1.5070
  167SAPE  H12Y18898   2.257   2.967   7.680 -0.8226 -2.0075 -1.0141
  167SAPE  C31318899   2.386   2.904   7.847  0.0952 -0.6233  0.2671
  167SAPE  H13X18900   2.287   2.911   7.899 -0.3476  1.4876 -0.7507
  167SAPE  H13Y18901   2.441   2.999   7.867  0.3685 -0.0962 -2.5978
  167SAPE  C31418902   2.455   2.775   7.886  0.0845  0.6474 -0.4741
  167SAPE  H14X18903   2.549   2.776   7.827 -0.8177  2.4414 -1.9745
  167SAPE  H14Y18904   2.387   2.691   7.862 -1.7527  2.0930 -0.5334
  167SAPE  C31518905   2.501   2.765   8.031  0.5697  0.0092  0.0746
  167SAPE  H15X18906   2.410   2.753   8.094 -0.9470  2.1579 -1.5747
  167SAPE  H15Y18907   2.540   2.862   8.070 -0.4455  0.0853  0.9624
  167SAPE  C31618908   2.606   2.655   8.043 -0.0178  0.0190 -0.5277
  167SAPE  H16X18909   2.682   2.667   7.962 -0.1065 -0.7216 -0.7324
  167SAPE  H16Y18910   2.555   2.559   8.017 -1.9828  0.3013  1.8997
  167SAPE  C31718911   2.680   2.657   8.178  0.6138  0.0448  0.5732
  167SAPE  H17X18912   2.724   2.555   8.178 -1.9245 -1.1629 -1.8753
  167SAPE  H17Y18913   2.608   2.688   8.256  0.2998  2.3155 -0.5318
  167SAPE  C31818914   2.797   2.759   8.186 -0.0313  0.3429 -0.5370
  167SAPE  H18X18915   2.752   2.858   8.213 -0.4909 -0.3706  1.4589
  167SAPE  H18Y18916   2.847   2.757   8.087  0.8715 -1.3075 -0.0734
  167SAPE  H18Z18917   2.870   2.739   8.267 -1.2743 -0.0661  0.5190
  168SAPE     N18918   4.328   2.976   6.626 -0.2050  0.0152  0.6336
  168SAPE   HN118919   4.318   2.908   6.704 -0.9655 -0.9910 -0.3145
  168SAPE   HN218920   4.411   3.035   6.647  0.2940 -0.8181  1.0512
  168SAPE   HN318921   4.243   3.034   6.612 -0.4797 -0.4853  0.1916
  168SAPE   C1218922   4.359   2.885   6.503 -0.4184 -0.7640  0.1290
  168SAPE  H12A18923   4.460   2.843   6.517  0.0787  0.3714  0.1127
  168SAPE  H12B18924   4.382   2.955   6.419 -0.4878 -0.3757  0.4271
  168SAPE   C1118925   4.246   2.792   6.461  0.2767 -0.6727  0.5187
  168SAPE  H11A18926   4.235   2.704   6.529 -1.1048 -0.3618  0.7184
  168SAPE  H11B18927   4.277   2.745   6.365 -0.8874  0.6405 -0.5313
  168SAPE     P18928   3.973   2.826   6.406  0.0642 -0.0748 -0.0433
  168SAPE   O1318929   3.894   2.950   6.392 -0.7615  0.0717  0.2436
  168SAPE   O1418930   3.976   2.741   6.284  0.6156 -0.0592  0.3836
  168SAPE   O1218931   4.119   2.858   6.439  0.4972 -0.1610  0.2666
  168SAPE   O1118932   3.919   2.744   6.531  0.0803  0.0875 -0.9011
  168SAPE    C118933   3.946   2.786   6.660 -0.7067  0.6700  0.1738
  168SAPE    HA18934   4.007   2.878   6.665 -2.1487  1.7196 -0.7802
  168SAPE    HB18935   3.848   2.821   6.701 -1.8218 -1.3003 -0.6648
  168SAPE    C218936   4.007   2.682   6.756 -0.9783  0.3253  0.5180
  168SAPE    HS18937   4.089   2.641   6.694 -1.5926 -1.6000  0.9093
  168SAPE   O2118938   3.901   2.594   6.793  0.5658  0.7742  0.4162
  168SAPE   C2118939   3.935   2.464   6.797  0.1287 -0.2255 -0.3454
  168SAPE   O2218940   4.048   2.421   6.777  0.3246 -0.1941 -0.1915
  168SAPE   C2218941   3.821   2.374   6.830 -0.5607  0.7225  0.2232
  168SAPE   H2R18942   3.738   2.387   6.757 -1.5518 -0.1288  1.1713
  168SAPE   H2S18943   3.853   2.268   6.824 -0.1082  0.8399  0.5307
  168SAPE    C318944   4.056   2.748   6.880 -0.6432 -0.7786 -0.3822
  168SAPE    HX18945   3.973   2.755   6.954 -1.7288 -1.7482 -1.4680
  168SAPE    HY18946   4.090   2.852   6.861  1.2257 -1.2870 -0.0227
  168SAPE   O3118947   4.162   2.667   6.932 -0.0670  0.6804 -0.7878
  168SAPE   C3118948   4.286   2.674   6.880  0.2544 -0.7974 -0.5928
  168SAPE   O3218949   4.309   2.746   6.787  0.1626 -0.1759  0.3272
  168SAPE   C3218950   4.378   2.598   6.971 -0.0494  0.4709 -0.0634
  168SAPE   H2X18951   4.475   2.588   6.916  1.1043  0.0646  1.9402
  168SAPE   H2Y18952   4.335   2.497   6.990 -0.0062  0.7441  1.6369
  168SAPE   C2318953   3.760   2.404   6.967  0.5028  0.9996  0.0963
  168SAPE   H3R18954   3.655   2.373   6.982  0.1160 -0.5886 -4.3157
  168SAPE   H3S18955   3.761   2.514   6.986  0.7289  1.4616 -2.2140
  168SAPE   C2418956   3.843   2.345   7.086  0.2557 -0.3221  0.1712
  168SAPE   H4R18957   3.844   2.234   7.073  1.8621 -0.4654  1.2616
  168SAPE   H4S18958   3.781   2.364   7.177 -0.1371 -0.5934 -0.0316
  168SAPE   C2518959   3.984   2.391   7.089  0.1068  0.4017  0.8682
  168SAPE   H5R18960   4.050   2.351   7.011  0.2016  1.2378  0.5079
  168SAPE   C2618961   4.036   2.480   7.176  0.6941 -0.0981 -0.0138
  168SAPE   H6R18962   4.141   2.502   7.154  0.2164  2.3509 -0.0822
  168SAPE   C2718963   3.967   2.553   7.286 -0.5182 -0.6569  0.5995
  168SAPE   H7R18964   4.009   2.525   7.385  1.6886  0.5544  0.0744
  168SAPE   H7S18965   3.858   2.532   7.293 -0.5991 -0.3635  0.2792
  168SAPE   C2818966   4.007   2.696   7.259  0.5809 -0.2381  0.5205
  168SAPE   H8R18967   4.056   2.721   7.164 -1.6746 -0.4997 -0.7841
  168SAPE   C2918968   3.991   2.796   7.353 -0.1499  0.6589  0.3522
  168SAPE   H9R18969   3.996   2.901   7.321 -0.9422  0.9120  1.0214
  168SAPE  C21018970   3.933   2.781   7.496  0.3947 -0.0093 -0.6321
  168SAPE  H10R18971   3.902   2.675   7.503  1.1532 -0.2915 -1.3916
  168SAPE  H10S18972   3.838   2.839   7.499 -0.5327 -1.4962  0.0238
  168SAPE  C21118973   4.031   2.811   7.597  0.3730  0.2360  0.4836
  168SAPE  H11R18974   4.118   2.743   7.602  0.9789  0.9464 -0.1214
  168SAPE  C21218975   4.035   2.923   7.663  0.0345 -0.2632  0.0682
  168SAPE  H12R18976   4.095   2.933   7.755 -1.3136  1.1593  0.8334
  168SAPE  C21318977   3.927   3.031   7.641  0.4127 -0.0734  0.5107
  168SAPE  H13R18978   3.844   2.997   7.707 -0.4550 -0.6836 -0.8313
  168SAPE  H13S18979   3.895   3.042   7.535  3.4949  1.9569 -0.3432
  168SAPE  C21418980   3.989   3.161   7.677  0.1748 -0.1863 -0.3206
  168SAPE  H14R18981   4.097   3.174   7.660  0.5409 -1.2555  1.0193
  168SAPE  C21518982   3.922   3.255   7.739 -0.1095 -0.1925  0.5130
  168SAPE  H15R18983   3.971   3.345   7.779  0.1864  0.2616 -0.8186
  168SAPE  C21618984   3.780   3.242   7.789 -0.0735 -0.1580 -0.0325
  168SAPE  H16R18985   3.721   3.169   7.731  2.3434 -3.0673  0.9144
  168SAPE  H16S18986   3.736   3.344   7.787  0.5738  0.1443  0.4913
  168SAPE  C21718987   3.784   3.183   7.929  0.2111 -0.3599 -0.4501
  168SAPE  H17R18988   3.852   3.095   7.925 -1.0862 -1.4016 -0.0940
  168SAPE  H17S18989   3.681   3.149   7.950  0.9206 -1.1360  2.2026
  168SAPE  C21818990   3.817   3.281   8.045 -0.0854 -0.3538  0.5561
  168SAPE  H18R18991   3.775   3.380   8.017  1.0909  1.2371  3.8917
  168SAPE  H18S18992   3.928   3.285   8.058  0.1895 -1.2543 -1.2453
  168SAPE  C21918993   3.751   3.242   8.172  0.3274  0.1048 -0.4418
  168SAPE  H19R18994   3.641   3.243   8.159 -0.2262 -1.0893  3.1793
  168SAPE  H19S18995   3.783   3.322   8.243 -0.3280 -1.3904  1.6284
  168SAPE  C22018996   3.804   3.114   8.226 -0.5062  1.4933  0.3050
  168SAPE  H20R18997   3.912   3.116   8.254 -1.2019 -0.5266  3.6126
  168SAPE  H20S18998   3.788   3.038   8.147 -3.7285  2.6432 -0.2796
  168SAPE  H20T18999   3.744   3.081   8.313  1.9457 -2.1728  0.8510
  168SAPE   C3319000   4.396   2.670   7.104  0.4975  0.4180 -0.1975
  168SAPE   H3X19001   4.304   2.724   7.134  0.4827 -0.8894  2.4120
  168SAPE   H3Y19002   4.477   2.746   7.095 -0.7282  1.5956 -1.8582
  168SAPE   C3419003   4.444   2.569   7.208 -0.0170 -0.2033 -0.7158
  168SAPE   H4X19004   4.540   2.521   7.183 -0.4237 -1.7472  0.5191
  168SAPE   H4Y19005   4.364   2.491   7.214  0.5411 -0.8173 -1.1724
  168SAPE   C3519006   4.452   2.628   7.355  0.2229 -0.0772  1.6229
  168SAPE   H5X19007   4.351   2.662   7.387  0.3872  3.8158 -1.2444
  168SAPE   H5Y19008   4.508   2.723   7.343 -0.3301  0.2331  1.4442
  168SAPE   C3619009   4.497   2.524   7.461 -0.6798  0.5526 -0.5301
  168SAPE   H6X19010   4.597   2.486   7.429  0.3516  0.7552  2.1902
  168SAPE   H6Y19011   4.432   2.435   7.456  0.1513 -0.3036  2.1558
  168SAPE   C3719012   4.496   2.572   7.607  0.3349 -0.2481  0.3368
  168SAPE   H7X19013   4.405   2.635   7.611  1.7524  1.8236  1.1896
  168SAPE   H7Y19014   4.573   2.649   7.627 -0.4591  0.2236  1.7044
  168SAPE   C3819015   4.507   2.465   7.707 -0.2977  1.0363 -0.3628
  168SAPE   H8X19016   4.606   2.414   7.704 -0.2703  1.0390  0.3478
  168SAPE   H8Y19017   4.427   2.389   7.694  0.3238  0.3812 -0.5182
  168SAPE   C3919018   4.495   2.521   7.851 -0.3379  0.3574 -0.4582
  168SAPE   H9X19019   4.418   2.602   7.845  1.1816  1.7665 -2.1974
  168SAPE   H9Y19020   4.588   2.572   7.883 -0.0083  1.1936 -2.5776
  168SAPE  C31019021   4.451   2.412   7.954  0.1752 -0.1540 -0.5444
  168SAPE  H10X19022   4.366   2.352   7.915  0.0170 -0.2508 -0.0551
  168SAPE  H10Y19023   4.425   2.461   8.050 -0.0288 -1.2091 -0.0457
  168SAPE  C31119024   4.559   2.310   7.985  0.2259 -0.8717 -0.0244
  168SAPE  H11X19025   4.661   2.354   7.993 -0.0238 -0.6062  2.6246
  168SAPE  H11Y19026   4.571   2.240   7.899 -2.9115 -0.1531 -1.1761
  168SAPE  C31219027   4.542   2.236   8.116  0.1914 -1.3637 -0.0726
  168SAPE  H12X19028   4.444   2.187   8.099  0.3335 -1.4767 -0.5673
  168SAPE  H12Y19029   4.536   2.295   8.210  0.2260 -1.7224  0.1566
  168SAPE  C31319030   4.655   2.131   8.135  0.4053 -0.2274  0.0499
  168SAPE  H13X19031   4.751   2.167   8.176  1.8600 -2.6342 -1.0303
  168SAPE  H13Y19032   4.684   2.092   8.035 -1.0827 -2.7649  0.5144
  168SAPE  C31419033   4.598   2.008   8.216  0.2295  0.3984  0.2087
  168SAPE  H14X19034   4.504   1.980   8.165  1.1061  0.3908 -1.4726
  168SAPE  H14Y19035   4.579   2.046   8.319  0.5341  1.7049 -0.1984
  168SAPE  C31519036   4.696   1.894   8.240  0.4519  0.6278 -0.4293
  168SAPE  H15X19037   4.644   1.812   8.295  1.1556  0.3871 -0.1173
  168SAPE  H15Y19038   4.776   1.924   8.310  1.4256 -0.0276 -1.2352
  168SAPE  C31619039   4.755   1.831   8.113  0.5166  0.1998 -0.1249
  168SAPE  H16X19040   4.802   1.912   8.053 -0.7512  0.9741 -0.0985
  168SAPE  H16Y19041   4.669   1.788   8.058 -0.3936 -1.4351  2.4066
  168SAPE  C31719042   4.851   1.709   8.140  1.0557  0.7224  0.5141
  168SAPE  H17X19043   4.916   1.734   8.226  0.3126  2.2387  0.6561
  168SAPE  H17Y19044   4.924   1.693   8.057  0.4067 -1.1242  0.2493
  168SAPE  C31819045   4.773   1.573   8.160  0.3725 -0.2162  0.4597
  168SAPE  H18X19046   4.726   1.564   8.260  1.4269 -2.8472  0.8011
  168SAPE  H18Y19047   4.844   1.488   8.146  0.0487 -0.5585  0.8709
  168SAPE  H18Z19048   4.702   1.567   8.075  0.2100  1.4887  0.4505
  169SAPE     N19049   3.209   4.617   6.278 -0.0550  0.5548  0.1569
  169SAPE   HN119050   3.312   4.603   6.285 -0.2525 -0.9074  0.4700
  169SAPE   HN219051   3.194   4.649   6.181 -0.1266  2.9278  0.9038
  169SAPE   HN319052   3.190   4.694   6.344  0.3180 -0.2625  1.2604
  169SAPE   C1219053   3.126   4.501   6.321  0.1805 -0.0443  0.3157
  169SAPE  H12A19054   3.021   4.533   6.305  0.4171  0.3946 -0.4643
  169SAPE  H12B19055   3.134   4.486   6.430  0.1366  2.9130  0.8014
  169SAPE   C1119056   3.174   4.372   6.244 -0.2373  0.0402  0.6115
  169SAPE  H11A19057   3.155   4.374   6.135 -1.4882 -0.1270  0.8066
  169SAPE  H11B19058   3.119   4.280   6.274 -1.1087  0.6106  0.8035
  169SAPE     P19059   3.389   4.217   6.243 -0.0485 -0.1609 -0.1048
  169SAPE   O1319060   3.336   4.164   6.113 -0.2123  0.2702 -0.0711
  169SAPE   O1419061   3.534   4.246   6.240 -0.3397  0.3324 -0.1429
  169SAPE   O1219062   3.311   4.350   6.275  0.6361 -0.1549  0.5624
  169SAPE   O1119063   3.348   4.126   6.366 -0.4620 -0.3024  0.0260
  169SAPE    C119064   3.357   4.191   6.499 -0.3218 -0.2258  0.8228
  169SAPE    HA19065   3.432   4.273   6.509  0.2525 -0.9515  2.8561
  169SAPE    HB19066   3.257   4.238   6.512 -0.3058 -0.4997  2.0224
  169SAPE    C219067   3.378   4.103   6.624 -0.2657 -0.0306 -0.6537
  169SAPE    HS19068   3.339   4.166   6.707  0.5359  0.7291 -0.8422
  169SAPE   O2119069   3.515   4.066   6.642  0.2100 -0.1795 -0.3062
  169SAPE   C2119070   3.599   4.156   6.689  0.6518  0.4200 -0.0674
  169SAPE   O2219071   3.581   4.273   6.698  0.3633 -0.1330 -0.2981
  169SAPE   C2219072   3.724   4.087   6.726  0.1262 -0.3488 -0.0914
  169SAPE   H2R19073   3.767   4.035   6.638  1.3257 -1.2592  0.9773
  169SAPE   H2S19074   3.798   4.169   6.740 -1.6447  1.9842 -3.1791
  169SAPE    C319075   3.300   3.966   6.610  0.3699 -0.2483  0.3635
  169SAPE    HX19076   3.368   3.897   6.555  3.1705  2.1748  0.5090
  169SAPE    HY19077   3.217   3.984   6.539  1.7712 -0.3117 -1.3890
  169SAPE   O3119078   3.254   3.904   6.738 -0.1481  0.0459  0.0197
  169SAPE   C3119079   3.154   3.976   6.795  0.6978 -0.4791 -0.1432
  169SAPE   O3219080   3.078   4.048   6.733  0.4908 -0.1724 -0.3236
  169SAPE   C3219081   3.142   3.953   6.950  1.3952 -0.1514  0.8526
  169SAPE   H2X19082   3.195   4.031   7.009 -0.9593  0.7817  1.8598
  169SAPE   H2Y19083   3.189   3.852   6.961 -2.3283 -1.9541  1.8415
  169SAPE   C2319084   3.712   3.994   6.847  0.4000 -1.1467  0.2898
  169SAPE   H3R19085   3.809   3.941   6.853  0.9249 -0.3238 -0.8138
  169SAPE   H3S19086   3.624   3.925   6.846  1.1383 -2.0970 -0.0822
  169SAPE   C2419087   3.694   4.081   6.976 -0.3306  0.1688  0.3553
  169SAPE   H4R19088   3.591   4.117   6.958 -1.5606 -1.3555  3.5769
  169SAPE   H4S19089   3.760   4.171   6.968 -0.7152  0.2504 -3.6192
  169SAPE   C2519090   3.698   3.997   7.110  0.6751 -0.4269 -0.4079
  169SAPE   H5R19091   3.712   3.889   7.099  0.7797 -0.4194 -0.3443
  169SAPE   C2619092   3.705   4.058   7.231 -0.8324  0.8323 -0.6922
  169SAPE   H6R19093   3.715   4.001   7.324 -0.5421  1.7748 -0.1286
  169SAPE   C2719094   3.692   4.203   7.265 -0.0145 -0.4572  0.5448
  169SAPE   H7R19095   3.648   4.219   7.366  1.1978 -0.3250  1.0654
  169SAPE   H7S19096   3.611   4.242   7.199 -0.1940  2.4429  2.3134
  169SAPE   C2819097   3.816   4.288   7.254 -1.0216  0.1678 -1.1950
  169SAPE   H8R19098   3.858   4.292   7.152  2.6973  1.8388  0.1954
  169SAPE   C2919099   3.893   4.340   7.352  0.1258  0.2407 -0.2243
  169SAPE   H9R19100   3.979   4.403   7.327  0.3304 -0.5441 -1.6412
  169SAPE  C21019101   3.869   4.333   7.500  0.2886 -0.2050 -0.0569
  169SAPE  H10R19102   3.785   4.400   7.528  0.3358 -0.3043  0.3235
  169SAPE  H10S19103   3.958   4.380   7.546  1.3521  0.0191 -2.2247
  169SAPE  C21119104   3.849   4.194   7.551  0.4366  0.7146 -0.1369
  169SAPE  H11R19105   3.884   4.116   7.481 -1.7041  1.0279 -1.6844
  169SAPE  C21219106   3.793   4.150   7.671 -0.2813  0.2257  0.2144
  169SAPE  H12R19107   3.787   4.042   7.686  1.2996 -0.4424 -3.0910
  169SAPE  C21319108   3.736   4.250   7.774 -0.2350 -0.1787  0.2011
  169SAPE  H13R19109   3.787   4.349   7.770 -0.5824 -0.0254 -0.8965
  169SAPE  H13S19110   3.778   4.203   7.865 -0.1335 -0.9887 -0.2595
  169SAPE  C21419111   3.591   4.259   7.764  0.6051 -0.1231  0.1277
  169SAPE  H14R19112   3.541   4.229   7.671 -1.7856 -1.0018  1.6173
  169SAPE  C21519113   3.514   4.293   7.868 -0.2940 -0.5083 -0.0427
  169SAPE  H15R19114   3.405   4.277   7.867 -0.3711 -0.1448  1.0263
  169SAPE  C21619115   3.563   4.339   8.004 -0.3123  0.5963  0.2876
  169SAPE  H16R19116   3.536   4.444   8.029  2.4751  0.8347  2.8002
  169SAPE  H16S19117   3.673   4.350   8.010 -0.2618  1.6773 -1.8059
  169SAPE  C21719118   3.520   4.247   8.123  0.8135  0.2384 -0.1512
  169SAPE  H17R19119   3.440   4.175   8.094  0.8555 -0.8450  2.2352
  169SAPE  H17S19120   3.481   4.314   8.203  4.5525  1.9508  0.4346
  169SAPE  C21819121   3.628   4.166   8.187  0.3316 -0.0674 -0.3939
  169SAPE  H18R19122   3.693   4.242   8.236  0.4578 -0.6655  0.3996
  169SAPE  H18S19123   3.675   4.106   8.106  1.7773 -0.5966  0.7666
  169SAPE  C21919124   3.579   4.083   8.301 -0.0107  0.0582  0.6210
  169SAPE  H19R19125   3.503   4.015   8.258 -1.5917  1.5791  0.9216
  169SAPE  H19S19126   3.534   4.151   8.376 -1.4297 -0.3095  0.1341
  169SAPE  C22019127   3.698   4.000   8.366  0.1747 -0.3737  0.1816
  169SAPE  H20R19128   3.653   3.936   8.445 -2.3463 -0.4814 -1.2353
  169SAPE  H20S19129   3.772   4.062   8.420  0.5942 -1.3131  0.7103
  169SAPE  H20T19130   3.742   3.941   8.283  0.9123  2.0901 -1.2921
  169SAPE   C3319131   3.006   3.959   7.014 -0.4547  0.6048 -0.0301
  169SAPE   H3X19132   2.948   3.878   6.964  0.9521 -0.0180 -0.7015
  169SAPE   H3Y19133   2.952   4.056   7.005 -0.0338  0.9705  1.2024
  169SAPE   C3419134   3.008   3.925   7.165  0.1179 -0.2781  0.9315
  169SAPE   H4X19135   3.019   4.013   7.232 -0.1743 -1.2940  2.3556
  169SAPE   H4Y19136   3.094   3.855   7.179  1.6649  0.7555 -2.2898
  169SAPE   C3519137   2.870   3.854   7.202  0.9373  0.5728 -0.3057
  169SAPE   H5X19138   2.876   3.761   7.141  2.3632  0.7639 -0.5004
  169SAPE   H5Y19139   2.781   3.918   7.186 -0.2966 -0.6988  1.1906
  169SAPE   C3619140   2.878   3.807   7.347  0.3138 -0.5154 -0.4156
  169SAPE   H6X19141   2.899   3.892   7.415 -2.3922 -1.3959  1.7057
  169SAPE   H6Y19142   2.951   3.723   7.350 -1.5943 -2.3403 -2.0694
  169SAPE   C3719143   2.746   3.739   7.410 -0.0501  0.3604  0.0047
  169SAPE   H7X19144   2.792   3.695   7.502  1.3137  0.3298 -0.6629
  169SAPE   H7Y19145   2.718   3.659   7.339  0.9873  0.6215 -0.7269
  169SAPE   C3819146   2.642   3.839   7.447  0.6163 -0.3737  0.1032
  169SAPE   H8X19147   2.607   3.879   7.350  0.0824 -0.3073  0.3166
  169SAPE   H8Y19148   2.686   3.923   7.506  1.5619 -1.5652  1.1587
  169SAPE   C3919149   2.521   3.769   7.520  0.3846  0.0337 -0.1549
  169SAPE   H9X19150   2.493   3.677   7.465 -1.1663 -0.2781  1.0723
  169SAPE   H9Y19151   2.440   3.842   7.499 -0.6360 -1.0705 -0.1724
  169SAPE  C31019152   2.550   3.744   7.671 -0.0646  0.0190 -0.3013
  169SAPE  H10X19153   2.587   3.836   7.721  2.2569 -2.0517  2.0820
  169SAPE  H10Y19154   2.629   3.666   7.666 -2.0897 -2.1307 -0.2546
  169SAPE  C31119155   2.433   3.686   7.740  0.0181  0.7247  0.7508
  169SAPE  H11X19156   2.476   3.641   7.832  1.2442 -1.9075 -0.9605
  169SAPE  H11Y19157   2.397   3.589   7.700 -1.0144  2.2857 -2.4609
  169SAPE  C31219158   2.314   3.778   7.776  0.4318  0.1990  0.3537
  169SAPE  H12X19159   2.248   3.794   7.689  0.6237 -0.7482  0.0178
  169SAPE  H12Y19160   2.357   3.878   7.802 -2.4908  1.6144  0.0831
  169SAPE  C31319161   2.220   3.741   7.896 -0.1655  0.4881  1.2003
  169SAPE  H13X19162   2.188   3.637   7.874  1.2426  0.7592 -3.1856
  169SAPE  H13Y19163   2.130   3.804   7.880 -1.2447 -0.6979  2.3985
  169SAPE  C31419164   2.292   3.759   8.032  0.7422 -0.1570  0.1359
  169SAPE  H14X19165   2.318   3.865   8.050 -0.1296  0.0274  0.3810
  169SAPE  H14Y19166   2.391   3.710   8.045 -0.8059 -3.0471  2.1376
  169SAPE  C31519167   2.199   3.703   8.140  0.3761 -0.4363  0.0795
  169SAPE  H15X19168   2.157   3.604   8.116 -4.2842  1.1726  0.5877
  169SAPE  H15Y19169   2.109   3.769   8.146 -0.9329 -2.2047  0.5517
  169SAPE  C31619170   2.253   3.681   8.283 -0.2215 -0.2389  0.1365
  169SAPE  H16X19171   2.271   3.773   8.343 -1.7238 -0.2049  0.5528
  169SAPE  H16Y19172   2.357   3.643   8.268 -0.0076  0.7826 -1.2120
  169SAPE  C31719173   2.172   3.588   8.374  0.4237 -0.2109 -0.0158
  169SAPE  H17X19174   2.163   3.486   8.330 -0.9509 -0.5923  1.0925
  169SAPE  H17Y19175   2.072   3.633   8.385  0.7007  0.4809 -0.2895
  169SAPE  C31819176   2.251   3.582   8.507 -0.1606 -0.0297  0.1865
  169SAPE  H18X19177   2.350   3.531   8.506  0.4936  1.1874  0.2443
  169SAPE  H18Y19178   2.190   3.522   8.577  0.8757 -1.2217  0.1162
  169SAPE  H18Z19179   2.268   3.684   8.548  0.9588 -1.3124  3.1932
  170SAPE     N19180   3.729   3.103   6.520  0.3363  0.3203 -0.0677
  170SAPE   HN119181   3.763   3.110   6.618 -1.0132 -0.5316  0.4900
  170SAPE   HN219182   3.809   3.061   6.468  1.3727  2.5274 -0.3850
  170SAPE   HN319183   3.705   3.201   6.496  1.4117  0.5102 -0.4114
  170SAPE   C1219184   3.604   3.012   6.509 -0.1307 -0.6375  0.5019
  170SAPE  H12A19185   3.611   2.922   6.573 -1.2557 -3.2943 -2.8268
  170SAPE  H12B19186   3.599   2.975   6.404 -1.0006 -1.3341  0.7848
  170SAPE   C1119187   3.479   3.094   6.563  0.0952 -0.2255  0.3856
  170SAPE  H11A19188   3.496   3.149   6.658 -6.0464  0.9603  1.1675
  170SAPE  H11B19189   3.405   3.014   6.584  1.5411 -1.2666  1.7890
  170SAPE     P19190   3.439   3.339   6.480  0.1838  0.5269 -0.1609
  170SAPE   O1319191   3.584   3.366   6.488  0.2795 -0.7130 -0.5144
  170SAPE   O1419192   3.376   3.402   6.362 -0.6391  0.5744  0.5406
  170SAPE   O1219193   3.418   3.184   6.466 -0.0084  0.4127 -0.4498
  170SAPE   O1119194   3.361   3.367   6.623  0.1409 -0.4509  0.2181
  170SAPE    C119195   3.219   3.359   6.627 -0.3919 -0.2195 -0.0458
  170SAPE    HA19196   3.172   3.454   6.594  0.5239  0.9644  1.8624
  170SAPE    HB19197   3.183   3.272   6.568  0.8565 -1.5610  1.0989
  170SAPE    C219198   3.171   3.327   6.770 -0.3834  0.0195  0.0606
  170SAPE    HS19199   3.065   3.349   6.794 -0.7842 -0.8662 -0.7962
  170SAPE   O2119200   3.252   3.394   6.860 -0.0964  0.3624 -0.2704
  170SAPE   C2119201   3.237   3.523   6.884  0.7566 -0.3075  0.3861
  170SAPE   O2219202   3.160   3.605   6.832 -0.0402  0.1323 -0.0905
  170SAPE   C2219203   3.328   3.564   6.995  0.1551 -0.2092  0.0674
  170SAPE   H2R19204   3.409   3.490   7.012  0.9551  0.8380  0.8767
  170SAPE   H2S19205   3.387   3.648   6.953  1.8051 -1.0089  0.6725
  170SAPE    C319206   3.183   3.171   6.799  0.5889 -0.1408  0.8311
  170SAPE    HX19207   3.285   3.127   6.802 -0.2706 -2.1947  2.7711
  170SAPE    HY19208   3.127   3.122   6.718 -0.4883  0.0055  1.4658
  170SAPE   O3119209   3.113   3.142   6.920  0.0288 -0.0309  0.1842
  170SAPE   C3119210   3.191   3.160   7.026  0.4019 -0.9894 -0.9105
  170SAPE   O3219211   3.313   3.178   7.030 -0.6629  0.1868  0.3959
  170SAPE   C3219212   3.118   3.129   7.157  0.2624  0.1973 -0.2599
  170SAPE   H2X19213   3.045   3.208   7.184  0.4210  0.3077 -0.1569
  170SAPE   H2Y19214   3.189   3.133   7.242 -1.4241  1.8731  1.1523
  170SAPE   C2319215   3.253   3.596   7.132 -0.4122  0.3030 -0.4594
  170SAPE   H3R19216   3.195   3.506   7.163  1.7110 -0.7222  0.7673
  170SAPE   H3S19217   3.172   3.670   7.113 -0.2024  0.4042 -0.9889
  170SAPE   C2419218   3.336   3.655   7.245  0.2684  0.3181  0.3557
  170SAPE   H4R19219   3.417   3.587   7.277  0.4799  0.6886  0.6109
  170SAPE   H4S19220   3.267   3.668   7.331  1.6887  1.5428  1.3730
  170SAPE   C2519221   3.398   3.789   7.215 -0.4231 -0.0972 -0.6276
  170SAPE   H5R19222   3.473   3.782   7.135 -1.1192 -2.1965 -1.1496
  170SAPE   C2619223   3.382   3.908   7.287 -0.0382 -0.2086  0.4867
  170SAPE   H6R19224   3.445   3.994   7.262  0.8727 -1.0191 -0.0868
  170SAPE   C2719225   3.295   3.931   7.403 -0.2784 -0.0142 -0.1476
  170SAPE   H7R19226   3.302   3.842   7.470 -0.4092  1.0469  1.3171
  170SAPE   H7S19227   3.191   3.932   7.366  0.4303  0.0428 -2.2799
  170SAPE   C2819228   3.312   4.049   7.493 -0.7770  0.1544 -0.9073
  170SAPE   H8R19229   3.389   4.118   7.456 -0.7879 -0.3492 -1.9244
  170SAPE   C2919230   3.252   4.074   7.610 -0.2121  0.3907 -0.1542
  170SAPE   H9R19231   3.281   4.167   7.660  0.6217  0.0848 -0.0544
  170SAPE  C21019232   3.141   3.991   7.669  0.7524  0.0211 -0.6108
  170SAPE  H10R19233   3.090   3.942   7.583  0.1903 -0.6535  0.0860
  170SAPE  H10S19234   3.065   4.043   7.731  0.2129 -0.7807 -0.5712
  170SAPE  C21119235   3.197   3.885   7.761 -0.3885 -0.4226 -0.9196
  170SAPE  H11R19236   3.234   3.794   7.712  2.1594 -0.9453  1.6760
  170SAPE  C21219237   3.222   3.897   7.894  0.4286  0.5470 -0.2109
  170SAPE  H12R19238   3.275   3.806   7.928  1.6083  0.3818 -2.3127
  170SAPE  C21319239   3.193   4.017   7.982  0.1490  0.7767 -0.2996
  170SAPE  H13R19240   3.113   4.080   7.938  2.4382  2.3008 -2.6137
  170SAPE  H13S19241   3.283   4.080   7.995  1.4863 -1.3184  1.1566
  170SAPE  C21419242   3.154   3.961   8.118  0.6337 -0.3467 -0.1335
  170SAPE  H14R19243   3.100   3.865   8.125 -0.2474  0.1078 -0.6017
  170SAPE  C21519244   3.160   4.033   8.232 -0.5253  0.7632  0.9772
  170SAPE  H15R19245   3.138   3.991   8.331 -1.8631  0.3546  0.5192
  170SAPE  C21619246   3.211   4.173   8.252 -0.2108  0.1172  0.4720
  170SAPE  H16R19247   3.225   4.221   8.153 -1.4932  0.4344  0.4199
  170SAPE  H16S19248   3.313   4.165   8.295  0.3046  1.1831 -0.4970
  170SAPE  C21719249   3.113   4.256   8.337 -0.0679  0.4950 -0.2346
  170SAPE  H17R19250   3.109   4.227   8.444 -1.0287  0.3672 -0.2926
  170SAPE  H17S19251   3.014   4.234   8.290 -0.4460 -1.6920  1.4126
  170SAPE  C21819252   3.136   4.403   8.321  0.4328 -0.3130 -0.0935
  170SAPE  H18R19253   3.080   4.450   8.238 -0.8676 -0.3664  0.7261
  170SAPE  H18S19254   3.243   4.398   8.292  0.5461 -1.5084  0.4552
  170SAPE  C21919255   3.114   4.487   8.452 -0.4990  1.2577 -0.6724
  170SAPE  H19R19256   3.143   4.417   8.533 -4.5523  0.3353  0.2258
  170SAPE  H19S19257   3.004   4.502   8.458 -1.8124 -4.8361 -2.0020
  170SAPE  C22019258   3.191   4.616   8.456  1.0278 -0.1976 -0.3906
  170SAPE  H20R19259   3.290   4.621   8.407  0.2771 -0.3235 -1.9957
  170SAPE  H20S19260   3.200   4.648   8.562 -0.6354 -0.3106 -0.1814
  170SAPE  H20T19261   3.132   4.690   8.398  2.0401 -0.0769 -1.2993
  170SAPE   C3319262   3.049   2.988   7.140 -0.4152 -0.4571  0.2535
  170SAPE   H3X19263   2.970   2.999   7.063 -0.6068 -0.3521  0.4643
  170SAPE   H3Y19264   3.008   2.963   7.240 -0.0265  1.1273  0.8518
  170SAPE   C3419265   3.142   2.878   7.099  0.4781 -0.3123  0.5968
  170SAPE   H4X19266   3.197   2.838   7.187 -0.8852 -0.8181  1.2555
  170SAPE   H4Y19267   3.223   2.910   7.031 -0.1685  2.4384  1.0024
  170SAPE   C3519268   3.071   2.758   7.030 -0.8616 -0.5698  0.1675
  170SAPE   H5X19269   3.140   2.670   7.024 -0.3595 -0.3577  2.1056
  170SAPE   H5Y19270   3.048   2.798   6.929 -0.5523 -0.4187  0.1555
  170SAPE   C3619271   2.933   2.728   7.088  0.5618 -0.5643 -0.1144
  170SAPE   H6X19272   2.876   2.821   7.107 -0.7285 -0.9630 -1.8064
  170SAPE   H6Y19273   2.948   2.695   7.193  0.5534  2.6531  1.0015
  170SAPE   C3719274   2.854   2.620   7.008 -0.3475  0.0113  0.3576
  170SAPE   H7X19275   2.924   2.534   7.015 -0.0454 -0.2570 -3.7796
  170SAPE   H7Y19276   2.846   2.662   6.905 -0.2950  0.6645  0.6142
  170SAPE   C3819277   2.709   2.592   7.055 -0.4256 -0.6547  0.2919
  170SAPE   H8X19278   2.664   2.502   7.007 -0.8154 -0.3693  0.1069
  170SAPE   H8Y19279   2.649   2.682   7.030  0.5568 -0.1627 -0.3846
  170SAPE   C3919280   2.719   2.565   7.203 -0.4353  0.7945 -0.1377
  170SAPE   H9X19281   2.748   2.661   7.252  1.0007 -0.4157  1.5105
  170SAPE   H9Y19282   2.801   2.492   7.217 -0.5158  0.6905 -0.2053
  170SAPE  C31019283   2.594   2.520   7.275 -0.4290  0.2808 -0.5900
  170SAPE  H10X19284   2.538   2.447   7.213  2.3323 -0.5240 -2.3299
  170SAPE  H10Y19285   2.519   2.600   7.290 -0.6801 -0.2308  1.1069
  170SAPE  C31119286   2.631   2.459   7.414 -0.0706 -0.3043  0.1351
  170SAPE  H11X19287   2.720   2.522   7.438  1.8155 -2.1684 -1.4975
  170SAPE  H11Y19288   2.680   2.359   7.411  1.3877  0.3519  0.7336
  170SAPE  C31219289   2.516   2.452   7.506  0.1669  0.0487  0.0637
  170SAPE  H12X19290   2.434   2.401   7.452 -0.8504  0.7825  0.8747
  170SAPE  H12Y19291   2.474   2.550   7.537  0.1932 -0.3808  1.5532
  170SAPE  C31319292   2.549   2.371   7.634 -0.4404  0.0948  0.5157
  170SAPE  H13X19293   2.607   2.441   7.697 -1.3545  0.0812  1.3900
  170SAPE  H13Y19294   2.611   2.283   7.607 -1.9927 -1.1727  0.9202
  170SAPE  C31419295   2.424   2.334   7.729  0.0279  0.9430  0.4195
  170SAPE  H14X19296   2.364   2.258   7.675 -1.3577  2.9240 -0.9909
  170SAPE  H14Y19297   2.361   2.426   7.732 -3.9478 -1.5848  1.8399
  170SAPE  C31519298   2.463   2.278   7.867 -0.4062 -0.1438 -0.3757
  170SAPE  H15X19299   2.522   2.358   7.916  0.3694  0.4777 -2.2318
  170SAPE  H15Y19300   2.533   2.193   7.847 -0.9652 -0.1066 -2.7934
  170SAPE  C31619301   2.350   2.239   7.959 -0.3778  0.2697 -0.4662
  170SAPE  H16X19302   2.290   2.150   7.931  1.5184 -1.1864 -0.1850
  170SAPE  H16Y19303   2.272   2.318   7.959  0.2392  1.0015 -3.3354
  170SAPE  C31719304   2.389   2.220   8.108  0.1351  0.1942  0.0826
  170SAPE  H17X19305   2.470   2.145   8.122  0.2350 -0.0427 -1.5639
  170SAPE  H17Y19306   2.296   2.183   8.156 -0.5392  2.4889  0.6587
  170SAPE  C31819307   2.423   2.351   8.179  0.8357  0.4232 -0.0714
  170SAPE  H18X19308   2.521   2.385   8.140  1.2794 -1.4934 -0.7456
  170SAPE  H18Y19309   2.434   2.326   8.287 -0.3636  1.3860  0.2997
  170SAPE  H18Z19310   2.340   2.424   8.179  0.5863  0.1486  0.3840
  171SAPE     N19311   6.619   2.889   6.445  0.1072  0.5513  0.4445
  171SAPE   HN119312   6.584   2.813   6.506  0.2356  0.6720  0.6733
  171SAPE   HN219313   6.647   2.973   6.501 -0.2245  0.6509  0.4614
  171SAPE   HN319314   6.548   2.919   6.376 -1.1279 -1.8993  0.5502
  171SAPE   C1219315   6.733   2.834   6.359  0.0306  0.6485 -1.1092
  171SAPE  H12A19316   6.747   2.912   6.281 -0.3309  0.6286 -1.1974
  171SAPE  H12B19317   6.695   2.740   6.313  3.3528 -0.9253 -0.9533
  171SAPE   C1119318   6.858   2.804   6.446 -0.1121 -1.0307 -0.1720
  171SAPE  H11A19319   6.939   2.760   6.383  0.0326 -1.3814  0.2587
  171SAPE  H11B19320   6.835   2.731   6.526  0.6554  1.5587  2.5935
  171SAPE     P19321   7.028   3.016   6.434  0.3033  0.0197  0.3088
  171SAPE   O1319322   7.010   3.011   6.287 -0.1947  0.1322 -0.0235
  171SAPE   O1419323   7.035   3.152   6.497  0.0033 -0.1381 -0.2422
  171SAPE   O1219324   6.915   2.925   6.505  0.3904 -0.4602 -0.4632
  171SAPE   O1119325   7.166   2.934   6.455  0.9650 -0.0996 -0.2976
  171SAPE    C119326   7.187   2.825   6.549  0.9202 -0.1513  0.4345
  171SAPE    HA19327   7.096   2.762   6.562  0.7124  0.3323  1.4440
  171SAPE    HB19328   7.271   2.761   6.516 -0.2317 -1.9647  0.8787
  171SAPE    C219329   7.226   2.879   6.686  0.2119  0.8283  0.8279
  171SAPE    HS19330   7.282   2.792   6.726 -0.0631 -0.1773 -0.8777
  171SAPE   O2119331   7.109   2.912   6.763  0.0943 -0.3572  0.0484
  171SAPE   C2119332   7.030   2.812   6.806 -0.2752 -0.3585 -0.1457
  171SAPE   O2219333   7.050   2.694   6.804 -0.0106  0.3587  0.6600
  171SAPE   C2219334   6.894   2.878   6.844  0.2970 -0.4021 -0.0786
  171SAPE   H2R19335   6.835   2.878   6.750 -0.4333  3.4943  0.2165
  171SAPE   H2S19336   6.838   2.804   6.904 -2.6001 -1.8090 -4.1128
  171SAPE    C319337   7.319   2.998   6.684 -1.0828  0.1658 -0.0017
  171SAPE    HX19338   7.275   3.085   6.631 -1.3408  0.5810  0.8912
  171SAPE    HY19339   7.388   2.953   6.609 -1.0795 -0.0241  0.1157
  171SAPE   O3119340   7.379   3.017   6.808 -0.0388  0.0252 -0.4652
  171SAPE   C3119341   7.336   3.122   6.875 -0.6907  0.2233  1.0396
  171SAPE   O3219342   7.258   3.204   6.831  0.0046 -0.5201  0.0451
  171SAPE   C3219343   7.384   3.139   7.017  0.1704 -0.3398  0.3838
  171SAPE   H2X19344   7.318   3.223   7.048 -0.5864 -0.5192 -0.6722
  171SAPE   H2Y19345   7.489   3.175   7.019  0.3797 -0.9170  0.1912
  171SAPE   C2319346   6.910   3.025   6.904 -0.7806 -0.0485  0.0283
  171SAPE   H3R19347   6.973   3.092   6.842 -0.7211  1.5422  1.7232
  171SAPE   H3S19348   6.963   3.026   7.001 -0.7577  3.1314  0.0693
  171SAPE   C2419349   6.774   3.091   6.929 -0.0136 -0.7780  0.1208
  171SAPE   H4R19350   6.712   3.103   6.838  1.0249 -2.6375 -0.9164
  171SAPE   H4S19351   6.793   3.194   6.966  1.5379 -0.5687 -1.1278
  171SAPE   C2519352   6.688   3.002   7.015  0.3773  0.1405 -0.0576
  171SAPE   H5R19353   6.617   2.938   6.959 -1.3985  1.8560  0.1083
  171SAPE   C2619354   6.667   3.004   7.146  0.1799  0.3012 -0.0989
  171SAPE   H6R19355   6.599   2.935   7.198 -0.7912  1.8346  0.7271
  171SAPE   C2719356   6.741   3.098   7.235  0.5881 -0.3932  0.3510
  171SAPE   H7R19357   6.680   3.153   7.310  3.2290  1.7575  1.0972
  171SAPE   H7S19358   6.781   3.182   7.175  2.1817 -1.0846  0.3893
  171SAPE   C2819359   6.864   3.031   7.292 -0.0229  0.1332 -0.5957
  171SAPE   H8R19360   6.916   2.971   7.215  1.0599  2.0824 -1.4583
  171SAPE   C2919361   6.906   3.035   7.419  0.1308  0.2370  0.3176
  171SAPE   H9R19362   7.005   2.992   7.441 -0.1621  0.1981  1.6147
  171SAPE  C21019363   6.842   3.111   7.527 -0.3582  0.3377 -0.4975
  171SAPE  H10R19364   6.740   3.144   7.498 -1.6610 -0.9929  2.1374
  171SAPE  H10S19365   6.898   3.203   7.552 -0.6977  0.1256  1.2006
  171SAPE  C21119366   6.822   3.034   7.658 -0.3129  1.4014  0.2424
  171SAPE  H11R19367   6.789   2.930   7.645  1.0587  1.1008 -1.2641
  171SAPE  C21219368   6.849   3.081   7.778  0.6242 -0.0513 -0.2210
  171SAPE  H12R19369   6.827   3.013   7.862  1.3344 -0.8330 -0.6488
  171SAPE  C21319370   6.904   3.212   7.833 -0.0576 -0.5101 -0.1214
  171SAPE  H13R19371   6.939   3.282   7.754  1.8912 -1.1008  0.1820
  171SAPE  H13S19372   6.996   3.187   7.889  2.5252  0.2856 -3.6891
  171SAPE  C21419373   6.811   3.287   7.928  0.6541  1.0748 -0.0788
  171SAPE  H14R19374   6.755   3.365   7.876  0.1914  0.2248 -0.8906
  171SAPE  C21519375   6.777   3.265   8.057  0.1369 -0.5323 -0.0826
  171SAPE  H15R19376   6.692   3.325   8.092  2.1418  1.8568  0.9826
  171SAPE  C21619377   6.824   3.145   8.131  0.0259  0.6047 -0.4036
  171SAPE  H16R19378   6.912   3.098   8.081 -1.1009 -1.6728 -0.4043
  171SAPE  H16S19379   6.745   3.067   8.142 -0.2229  0.4071 -2.9677
  171SAPE  C21719380   6.884   3.189   8.274  0.4792 -0.0908 -1.1710
  171SAPE  H17R19381   6.806   3.237   8.337 -0.8331  0.1147 -2.8653
  171SAPE  H17S19382   6.967   3.261   8.255  1.3115 -0.8166 -0.3750
  171SAPE  C21819383   6.954   3.080   8.350 -0.6228  0.0447  0.3285
  171SAPE  H18R19384   6.988   3.117   8.449 -0.8833  2.7623 -0.5136
  171SAPE  H18S19385   7.048   3.057   8.295  0.6765  0.2684  2.3479
  171SAPE  C21919386   6.873   2.955   8.365  0.2478 -0.1062 -0.4710
  171SAPE  H19R19387   6.863   2.907   8.265 -3.8766 -0.3815 -0.1010
  171SAPE  H19S19388   6.775   2.972   8.415  0.6893  1.6284 -0.1350
  171SAPE  C22019389   6.941   2.852   8.464  0.4593 -0.2266 -0.6115
  171SAPE  H20R19390   6.975   2.903   8.557  0.1482  0.7117 -0.9973
  171SAPE  H20S19391   7.025   2.795   8.418 -0.5030 -2.3274  0.0864
  171SAPE  H20T19392   6.867   2.777   8.501  2.1317 -2.0398 -0.7616
  171SAPE   C3319393   7.357   3.016   7.102  0.0349 -0.1651  0.3961
  171SAPE   H3X19394   7.433   2.937   7.083 -2.8850 -2.6594 -1.9914
  171SAPE   H3Y19395   7.264   2.963   7.074 -1.4301  2.0722  0.7833
  171SAPE   C3419396   7.355   3.052   7.251  0.5416 -0.6858  0.5223
  171SAPE   H4X19397   7.262   3.108   7.275 -0.3002 -1.5902 -0.4830
  171SAPE   H4Y19398   7.438   3.117   7.285 -0.4595  0.6140  0.5516
  171SAPE   C3519399   7.346   2.922   7.342  0.4172  0.3894 -0.1882
  171SAPE   H5X19400   7.447   2.877   7.339  0.2471 -0.0624  0.6029
  171SAPE   H5Y19401   7.273   2.849   7.299 -0.0451  1.1275 -0.6817
  171SAPE   C3619402   7.302   2.949   7.488  0.0301  0.0688  0.2639
  171SAPE   H6X19403   7.217   3.020   7.486 -0.0360 -0.0066  0.4047
  171SAPE   H6Y19404   7.387   3.002   7.536  0.3090  1.1650 -1.3452
  171SAPE   C3719405   7.247   2.836   7.570 -0.3395 -0.3543  0.0158
  171SAPE   H7X19406   7.326   2.762   7.592 -0.8059 -0.5796  1.0203
  171SAPE   H7Y19407   7.159   2.788   7.522 -0.7071 -1.4497  1.6979
  171SAPE   C3819408   7.201   2.895   7.706  0.1267 -0.0224 -0.4728
  171SAPE   H8X19409   7.103   2.944   7.687  0.4700  0.4060 -1.1912
  171SAPE   H8Y19410   7.263   2.984   7.731 -2.4512  1.7512  0.0596
  171SAPE   C3919411   7.198   2.792   7.823 -0.1845  0.1575  0.1890
  171SAPE   H9X19412   7.288   2.729   7.817  0.8350  1.4049  1.6355
  171SAPE   H9Y19413   7.119   2.715   7.810  1.2410 -1.6236  1.5859
  171SAPE  C31019414   7.198   2.868   7.954 -0.7760 -0.1817 -0.1164
  171SAPE  H10X19415   7.100   2.921   7.963 -1.4240 -1.3198 -0.3042
  171SAPE  H10Y19416   7.280   2.942   7.942  0.7771 -1.9326 -0.7483
  171SAPE  C31119417   7.225   2.785   8.078  0.3677  0.0489  0.1812
  171SAPE  H11X19418   7.138   2.719   8.100 -1.0492  1.4690 -0.8876
  171SAPE  H11Y19419   7.236   2.861   8.158 -1.0113  1.9808 -1.3578
  171SAPE  C31219420   7.353   2.701   8.066  0.7800 -0.5797  0.0569
  171SAPE  H12X19421   7.430   2.739   7.996  0.5265 -1.5161 -0.7483
  171SAPE  H12Y19422   7.317   2.603   8.028 -2.6174 -0.0052  1.4012
  171SAPE  C31319423   7.421   2.672   8.199  0.0842  0.1110 -0.2103
  171SAPE  H13X19424   7.446   2.769   8.248 -0.1835 -0.0774  0.3120
  171SAPE  H13Y19425   7.512   2.608   8.201 -1.3017 -1.9335  0.9256
  171SAPE  C31419426   7.324   2.623   8.313 -0.3763  0.7220  0.4002
  171SAPE  H14X19427   7.230   2.682   8.311  1.2516  3.5038 -0.2649
  171SAPE  H14Y19428   7.365   2.636   8.415 -2.0716  1.1077  1.0710
  171SAPE  C31519429   7.295   2.467   8.300  0.0562 -0.6829  0.1320
  171SAPE  H15X19430   7.219   2.440   8.224  0.5407 -0.2137 -0.5282
  171SAPE  H15Y19431   7.255   2.443   8.401 -2.3291 -1.2301 -0.8878
  171SAPE  C31619432   7.421   2.377   8.279 -0.2702 -0.6581 -0.3578
  171SAPE  H16X19433   7.497   2.394   8.358 -0.1855 -0.9535 -0.3754
  171SAPE  H16Y19434   7.467   2.412   8.185  0.0809  1.9868  0.7080
  171SAPE  C31719435   7.389   2.230   8.279 -0.0282  0.1150  0.0870
  171SAPE  H17X19436   7.295   2.214   8.222 -1.3306  0.9119  1.9380
  171SAPE  H17Y19437   7.346   2.195   8.374  0.0612  0.1021  0.1229
  171SAPE  C31819438   7.506   2.132   8.244  0.4133  0.9908  0.5959
  171SAPE  H18X19439   7.551   2.097   8.339 -0.6485  0.7521  1.0273
  171SAPE  H18Y19440   7.564   2.205   8.183 -0.5333  0.5770 -0.8509
  171SAPE  H18Z19441   7.468   2.048   8.182  2.9134 -0.2203  0.5872
  172SAPE     N19442   6.407   3.436   6.043 -0.5695 -0.3209  0.5039
  172SAPE   HN119443   6.462   3.382   6.113 -1.8323 -3.0233 -0.4415
  172SAPE   HN219444   6.470   3.501   5.992  1.3098 -1.1236  1.6781
  172SAPE   HN319445   6.334   3.491   6.093 -0.3743 -0.5174  1.0188
  172SAPE   C1219446   6.357   3.344   5.939 -0.3452  0.2699  0.0808
  172SAPE  H12A19447   6.446   3.312   5.881 -0.5807 -0.5746  0.1808
  172SAPE  H12B19448   6.300   3.405   5.866  1.7520  0.4102 -1.5589
  172SAPE   C1119449   6.292   3.231   6.008 -0.2555 -0.4064 -0.1115
  172SAPE  H11A19450   6.242   3.167   5.932 -2.5096  0.8236  0.2550
  172SAPE  H11B19451   6.213   3.247   6.084  1.0227 -2.9905  1.9385
  172SAPE     P19452   6.364   3.050   6.179  0.2786 -0.0847  0.1544
  172SAPE   O1319453   6.282   2.952   6.105  0.0845  0.2125 -0.5452
  172SAPE   O1419454   6.485   2.995   6.238  0.3933  0.0391  0.1411
  172SAPE   O1219455   6.398   3.169   6.077  0.3604  0.8877  0.4835
  172SAPE   O1119456   6.274   3.122   6.282  0.2366 -0.1699 -0.2811
  172SAPE    C119457   6.313   3.201   6.393  0.9998  0.1599 -0.1613
  172SAPE    HA19458   6.421   3.201   6.418  0.3646  1.5490  3.0633
  172SAPE    HB19459   6.267   3.301   6.378  1.1976  0.2189 -0.3673
  172SAPE    C219460   6.245   3.146   6.527 -0.1494 -0.5887 -0.2263
  172SAPE    HS19461   6.308   3.057   6.547 -1.1613 -1.9651 -2.6845
  172SAPE   O2119462   6.106   3.107   6.503 -0.0113 -0.2098  0.0995
  172SAPE   C2119463   6.064   3.017   6.584 -0.0262  0.2755  0.3573
  172SAPE   O2219464   6.129   2.945   6.656  0.3482  0.2925 -0.1059
  172SAPE   C2219465   5.912   3.029   6.576  0.5569 -0.5677  0.2408
  172SAPE   H2R19466   5.876   3.130   6.606  1.1844 -0.1118 -0.5345
  172SAPE   H2S19467   5.885   3.018   6.469 -0.5543  1.8539  0.2145
  172SAPE    C319468   6.248   3.262   6.634  0.3185  0.2189  0.6357
  172SAPE    HX19469   6.188   3.345   6.592  1.3646  0.4090 -0.5416
  172SAPE    HY19470   6.351   3.305   6.630  0.3553  0.0458 -1.1601
  172SAPE   O3119471   6.192   3.222   6.762 -0.0907 -0.4837 -0.2383
  172SAPE   C3119472   6.282   3.158   6.832  1.0699  0.3378 -0.1614
  172SAPE   O3219473   6.397   3.137   6.804 -0.4810 -0.2878 -0.1217
  172SAPE   C3219474   6.208   3.110   6.966  0.4890 -0.6221 -0.3572
  172SAPE   H2X19475   6.195   3.002   6.941 -0.6021 -1.0297  1.8197
  172SAPE   H2Y19476   6.113   3.163   6.985  0.4288 -0.2144 -1.6768
  172SAPE   C2319477   5.841   2.910   6.649  0.3947 -0.1899  0.4878
  172SAPE   H3R19478   5.879   2.808   6.625 -0.4978 -0.2494 -0.7041
  172SAPE   H3S19479   5.740   2.917   6.604  0.6109 -0.3948 -0.0387
  172SAPE   C2419480   5.827   2.941   6.799  0.5764  0.7150 -0.1406
  172SAPE   H4R19481   5.785   3.042   6.815  2.0068  1.2308  0.5338
  172SAPE   H4S19482   5.930   2.959   6.837  0.9875 -0.7073 -0.4810
  172SAPE   C2519483   5.764   2.823   6.874 -0.1668 -0.5550  0.1303
  172SAPE   H5R19484   5.677   2.777   6.826 -0.5085 -1.7208  1.7760
  172SAPE   C2619485   5.814   2.773   6.990 -0.6278 -0.1233  0.8540
  172SAPE   H6R19486   5.765   2.679   7.022 -1.9674  0.1690 -0.2438
  172SAPE   C2719487   5.936   2.815   7.063  0.2015 -0.2076 -0.0848
  172SAPE   H7R19488   5.899   2.809   7.167 -0.9499  0.0879 -0.4664
  172SAPE   H7S19489   5.959   2.921   7.044 -2.8207  0.6656  0.5591
  172SAPE   C2819490   6.050   2.715   7.046 -0.6425 -0.1583 -0.2483
  172SAPE   H8R19491   6.075   2.704   6.940 -2.7647 -0.8369 -0.7175
  172SAPE   C2919492   6.119   2.653   7.146  0.2604  0.1010  0.5577
  172SAPE   H9R19493   6.206   2.594   7.113  0.7173  1.5123 -0.8782
  172SAPE  C21019494   6.082   2.645   7.294 -0.2069 -0.1243  0.6016
  172SAPE  H10R19495   6.056   2.746   7.331 -2.0788 -1.2995  2.7533
  172SAPE  H10S19496   6.170   2.602   7.347  0.1673 -1.5599 -1.0923
  172SAPE  C21119497   5.976   2.546   7.327 -0.4227  1.0496  0.5156
  172SAPE  H11R19498   5.936   2.483   7.246  1.5471  1.2340 -0.6747
  172SAPE  C21219499   5.941   2.507   7.449  0.1006 -0.2748 -0.3270
  172SAPE  H12R19500   5.863   2.432   7.463  0.7220 -0.4408  3.3055
  172SAPE  C21319501   5.988   2.567   7.582 -0.0702  0.3157  0.7749
  172SAPE  H13R19502   6.098   2.584   7.582 -0.1590  0.9718  1.8668
  172SAPE  H13S19503   5.963   2.491   7.659  0.2541  1.1700  1.7447
  172SAPE  C21419504   5.935   2.698   7.624  0.7957 -0.5928 -0.4281
  172SAPE  H14R19505   5.890   2.760   7.546 -1.1052 -0.3266  0.8110
  172SAPE  C21519506   5.939   2.751   7.754 -0.2132  0.5288 -0.3523
  172SAPE  H15R19507   5.889   2.848   7.764  0.8450  1.0485 -0.0375
  172SAPE  C21619508   5.998   2.670   7.871 -0.7999 -0.1110 -0.0786
  172SAPE  H16R19509   6.066   2.593   7.828  2.0176 -0.1194  3.7986
  172SAPE  H16S19510   5.922   2.618   7.933  0.0295 -0.1986  0.8924
  172SAPE  C21719511   6.086   2.758   7.967 -0.0862  0.0461 -0.1070
  172SAPE  H17R19512   6.145   2.831   7.907 -3.0223  2.2663 -0.5568
  172SAPE  H17S19513   6.148   2.700   8.038  1.2589  3.0383  1.3256
  172SAPE  C21819514   6.000   2.841   8.058 -0.3253 -0.4274  0.7186
  172SAPE  H18R19515   5.908   2.874   8.005  0.3056 -1.5764 -1.2081
  172SAPE  H18S19516   6.053   2.932   8.093  0.2608 -0.1990 -0.6742
  172SAPE  C21919517   5.959   2.768   8.192 -0.0625 -0.5550 -0.0752
  172SAPE  H19R19518   5.943   2.663   8.159  0.3698 -0.4893 -0.5165
  172SAPE  H19S19519   5.860   2.803   8.230 -0.2325 -3.6145  2.6442
  172SAPE  C22019520   6.068   2.754   8.296 -0.0948 -1.2444  0.8038
  172SAPE  H20R19521   6.043   2.677   8.372  1.1332 -1.1996  1.2773
  172SAPE  H20S19522   6.101   2.851   8.338  0.7264 -0.5377 -1.3173
  172SAPE  H20T19523   6.166   2.729   8.249 -0.0420  1.9552 -1.0353
  172SAPE   C3319524   6.301   3.103   7.087 -0.1114 -0.2966 -0.6447
  172SAPE   H3X19525   6.326   3.207   7.117  2.4526 -0.6863 -1.1809
  172SAPE   H3Y19526   6.391   3.044   7.057  0.8940  0.5345  0.6393
  172SAPE   C3419527   6.251   3.023   7.210  0.7293 -0.1369 -0.1039
  172SAPE   H4X19528   6.231   2.916   7.186  1.0090 -0.4918  1.1765
  172SAPE   H4Y19529   6.162   3.073   7.254  0.1910  0.2403 -1.5577
  172SAPE   C3519530   6.363   3.033   7.319 -0.2930  0.5881  0.9174
  172SAPE   H5X19531   6.424   3.124   7.299 -1.7724  1.5786  0.7521
  172SAPE   H5Y19532   6.430   2.944   7.321 -0.7319  0.2604  1.4228
  172SAPE   C3619533   6.299   3.029   7.460 -0.2475  0.2953 -0.3615
  172SAPE   H6X19534   6.234   2.940   7.473  0.7818 -0.2926  1.0000
  172SAPE   H6Y19535   6.236   3.121   7.461 -0.7889 -0.0503  1.5387
  172SAPE   C3719536   6.390   3.046   7.582 -0.0571 -0.8222 -0.0122
  172SAPE   H7X19537   6.468   3.120   7.556  0.0760 -0.2479  1.8833
  172SAPE   H7Y19538   6.457   2.960   7.601  0.2364 -0.2429  1.8464
  172SAPE   C3819539   6.312   3.089   7.712 -0.3133  0.0575 -0.3292
  172SAPE   H8X19540   6.238   3.006   7.719  1.0281 -1.1118  0.6326
  172SAPE   H8Y19541   6.270   3.191   7.699  0.4685  0.3810 -0.3778
  172SAPE   C3919542   6.396   3.076   7.838 -0.3624  0.1229  0.0274
  172SAPE   H9X19543   6.483   3.144   7.838 -0.4890  0.3075 -1.3908
  172SAPE   H9Y19544   6.433   2.973   7.857 -1.7042 -0.1534  1.3939
  172SAPE  C31019545   6.313   3.104   7.960 -0.1489  0.2069  0.1267
  172SAPE  H10X19546   6.221   3.041   7.961 -0.4749  0.6756  0.8951
  172SAPE  H10Y19547   6.269   3.206   7.947 -1.1645 -0.5875 -4.3748
  172SAPE  C31119548   6.389   3.109   8.090  0.0246 -0.3426  0.0210
  172SAPE  H11X19549   6.469   3.186   8.086 -1.1511  1.0946  2.1153
  172SAPE  H11Y19550   6.450   3.016   8.098 -1.0961 -0.9725  1.7968
  172SAPE  C31219551   6.295   3.126   8.204 -0.6537 -0.0420 -0.7921
  172SAPE  H12X19552   6.249   3.028   8.226 -1.6123  0.4388 -0.6094
  172SAPE  H12Y19553   6.219   3.207   8.202 -1.0099 -0.3692 -0.6071
  172SAPE  C31319554   6.377   3.165   8.332 -0.0249 -0.3619 -0.1660
  172SAPE  H13X19555   6.303   3.179   8.414  1.1382  0.8325  0.7269
  172SAPE  H13Y19556   6.434   3.258   8.311  0.3505 -0.2964  1.0537
  172SAPE  C31419557   6.481   3.058   8.370 -0.0269 -1.3066 -0.2228
  172SAPE  H14X19558   6.548   3.095   8.450  1.3035 -0.8699 -1.4989
  172SAPE  H14Y19559   6.557   3.052   8.289  0.2472  2.8401 -0.4874
  172SAPE  C31519560   6.418   2.926   8.407  0.5184  0.2410 -0.0581
  172SAPE  H15X19561   6.370   2.876   8.320 -0.4809  0.4703  0.3419
  172SAPE  H15Y19562   6.335   2.936   8.479  0.2295 -3.6900  0.3642
  172SAPE  C31619563   6.513   2.825   8.479  0.1015 -0.0375 -0.3321
  172SAPE  H16X19564   6.571   2.875   8.560  2.4998 -1.9787 -0.7216
  172SAPE  H16Y19565   6.588   2.790   8.405  2.5196  2.8087  0.5638
  172SAPE  C31719566   6.445   2.705   8.532 -0.0948  0.7909 -0.9887
  172SAPE  H17X19567   6.367   2.664   8.464  0.3614 -1.9985  0.0358
  172SAPE  H17Y19568   6.405   2.740   8.630  0.4366  2.0646 -1.2056
  172SAPE  C31819569   6.539   2.591   8.559  0.1544 -0.1262 -0.0060
  172SAPE  H18X19570   6.504   2.512   8.629 -1.3694  1.6446  1.3491
  172SAPE  H18Y19571   6.638   2.627   8.596  0.9608  0.0039 -2.1807
  172SAPE  H18Z19572   6.558   2.542   8.462 -0.2669  1.0828 -0.7246
  173SOPE     N19573   0.391   5.865  11.177  0.2389  0.1487 -0.3330
  173SOPE   HN119574   0.288   5.878  11.187  0.0825 -2.4096  3.8165
  173SOPE   HN219575   0.426   5.851  11.274 -1.4161  0.8141  0.3967
  173SOPE   HN319576   0.448   5.947  11.152  0.8447 -0.3531 -0.6187
  173SOPE   C1219577   0.417   5.750  11.085 -0.5354 -0.4965  0.3586
  173SOPE  H12A19578   0.358   5.663  11.122  0.0475 -0.4408  1.4583
  173SOPE  H12B19579   0.525   5.726  11.097  0.0699  0.8025 -1.8570
  173SOPE   C1119580   0.380   5.802  10.941  0.5567  0.1164  0.3919
  173SOPE  H11A19581   0.432   5.728  10.876  0.1259 -0.7611  1.0231
  173SOPE  H11B19582   0.424   5.902  10.918 -1.3972  0.9558  0.1359
  173SOPE     P19583   0.168   5.726  10.807 -0.4383 -0.4891  0.2496
  173SOPE   O1319584   0.024   5.758  10.814  0.2269  0.6479  0.0935
  173SOPE   O1419585   0.201   5.584  10.828 -0.7230  0.3324  0.0667
  173SOPE   O1219586   0.240   5.809  10.923  0.4420  0.3121  0.4787
  173SOPE   O1119587   0.231   5.771  10.670  0.9885 -0.0416  0.4505
  173SOPE    C119588   0.248   5.905  10.628  0.5038 -0.4016  0.0975
  173SOPE    HA19589   0.352   5.939  10.647  0.1818 -1.3182  4.5038
  173SOPE    HB19590   0.170   5.966  10.678  0.3292 -1.4832  1.2098
  173SOPE    C219591   0.204   5.923  10.478 -0.3780 -0.2843 -0.4285
  173SOPE    HS19592   0.112   5.861  10.473 -0.0792 -1.0025  1.8232
  173SOPE   O2119593   0.314   5.890  10.393  0.4853  0.1268  0.8430
  173SOPE   C2119594   0.320   5.768  10.378  0.1953  0.1372 -0.0852
  173SOPE   O2219595   0.245   5.679  10.418  0.0636 -0.4529  0.0077
  173SOPE   C2219596   0.447   5.731  10.294 -0.4695 -0.1385 -0.0612
  173SOPE   H2R19597   0.538   5.765  10.346 -0.2976  1.8082 -1.5220
  173SOPE   H2S19598   0.442   5.797  10.205  1.1225 -0.7355 -0.6249
  173SOPE    C319599   0.162   6.067  10.444 -0.3123  0.4627 -0.2438
  173SOPE    HX19600   0.251   6.131  10.466  0.6718 -0.2686 -1.8769
  173SOPE    HY19601   0.081   6.114  10.503  0.1638  2.0813 -0.8153
  173SOPE   O3119602   0.144   6.086  10.309 -0.2644 -0.2084  0.5352
  173SOPE   C3119603   0.022   6.046  10.263  0.1080 -0.6445 -0.2279
  173SOPE   O3219604  -0.066   6.009  10.335  0.7058 -0.8319 -0.0429
  173SOPE   C3219605   0.007   6.070  10.115  0.1859  0.1716  0.4370
  173SOPE   H2X19606  -0.065   5.992  10.084  0.0532 -0.7414  2.8501
  173SOPE   H2Y19607   0.107   6.063  10.067 -0.2130 -2.4583 -0.1707
  173SOPE   C2319608   0.460   5.582  10.247 -0.0296 -0.2861  0.1987
  173SOPE   H3R19609   0.358   5.544  10.227  1.1542 -3.0650 -1.0665
  173SOPE   H3S19610   0.509   5.525  10.329  0.3677 -1.1895 -0.6522
  173SOPE   C2419611   0.553   5.571  10.120  0.4057 -0.2145 -0.0114
  173SOPE   H4R19612   0.645   5.623  10.154  0.5884  0.2986 -1.2193
  173SOPE   H4S19613   0.576   5.462  10.112 -0.2902 -0.3594 -0.0789
  173SOPE   C2519614   0.493   5.631   9.997  0.3982 -0.0304 -0.5136
  173SOPE   H5R19615   0.389   5.592   9.989  0.1740  0.3110  0.6310
  173SOPE   H5S19616   0.487   5.741  10.010  1.0465  0.0465 -0.8065
  173SOPE   C2619617   0.579   5.612   9.876  0.0514 -0.2293 -0.0594
  173SOPE   H6R19618   0.682   5.650   9.895 -0.8327  1.8561  0.8787
  173SOPE   H6S19619   0.582   5.509   9.833  1.3236  0.1276 -0.8800
  173SOPE   C2719620   0.541   5.714   9.765  0.2488 -0.4338  0.2713
  173SOPE   H7R19621   0.435   5.695   9.740  0.5965  0.3890 -2.0090
  173SOPE   H7S19622   0.549   5.821   9.794  0.1982 -0.3245 -0.1135
  173SOPE   C2819623   0.631   5.689   9.639  0.1079  0.1245  0.2433
  173SOPE   H8R19624   0.639   5.787   9.586 -2.1127  0.8168  1.0805
  173SOPE   H8S19625   0.731   5.665   9.680 -0.3279  0.1974  1.3604
  173SOPE   C2919626   0.587   5.588   9.538  0.1436 -0.2060 -0.1604
  173SOPE   H9119627   0.614   5.483   9.558 -0.5381 -0.2193  0.7398
  173SOPE  C21019628   0.531   5.616   9.419 -0.1035 -0.2010  0.0206
  173SOPE  H10119629   0.517   5.530   9.351 -2.8913  0.3035 -0.1510
  173SOPE  C21119630   0.502   5.760   9.365 -0.0496 -0.3785 -0.1512
  173SOPE  H11R19631   0.554   5.836   9.428  0.4342 -1.4857  0.8114
  173SOPE  H11S19632   0.392   5.772   9.356  0.0331 -0.1057 -0.9008
  173SOPE  C21219633   0.558   5.773   9.222 -0.5226 -0.0189  0.5636
  173SOPE  H12R19634   0.557   5.676   9.167 -0.5339  0.7706 -0.8794
  173SOPE  H12S19635   0.664   5.806   9.224 -0.6988  0.6814 -0.6001
  173SOPE  C21319636   0.483   5.861   9.118  0.5094  0.1567 -0.4526
  173SOPE  H13R19637   0.515   5.964   9.145 -0.4007  0.5128 -0.7112
  173SOPE  H13S19638   0.374   5.850   9.137  1.0183 -2.2251  1.7332
  173SOPE  C21419639   0.512   5.836   8.966  0.2129  0.5914 -0.3779
  173SOPE  H14R19640   0.483   5.733   8.935  0.1490  0.6579 -0.5407
  173SOPE  H14S19641   0.619   5.854   8.945 -0.1032  1.2109 -1.5434
  173SOPE  C21519642   0.443   5.936   8.872  0.4203 -0.1968  0.1045
  173SOPE  H15R19643   0.490   5.925   8.772  1.0116 -0.9196  0.4515
  173SOPE  H15S19644   0.463   6.040   8.906  0.2034  1.2134 -3.6093
  173SOPE  C21619645   0.289   5.910   8.862  0.3161 -0.5863 -0.2431
  173SOPE  H16R19646   0.246   5.918   8.964  1.1166 -2.6105  0.2914
  173SOPE  H16S19647   0.276   5.807   8.822  1.3468 -2.0000  2.7695
  173SOPE  C21719648   0.217   6.019   8.783  0.6363 -0.2006 -0.0563
  173SOPE  H17R19649   0.268   6.116   8.804  0.8821  0.3170 -2.6597
  173SOPE  H17S19650   0.114   6.038   8.820  0.1281 -1.0228 -0.9832
  173SOPE  C21819651   0.204   5.992   8.629  0.8576  0.0781  0.3740
  173SOPE  H18R19652   0.166   6.090   8.593  0.7369 -0.4019 -0.8302
  173SOPE  H18S19653   0.139   5.905   8.607 -0.0790  1.4115 -2.7725
  173SOPE  H18T19654   0.304   5.976   8.584  0.7383 -0.6642  0.3619
  173SOPE   C3319655  -0.051   6.211  10.080  0.5766  0.2535  0.2962
  173SOPE   H3X19656   0.028   6.281  10.114  3.0934 -2.7844  1.2916
  173SOPE   H3Y19657  -0.142   6.229  10.141  0.3920  0.7549 -0.1220
  173SOPE   C3419658  -0.083   6.234   9.928  0.4975 -0.2874 -0.4244
  173SOPE   H4X19659  -0.115   6.143   9.872 -1.7463 -0.0495  0.3470
  173SOPE   H4Y19660   0.007   6.254   9.867  0.1639 -1.2054 -1.2457
  173SOPE   C3519661  -0.190   6.333   9.897  0.1670  0.4811 -0.2169
  173SOPE   H5X19662  -0.168   6.419   9.964  1.0211 -1.1384  1.6929
  173SOPE   H5Y19663  -0.289   6.300   9.933  2.0131 -3.0011  2.2159
  173SOPE   C3619664  -0.196   6.373   9.746 -0.8759  0.0016  0.9494
  173SOPE   H6X19665  -0.223   6.278   9.695  1.2841 -0.0943 -0.0935
  173SOPE   H6Y19666  -0.097   6.399   9.704 -1.5785 -0.0566 -0.8258
  173SOPE   C3719667  -0.302   6.481   9.711 -0.1222  0.2127  0.4653
  173SOPE   H7X19668  -0.280   6.582   9.753  0.1659 -0.0938  1.0671
  173SOPE   H7Y19669  -0.392   6.451   9.768 -0.3802  0.4015  0.1594
  173SOPE   C3819670  -0.323   6.502   9.561 -0.2031 -0.3472  1.5027
  173SOPE   H8X19671  -0.360   6.406   9.520  0.5900 -0.3127  0.6747
  173SOPE   H8Y19672  -0.219   6.528   9.533 -0.2844 -0.2839  1.2611
  173SOPE   C3919673  -0.419   6.620   9.510 -0.0980 -0.7621 -0.0887
  173SOPE   H9X19674  -0.342   6.699   9.496 -0.0541 -0.5925  1.0154
  173SOPE   H9Y19675  -0.492   6.643   9.590 -0.8046  1.6082 -1.3331
  173SOPE  C31019676  -0.473   6.601   9.365 -0.1781 -0.6482  0.1659
  173SOPE  H10X19677  -0.532   6.692   9.341  0.8149 -0.2346 -0.7961
  173SOPE  H10Y19678  -0.546   6.518   9.377 -0.3717 -0.2225  2.5027
  173SOPE  C31119679  -0.383   6.587   9.248 -0.2112 -0.6228  0.4359
  173SOPE  H11X19680  -0.329   6.493   9.269 -1.4153 -1.7018 -1.0174
  173SOPE  H11Y19681  -0.309   6.670   9.241  0.3890 -1.1590  0.4102
  173SOPE  C31219682  -0.447   6.588   9.106  0.2784  0.0486  0.8382
  173SOPE  H12X19683  -0.473   6.693   9.082  1.3537  0.2716  0.5976
  173SOPE  H12Y19684  -0.539   6.526   9.111 -1.3474  2.2143 -0.3905
  173SOPE  C31319685  -0.352   6.535   8.992 -0.2906  0.0135 -0.1949
  173SOPE  H13X19686  -0.317   6.436   9.029 -1.0827  0.1354  0.9401
  173SOPE  H13Y19687  -0.265   6.601   8.972 -0.9269  0.7578 -0.5714
  173SOPE  C31419688  -0.413   6.521   8.851  0.7127  0.3930  0.4232
  173SOPE  H14X19689  -0.328   6.513   8.781 -0.3884 -0.1006 -0.9064
  173SOPE  H14Y19690  -0.466   6.616   8.828 -1.7355 -0.8452  0.6033
  173SOPE  C31519691  -0.515   6.406   8.826 -0.2622  0.6481  0.3247
  173SOPE  H15X19692  -0.610   6.426   8.880 -1.5920  1.3954 -2.1593
  173SOPE  H15Y19693  -0.473   6.320   8.884 -1.3847 -0.1386  0.0030
  173SOPE  C31619694  -0.526   6.359   8.684 -0.2022 -0.1806  0.4353
  173SOPE  H16X19695  -0.422   6.354   8.646 -0.1520 -0.2807  0.5854
  173SOPE  H16Y19696  -0.576   6.442   8.630 -0.6853 -0.5252  0.3408
  173SOPE  C31719697  -0.595   6.222   8.681 -0.6956  0.3311  0.8445
  173SOPE  H17X19698  -0.702   6.229   8.712 -0.9689 -1.1955  0.3024
  173SOPE  H17Y19699  -0.534   6.160   8.750  0.5914  0.0846 -0.4730
  173SOPE  C31819700  -0.593   6.151   8.540  0.2867  0.0634 -0.4663
  173SOPE  H18X19701  -0.631   6.211   8.455 -1.1743 -2.1917 -1.4737
  173SOPE  H18Y19702  -0.644   6.053   8.545  1.3637 -0.4545  2.5908
  173SOPE  H18Z19703  -0.485   6.135   8.517  0.5738 -2.1566  1.9613
  174SOPE     N19704   0.552   4.230  11.273  0.1121 -0.4678 -0.2014
  174SOPE   HN119705   0.496   4.278  11.346 -0.5430  0.5362 -1.3368
  174SOPE   HN219706   0.489   4.204  11.195 -0.1629 -0.3289 -0.0254
  174SOPE   HN319707   0.603   4.145  11.306  3.3832  0.9675 -1.0806
  174SOPE   C1219708   0.663   4.312  11.212  0.0142 -0.7954  0.3983
  174SOPE  H12A19709   0.747   4.314  11.285  1.0184  1.9975 -0.7056
  174SOPE  H12B19710   0.629   4.418  11.211 -0.6303 -0.9909 -1.4013
  174SOPE   C1119711   0.714   4.260  11.077 -0.5460 -0.3956  0.1035
  174SOPE  H11A19712   0.761   4.159  11.073 -0.9440 -0.5503 -2.0860
  174SOPE  H11B19713   0.798   4.323  11.038  0.6186 -1.0509  1.4515
  174SOPE     P19714   0.577   4.356  10.874  0.0047  0.2218 -0.6836
  174SOPE   O1319715   0.611   4.488  10.929 -0.0457  0.2597 -1.1089
  174SOPE   O1419716   0.441   4.350  10.818  0.4238 -0.4476 -0.3286
  174SOPE   O1219717   0.608   4.252  10.987  0.5307 -0.2230 -0.6764
  174SOPE   O1119718   0.678   4.311  10.762 -0.2012  0.2325 -0.1605
  174SOPE    C119719   0.783   4.388  10.705 -0.2771 -0.2223 -0.2355
  174SOPE    HA19720   0.879   4.353  10.748 -0.2071  0.6971  0.3924
  174SOPE    HB19721   0.769   4.494  10.736 -0.4928 -0.4277  0.3758
  174SOPE    C219722   0.786   4.385  10.551 -0.1475  0.8084  0.4277
  174SOPE    HS19723   0.850   4.298  10.523 -0.8310 -0.5479  2.7716
  174SOPE   O2119724   0.824   4.514  10.502 -0.3287 -0.1479 -0.0180
  174SOPE   C2119725   0.934   4.519  10.436  0.2467 -0.0953 -0.1202
  174SOPE   O2219726   1.018   4.431  10.419  0.2176  0.5454  0.0545
  174SOPE   C2219727   0.942   4.660  10.377  0.8096  0.1724 -0.1534
  174SOPE   H2R19728   1.009   4.724  10.439 -2.0740  2.7218  0.5733
  174SOPE   H2S19729   0.843   4.711  10.379 -0.5690 -2.2941  2.2794
  174SOPE    C319730   0.645   4.346  10.486  0.0860  0.2586  0.0751
  174SOPE    HX19731   0.573   4.423  10.520  0.6522  0.2367  1.3851
  174SOPE    HY19732   0.594   4.256  10.527 -1.7118  0.5158 -1.4647
  174SOPE   O3119733   0.662   4.335  10.342  0.0996 -0.4263 -0.0127
  174SOPE   C3119734   0.624   4.432  10.267 -0.2221  0.1193  0.1857
  174SOPE   O3219735   0.561   4.530  10.292  0.2948  0.0497  0.6620
  174SOPE   C3219736   0.680   4.418  10.127 -0.1607  1.1135 -0.0647
  174SOPE   H2X19737   0.685   4.309  10.105  2.2513  1.6352 -2.6541
  174SOPE   H2Y19738   0.780   4.465  10.121  0.9713 -1.2976 -1.6993
  174SOPE   C2319739   0.988   4.655  10.231  0.2406 -0.3283 -0.1587
  174SOPE   H3R19740   0.919   4.609  10.158  0.2291 -1.0502  0.2995
  174SOPE   H3S19741   1.084   4.599  10.223  1.7757  2.2969 -1.5784
  174SOPE   C2419742   1.029   4.800  10.190 -0.4613 -0.9708  0.0601
  174SOPE   H4R19743   0.955   4.882  10.201  0.5381  0.3287 -2.1305
  174SOPE   H4S19744   1.113   4.824  10.259 -0.2310 -0.5451 -0.3579
  174SOPE   C2519745   1.079   4.804  10.044 -0.2822 -0.0213 -0.4085
  174SOPE   H5R19746   1.114   4.904  10.010 -1.0124 -0.3316 -2.2022
  174SOPE   H5S19747   1.168   4.739  10.029 -0.1116  0.4893 -1.8024
  174SOPE   C2619748   0.962   4.768   9.948 -0.0991  0.4920  0.1109
  174SOPE   H6R19749   0.936   4.660   9.937  1.9720 -0.0933  0.4450
  174SOPE   H6S19750   0.875   4.825   9.987  1.5123  1.6921  2.1756
  174SOPE   C2719751   0.989   4.800   9.801 -0.0070 -0.5094  0.3670
  174SOPE   H7R19752   1.009   4.909   9.798 -0.2536 -0.4879 -1.0618
  174SOPE   H7S19753   1.096   4.772   9.786  0.5430 -0.7866  3.8823
  174SOPE   C2819754   0.893   4.732   9.701  0.3160 -1.0020  0.1644
  174SOPE   H8R19755   0.900   4.622   9.711 -0.5971 -1.2404 -1.5349
  174SOPE   H8S19756   0.794   4.757   9.744 -0.5351 -0.1835 -2.1214
  174SOPE   C2919757   0.883   4.789   9.562 -0.2256 -0.0419 -0.8855
  174SOPE   H9119758   0.807   4.867   9.545 -2.7561 -1.7404  1.6337
  174SOPE  C21019759   0.950   4.745   9.457  0.4451  0.4708 -0.2255
  174SOPE  H10119760   0.932   4.791   9.358  2.8123 -0.2681 -1.0690
  174SOPE  C21119761   1.053   4.636   9.450  0.2764 -0.7986  0.3031
  174SOPE  H11R19762   1.016   4.539   9.409  0.1476 -0.8710  0.5869
  174SOPE  H11S19763   1.102   4.606   9.545  2.9351  0.1541 -0.6861
  174SOPE  C21219764   1.171   4.685   9.360 -0.0484 -0.1036 -0.7901
  174SOPE  H12R19765   1.252   4.612   9.379  0.3729  0.8357  1.2926
  174SOPE  H12S19766   1.194   4.789   9.392  0.4653 -0.6607  0.7324
  174SOPE  C21319767   1.145   4.702   9.210 -1.1383  0.2601 -0.1401
  174SOPE  H13R19768   1.122   4.810   9.192 -0.1243  0.4928 -0.0857
  174SOPE  H13S19769   1.046   4.659   9.184  0.9602 -3.7671 -2.3656
  174SOPE  C21419770   1.255   4.651   9.118 -0.6551 -0.6069  0.1050
  174SOPE  H14R19771   1.269   4.541   9.124  1.3772 -0.3354  1.3280
  174SOPE  H14S19772   1.347   4.687   9.168 -0.5355 -1.5337  0.5717
  174SOPE  C21519773   1.251   4.710   8.971  0.4399 -0.5121 -0.5455
  174SOPE  H15R19774   1.355   4.731   8.938  0.8154 -0.3351  0.6967
  174SOPE  H15S19775   1.202   4.810   8.975  0.4128 -0.5603  1.5937
  174SOPE  C21619776   1.186   4.631   8.860 -0.0838  0.2685  0.4512
  174SOPE  H16R19777   1.097   4.592   8.913  0.6341  0.4036  1.7991
  174SOPE  H16S19778   1.250   4.544   8.834  0.9028  1.0894  0.0755
  174SOPE  C21719779   1.145   4.712   8.738 -0.8281  0.2336  0.8843
  174SOPE  H17R19780   1.100   4.806   8.775 -3.4622 -1.9299  3.7713
  174SOPE  H17S19781   1.074   4.655   8.674 -1.6834  2.4281 -0.2130
  174SOPE  C21819782   1.266   4.747   8.648 -0.0449  0.0229  0.2609
  174SOPE  H18R19783   1.310   4.656   8.602 -2.0411 -0.2660 -1.1958
  174SOPE  H18S19784   1.346   4.809   8.694 -0.0595  0.6793 -0.5803
  174SOPE  H18T19785   1.223   4.808   8.566 -2.1833  1.2777  2.2030
  174SOPE   C3319786   0.593   4.474  10.016  0.1844 -1.0565  0.2997
  174SOPE   H3X19787   0.582   4.585  10.023 -0.1880 -0.8638 -2.2982
  174SOPE   H3Y19788   0.493   4.426  10.018  0.6464 -2.2596 -2.0948
  174SOPE   C3419789   0.642   4.444   9.874  0.4174 -0.3789 -0.1661
  174SOPE   H4X19790   0.648   4.333   9.875  0.5915 -0.3949  1.9306
  174SOPE   H4Y19791   0.742   4.492   9.876 -1.2101  3.3362  0.6289
  174SOPE   C3519792   0.546   4.490   9.761 -0.3742  0.0408  0.7418
  174SOPE   H5X19793   0.543   4.601   9.764  2.2466  0.2100 -0.5787
  174SOPE   H5Y19794   0.452   4.432   9.764  0.5684 -1.5009  1.5472
  174SOPE   C3619795   0.616   4.464   9.622 -0.2717  0.2981  0.1356
  174SOPE   H6X19796   0.673   4.369   9.629  0.7843  0.9186  0.2189
  174SOPE   H6Y19797   0.693   4.543   9.608 -0.0794  0.2541  0.9095
  174SOPE   C3719798   0.512   4.459   9.501 -0.2942 -0.1866  0.3857
  174SOPE   H7X19799   0.426   4.526   9.518  0.3745  1.3885 -2.0082
  174SOPE   H7Y19800   0.467   4.358   9.489 -0.4151 -0.0553 -0.2685
  174SOPE   C3819801   0.581   4.495   9.364  0.0072 -1.1340 -0.5911
  174SOPE   H8X19802   0.621   4.598   9.373 -0.3128 -1.0389 -0.2297
  174SOPE   H8Y19803   0.496   4.490   9.293  0.1024  2.3681 -1.0898
  174SOPE   C3919804   0.698   4.413   9.319 -0.9427  0.0946 -0.6894
  174SOPE   H9X19805   0.662   4.308   9.318 -2.7625  0.6832 -2.1590
  174SOPE   H9Y19806   0.779   4.431   9.392 -0.4152  1.7928 -1.6389
  174SOPE  C31019807   0.763   4.445   9.188  0.4036 -0.0455  0.5439
  174SOPE  H10X19808   0.704   4.390   9.112  0.0587  2.5443 -1.1943
  174SOPE  H10Y19809   0.864   4.400   9.177  0.0490 -0.7304  0.0145
  174SOPE  C31119810   0.755   4.596   9.157 -0.7871 -0.2711  0.0117
  174SOPE  H11X19811   0.825   4.634   9.233 -1.5316  1.2755 -0.0468
  174SOPE  H11Y19812   0.656   4.643   9.177 -0.1303  0.9090  0.5730
  174SOPE  C31219813   0.801   4.628   9.017  0.3268 -0.1947 -0.0737
  174SOPE  H12X19814   0.902   4.583   9.033  0.5418  0.7689  1.4857
  174SOPE  H12Y19815   0.809   4.737   8.995 -1.0485 -0.6327 -3.2527
  174SOPE  C31319816   0.716   4.569   8.904 -0.2556 -0.2068  0.5891
  174SOPE  H13X19817   0.610   4.601   8.900 -0.7667 -1.8582  0.1373
  174SOPE  H13Y19818   0.711   4.460   8.927 -0.4895  0.1531  2.4543
  174SOPE  C31419819   0.785   4.586   8.767 -0.5177  0.3245 -0.8481
  174SOPE  H14X19820   0.876   4.522   8.767 -2.1942 -2.1910 -2.1342
  174SOPE  H14Y19821   0.832   4.687   8.756  3.0641 -1.1287 -0.4027
  174SOPE  C31519822   0.697   4.552   8.647  0.2913 -0.9576  0.2821
  174SOPE  H15X19823   0.733   4.598   8.552  1.1729 -0.1487  0.9852
  174SOPE  H15Y19824   0.597   4.600   8.655  0.4908 -0.5631  0.4247
  174SOPE  C31619825   0.683   4.402   8.626  0.0916  0.3999  0.4556
  174SOPE  H16X19826   0.687   4.353   8.725  2.1980  0.8696  0.6341
  174SOPE  H16Y19827   0.768   4.357   8.572  0.5932 -0.6781  2.0797
  174SOPE  C31719828   0.547   4.364   8.563 -0.1765  0.7234 -0.1222
  174SOPE  H17X19829   0.543   4.421   8.468 -2.7283  1.5963  0.4210
  174SOPE  H17Y19830   0.465   4.412   8.621  0.2545 -0.4847  1.5683
  174SOPE  C31819831   0.525   4.216   8.545  0.0465 -0.7466  0.3236
  174SOPE  H18X19832   0.530   4.157   8.639 -1.2939 -0.0570  0.8528
  174SOPE  H18Y19833   0.598   4.177   8.471  1.2760  1.0420  0.5320
  174SOPE  H18Z19834   0.420   4.206   8.510  0.0004  0.5763  0.0338
  175SOPE     N19835   2.325   2.824  10.586 -0.2107  0.3042  0.4898
  175SOPE   HN119836   2.266   2.909  10.602  1.9787  2.3154 -1.2811
  175SOPE   HN219837   2.359   2.825  10.488  1.3288  1.0715  0.9856
  175SOPE   HN319838   2.268   2.738  10.592  1.7684 -1.2043 -0.8410
  175SOPE   C1219839   2.442   2.800  10.680 -0.5733  0.3199  0.5278
  175SOPE  H12A19840   2.488   2.708  10.638 -1.6917 -1.2521  2.5442
  175SOPE  H12B19841   2.396   2.782  10.780 -1.9632  1.5148  0.1411
  175SOPE   C1119842   2.541   2.918  10.671 -0.4488 -0.9390  0.4985
  175SOPE  H11A19843   2.489   3.005  10.717  0.5570  0.2182 -0.4522
  175SOPE  H11B19844   2.569   2.935  10.565  1.9951 -0.7304  1.1029
  175SOPE     P19845   2.785   2.829  10.707 -0.2081  0.3156 -0.5113
  175SOPE   O1319846   2.752   2.696  10.648 -0.3528 -0.0961 -0.0592
  175SOPE   O1419847   2.874   2.830  10.825 -0.2240 -0.1383  0.5854
  175SOPE   O1219848   2.653   2.894  10.752 -0.1979  0.3609  0.4846
  175SOPE   O1119849   2.832   2.921  10.591  0.1296  0.1279  0.4349
  175SOPE    C119850   2.874   3.054  10.612  0.3901 -0.7476  0.1657
  175SOPE    HA19851   2.955   3.078  10.540 -0.9106 -0.1995 -1.1426
  175SOPE    HB19852   2.922   3.064  10.712 -1.1703 -0.7258  0.9349
  175SOPE    C219853   2.771   3.173  10.583  0.4709  0.7407 -0.0039
  175SOPE    HS19854   2.716   3.171  10.680  1.3738 -2.7027  0.5759
  175SOPE   O2119855   2.678   3.133  10.477 -0.2650 -0.2597 -0.0450
  175SOPE   C2119856   2.569   3.211  10.467  0.0932  0.0567  0.1758
  175SOPE   O2219857   2.542   3.300  10.542  0.0137 -0.3955 -0.3050
  175SOPE   C2219858   2.503   3.196  10.330  0.1144  0.0525 -0.4668
  175SOPE   H2R19859   2.399   3.234  10.341 -0.0132  0.0945 -1.7071
  175SOPE   H2S19860   2.499   3.089  10.304  1.8248 -0.4487  1.0722
  175SOPE    C319861   2.844   3.308  10.557  0.3415  0.4586  0.0033
  175SOPE    HX19862   2.889   3.359  10.645  0.0545  2.3772 -0.9274
  175SOPE    HY19863   2.763   3.379  10.531  1.1886  1.3136 -0.3594
  175SOPE   O3119864   2.931   3.304  10.439  0.1912  0.3253 -0.3832
  175SOPE   C3119865   3.056   3.348  10.454  0.3168 -0.0216 -0.4544
  175SOPE   O3219866   3.105   3.414  10.547  0.8455 -0.0735 -0.1292
  175SOPE   C3219867   3.139   3.327  10.325 -0.1774  0.1877  0.3586
  175SOPE   H2X19868   3.221   3.259  10.357  1.3525  0.7278 -2.1802
  175SOPE   H2Y19869   3.189   3.420  10.291 -2.0032  1.0210 -0.1906
  175SOPE   C2319870   2.575   3.285  10.231  0.1724  0.1958 -0.0087
  175SOPE   H3R19871   2.686   3.275  10.238  0.4433  2.4158 -0.2366
  175SOPE   H3S19872   2.559   3.386  10.274 -2.0208 -0.7254  1.4951
  175SOPE   C2419873   2.526   3.288  10.081  0.2534  0.4630 -0.1334
  175SOPE   H4R19874   2.427   3.338  10.080  0.8123  1.6013 -0.7449
  175SOPE   H4S19875   2.603   3.346  10.025  0.3088 -0.8266 -1.4570
  175SOPE   C2519876   2.519   3.149  10.009  0.8274 -0.3998  0.5877
  175SOPE   H5R19877   2.622   3.106  10.014  1.1843  0.5882  2.6352
  175SOPE   H5S19878   2.444   3.082  10.055 -1.7688  0.3017 -2.3185
  175SOPE   C2619879   2.468   3.170   9.866 -0.8342 -0.3674 -0.2599
  175SOPE   H6R19880   2.387   3.247   9.861 -0.6635 -0.2582 -2.6773
  175SOPE   H6S19881   2.561   3.217   9.828  0.7806 -1.0186  2.6395
  175SOPE   C2719882   2.435   3.042   9.793  0.5193  0.5149  0.3509
  175SOPE   H7R19883   2.522   2.974   9.774 -1.1499 -0.9250 -2.7631
  175SOPE   H7S19884   2.364   2.977   9.848 -0.0369  0.3547 -0.5400
  175SOPE   C2819885   2.363   3.076   9.655 -1.0672  0.1652  0.0730
  175SOPE   H8R19886   2.279   3.146   9.673 -2.4072 -1.0365 -1.2055
  175SOPE   H8S19887   2.435   3.136   9.595  0.5633 -2.9276 -1.3499
  175SOPE   C2919888   2.313   2.952   9.575  0.6431  0.3341 -0.2226
  175SOPE   H9119889   2.247   2.885   9.632 -0.4985  1.9719  0.4261
  175SOPE  C21019890   2.358   2.925   9.454 -0.1843 -0.5820 -0.0038
  175SOPE  H10119891   2.325   2.836   9.399 -1.1803 -0.1705 -0.0818
  175SOPE  C21119892   2.469   2.994   9.384  0.5470 -0.3669  0.6501
  175SOPE  H11R19893   2.515   2.916   9.319  0.9846  0.5388 -0.1543
  175SOPE  H11S19894   2.538   3.046   9.454 -0.7157  2.0602  0.2184
  175SOPE  C21219895   2.410   3.102   9.291 -0.9295  0.5676 -0.5042
  175SOPE  H12R19896   2.491   3.169   9.257  1.1172 -0.4195  2.0727
  175SOPE  H12S19897   2.341   3.166   9.351 -0.2532  0.4967  0.3669
  175SOPE  C21319898   2.313   3.056   9.182 -0.1145 -0.1800 -0.0459
  175SOPE  H13R19899   2.218   3.023   9.228  0.7070  1.2479  2.8681
  175SOPE  H13S19900   2.353   2.966   9.130 -2.9810 -1.0738 -0.8993
  175SOPE  C21419901   2.291   3.163   9.071 -0.5018 -1.0243 -0.0901
  175SOPE  H14R19902   2.240   3.241   9.132 -0.1261 -0.5048 -0.4236
  175SOPE  H14S19903   2.214   3.133   8.998 -0.3468  1.3308 -1.3382
  175SOPE  C21519904   2.416   3.210   8.997  0.2475 -0.2846  0.8487
  175SOPE  H15R19905   2.474   3.272   9.068  1.0284 -0.6432  0.5368
  175SOPE  H15S19906   2.376   3.273   8.914  1.3513  1.9253  1.9314
  175SOPE  C21619907   2.517   3.102   8.943 -0.0872 -0.1102  0.3893
  175SOPE  H16R19908   2.453   3.025   8.895 -0.9408 -0.6540  2.3039
  175SOPE  H16S19909   2.577   3.051   9.021  2.8202  0.9711 -0.9993
  175SOPE  C21719910   2.624   3.148   8.832 -0.6623 -0.1585 -0.5908
  175SOPE  H17R19911   2.667   3.231   8.892  2.2174 -3.2625  1.9665
  175SOPE  H17S19912   2.572   3.168   8.735  1.8686  0.2336 -1.9451
  175SOPE  C21819913   2.728   3.044   8.796 -0.3041  0.0467 -0.5988
  175SOPE  H18R19914   2.799   3.083   8.720  1.0831  1.6000  1.3966
  175SOPE  H18S19915   2.702   2.941   8.764 -0.8526  0.6360 -2.1451
  175SOPE  H18T19916   2.798   3.033   8.881  0.4764 -2.2617 -1.4710
  175SOPE   C3319917   3.057   3.254  10.205  0.1995 -0.3229 -0.4889
  175SOPE   H3X19918   2.999   3.170  10.248  0.5553  0.5369  1.8225
  175SOPE   H3Y19919   3.139   3.227  10.135  0.3156  0.7338 -0.7859
  175SOPE   C3419920   2.958   3.345  10.128  0.4542 -0.5779  0.2942
  175SOPE   H4X19921   3.014   3.437  10.100 -0.6774 -0.6705 -2.6281
  175SOPE   H4Y19922   2.878   3.376  10.199  1.6145 -0.8313  1.7749
  175SOPE   C3519923   2.889   3.271  10.010  0.0005 -0.7133  0.2045
  175SOPE   H5X19924   2.793   3.327  10.004  0.0794 -0.5587  0.4022
  175SOPE   H5Y19925   2.867   3.169  10.047  1.7074 -1.4345 -0.6704
  175SOPE   C3619926   2.955   3.281   9.865 -0.6256  0.1213 -0.1053
  175SOPE   H6X19927   3.057   3.237   9.864 -1.1771 -1.2631 -1.7521
  175SOPE   H6Y19928   2.966   3.386   9.832  0.0247  0.1898  0.3103
  175SOPE   C3719929   2.870   3.201   9.764 -0.2401  0.0740 -0.3028
  175SOPE   H7X19930   2.780   3.259   9.736 -0.3708  0.0705  0.1000
  175SOPE   H7Y19931   2.818   3.121   9.822 -1.5218  2.4615  2.1093
  175SOPE   C3819932   2.940   3.164   9.634 -0.1046 -0.2158  0.6032
  175SOPE   H8X19933   3.025   3.096   9.657 -1.3122 -1.4563  1.5916
  175SOPE   H8Y19934   2.981   3.255   9.585  0.7177 -2.2390 -2.8371
  175SOPE   C3919935   2.844   3.102   9.532  0.2060  0.7155 -0.6656
  175SOPE   H9X19936   2.766   3.172   9.493 -0.8995 -0.5484 -0.7971
  175SOPE   H9Y19937   2.796   3.017   9.585  2.0779  1.4489  2.5144
  175SOPE  C31019938   2.912   3.026   9.417 -0.5909  0.4361  0.1859
  175SOPE  H10X19939   2.849   2.942   9.382 -0.1126  0.6210 -1.1475
  175SOPE  H10Y19940   3.006   2.978   9.452 -0.4923  0.3742 -0.1583
  175SOPE  C31119941   2.945   3.126   9.300  0.4506 -0.2857 -0.1333
  175SOPE  H11X19942   2.984   3.225   9.334  1.4152 -0.9267  0.6686
  175SOPE  H11Y19943   2.847   3.155   9.257  1.8082  5.0529 -0.4056
  175SOPE  C31219944   3.038   3.069   9.184  0.1092  0.0136 -0.1757
  175SOPE  H12X19945   3.137   3.048   9.229  0.5531 -1.5467 -1.7935
  175SOPE  H12Y19946   3.052   3.154   9.112 -0.4428 -0.1391 -0.4673
  175SOPE  C31319947   2.995   2.945   9.106  0.4146 -0.2669 -0.3968
  175SOPE  H13X19948   2.892   2.978   9.081 -1.1429 -3.1913  1.6187
  175SOPE  H13Y19949   2.982   2.863   9.179  1.6459  0.8054  1.0862
  175SOPE  C31419950   3.087   2.915   8.987 -0.3747  0.0958 -0.5208
  175SOPE  H14X19951   3.184   2.896   9.037  0.2492 -1.0272 -2.0824
  175SOPE  H14Y19952   3.100   3.005   8.923 -1.0387 -1.2774 -2.7145
  175SOPE  C31519953   3.055   2.790   8.904 -0.2746 -0.6279  0.1001
  175SOPE  H15X19954   2.961   2.796   8.845  0.0082 -1.3106 -0.4330
  175SOPE  H15Y19955   3.035   2.704   8.972 -0.4109  0.4411  1.4654
  175SOPE  C31619956   3.164   2.748   8.802  0.2840 -0.3664  0.5090
  175SOPE  H16X19957   3.143   2.644   8.769  2.1883 -0.4881 -0.3982
  175SOPE  H16Y19958   3.262   2.748   8.854  0.1185 -0.8058  0.8275
  175SOPE  C31719959   3.164   2.832   8.668  0.2555  0.4009 -0.3436
  175SOPE  H17X19960   3.185   2.940   8.684 -0.2540  0.7940 -2.0843
  175SOPE  H17Y19961   3.072   2.810   8.609  1.1220  0.1377 -1.6525
  175SOPE  C31819962   3.286   2.787   8.592  0.0643 -0.8361  0.2961
  175SOPE  H18X19963   3.298   2.677   8.604 -1.3902 -0.9059  1.3317
  175SOPE  H18Y19964   3.374   2.838   8.637 -0.9978  0.7163  0.6741
  175SOPE  H18Z19965   3.270   2.812   8.485 -1.7722 -0.1527  0.7045
  176SOPE     N19966   2.117   5.547  11.004 -0.3263  0.4568 -0.3054
  176SOPE   HN119967   2.203   5.584  10.959  0.4375 -1.9696 -1.0266
  176SOPE   HN219968   2.070   5.628  11.048  1.6050  0.4814  1.8886
  176SOPE   HN319969   2.147   5.494  11.088 -1.4611  1.2007  0.6005
  176SOPE   C1219970   2.029   5.459  10.921  0.6647  0.1052 -0.1523
  176SOPE  H12A19971   1.974   5.399  10.997 -1.1905 -0.4954 -1.8776
  176SOPE  H12B19972   2.090   5.393  10.855 -0.3679  0.6335 -1.6738
  176SOPE   C1119973   1.936   5.538  10.823  0.1192 -0.3579  0.8538
  176SOPE  H11A19974   1.873   5.462  10.773 -1.2271  0.6449  0.9479
  176SOPE  H11B19975   2.003   5.597  10.756  0.3867 -2.4292 -0.8029
  176SOPE     P19976   1.756   5.732  10.828  0.3685  0.1106 -0.1679
  176SOPE   O1319977   1.843   5.804  10.734 -0.1666  0.2657  0.0830
  176SOPE   O1419978   1.696   5.819  10.936 -0.1725  0.2890 -0.1313
  176SOPE   O1219979   1.835   5.614  10.896 -0.2707 -0.0792  0.5434
  176SOPE   O1119980   1.648   5.650  10.746  0.0830 -0.1692 -0.2172
  176SOPE    C119981   1.583   5.536  10.793  0.3087 -0.0231 -0.2536
  176SOPE    HA19982   1.521   5.567  10.881  2.0441  1.5593  0.4760
  176SOPE    HB19983   1.659   5.468  10.838  0.8498  1.4177  1.0696
  176SOPE    C219984   1.508   5.461  10.681  0.0872  0.2170 -0.4771
  176SOPE    HS19985   1.461   5.370  10.724 -0.8914  0.4332 -1.0796
  176SOPE   O2119986   1.598   5.417  10.582 -0.3994  0.3628  0.6654
  176SOPE   C2119987   1.662   5.317  10.615  0.2050  0.2543  0.4483
  176SOPE   O2219988   1.640   5.244  10.711  0.4744  0.2342 -0.4417
  176SOPE   C2219989   1.770   5.288  10.512 -0.7929  0.1656  0.8733
  176SOPE   H2R19990   1.844   5.215  10.551 -1.0456 -0.4237  0.2874
  176SOPE   H2S19991   1.822   5.386  10.511 -1.4325  0.5080  0.2598
  176SOPE    C319992   1.397   5.556  10.630 -1.6738 -0.2978 -0.9698
  176SOPE    HX19993   1.440   5.645  10.581 -1.6495 -0.2461 -0.8537
  176SOPE    HY19994   1.344   5.580  10.724  2.8448  0.1728  1.7381
  176SOPE   O3119995   1.319   5.484  10.537 -0.2621  0.0625  0.0387
  176SOPE   C3119996   1.366   5.490  10.407  0.0466  0.1151  0.9143
  176SOPE   O3219997   1.471   5.539  10.375 -0.2058 -0.2382  0.1166
  176SOPE   C3219998   1.281   5.418  10.308 -0.3277 -0.1839 -0.1321
  176SOPE   H2X19999   1.180   5.456  10.280 -0.3317 -1.3315 -1.7924
  176SOPE   H2Y20000   1.270   5.320  10.358 -2.7701  0.1499  0.1151
  176SOPE   C2320001   1.721   5.264  10.365 -1.0355  0.3446  0.8682
  176SOPE   H3R20002   1.672   5.358  10.332 -1.3136  0.0660  0.4895
  176SOPE   H3S20003   1.656   5.175  10.352 -1.8640  0.6663  2.5326
  176SOPE   C2420004   1.844   5.249  10.275  0.1216  0.5053 -0.3629
  176SOPE   H4R20005   1.882   5.352  10.261 -2.4140  1.5509 -0.1677
  176SOPE   H4S20006   1.917   5.177  10.317 -3.4402 -2.3851  1.5013
  176SOPE   C2520007   1.807   5.207  10.132  0.5663 -0.3153  0.0715
  176SOPE   H5R20008   1.759   5.107  10.137 -0.5208  0.1703 -0.3010
  176SOPE   H5S20009   1.736   5.283  10.094 -0.2457  0.2783  2.5902
  176SOPE   C2620010   1.931   5.191  10.049  0.1410 -0.0205  0.2491
  176SOPE   H6R20011   1.886   5.197   9.947 -1.5246 -3.0571  0.6966
  176SOPE   H6S20012   1.997   5.276  10.077  1.1947 -1.2873  1.7308
  176SOPE   C2720013   2.011   5.061  10.061  0.1161  0.0374  0.1741
  176SOPE   H7R20014   2.058   5.061  10.162 -1.9685  1.0680  1.2046
  176SOPE   H7S20015   1.931   4.986  10.075 -0.5528  0.9783  1.6075
  176SOPE   C2820016   2.127   5.036   9.954  0.7179 -0.8196  0.4836
  176SOPE   H8R20017   2.145   5.140   9.919 -1.2773 -0.9865 -1.1964
  176SOPE   H8S20018   2.213   5.002  10.016  1.2418  0.0031  0.2235
  176SOPE   C2920019   2.102   4.937   9.847 -0.5608  0.3160 -0.0277
  176SOPE   H9120020   2.133   4.834   9.868 -0.9358  0.2141  0.0404
  176SOPE  C21020021   2.069   4.958   9.718  0.3393  0.3964 -0.3918
  176SOPE  H10120022   2.058   4.869   9.654  1.2544  0.0973 -0.1515
  176SOPE  C21120023   2.041   5.093   9.657 -0.1295  0.0578 -0.3398
  176SOPE  H11R20024   1.999   5.155   9.739  1.2382  0.6269 -0.0311
  176SOPE  H11S20025   1.975   5.082   9.569  1.4722 -2.1444 -1.3741
  176SOPE  C21220026   2.162   5.170   9.599  1.0376  0.0706  0.3260
  176SOPE  H12R20027   2.240   5.162   9.678  0.7393 -0.9804  0.5283
  176SOPE  H12S20028   2.136   5.277   9.583  1.4326  0.4023  1.7105
  176SOPE  C21320029   2.231   5.118   9.473  0.3427 -0.3716 -0.4158
  176SOPE  H13R20030   2.241   5.009   9.493 -1.4709 -0.3710  0.8007
  176SOPE  H13S20031   2.331   5.165   9.467  0.0691  0.4657  0.9347
  176SOPE  C21420032   2.149   5.159   9.348  0.5842 -0.4852 -0.4664
  176SOPE  H14R20033   2.170   5.268   9.342  2.2345 -0.5447  2.5633
  176SOPE  H14S20034   2.042   5.140   9.369  0.3180  0.5824 -0.8048
  176SOPE  C21520035   2.189   5.088   9.216  0.4130 -0.1470  0.3408
  176SOPE  H15R20036   2.189   4.978   9.232  1.5482  0.0671  2.0962
  176SOPE  H15S20037   2.290   5.111   9.177  0.8684 -1.5653  0.6069
  176SOPE  C21620038   2.092   5.122   9.103  0.2811 -0.2607 -0.3395
  176SOPE  H16R20039   1.992   5.094   9.143  1.1549 -1.8298  0.8922
  176SOPE  H16S20040   2.102   5.050   9.019 -0.9576 -1.6301  0.6274
  176SOPE  C21720041   2.101   5.262   9.056 -0.4557 -0.8475  0.3972
  176SOPE  H17R20042   2.203   5.283   9.016  0.0760 -0.7782  1.7447
  176SOPE  H17S20043   2.081   5.336   9.136  0.8019  0.1424 -0.1652
  176SOPE  C21820044   1.994   5.290   8.943 -0.2976 -0.0330  0.1370
  176SOPE  H18R20045   1.988   5.396   8.911 -1.7696  1.0570  3.5212
  176SOPE  H18S20046   1.893   5.259   8.978 -0.4633  1.2276  0.8417
  176SOPE  H18T20047   2.025   5.229   8.856 -1.2244  0.1085 -0.3058
  176SOPE   C3320048   1.362   5.411  10.174  0.3630 -0.2238  0.9071
  176SOPE   H3X20049   1.454   5.349  10.179  1.1244  0.6549 -1.1314
  176SOPE   H3Y20050   1.360   5.510  10.124 -0.5758 -0.9571 -0.5759
  176SOPE   C3420051   1.285   5.335  10.071  0.0905  0.6632 -0.7174
  176SOPE   H4X20052   1.190   5.391  10.058 -1.8157 -2.0247  0.6116
  176SOPE   H4Y20053   1.249   5.238  10.111 -1.2887  2.0599  1.6768
  176SOPE   C3520054   1.359   5.321   9.928 -0.5683  0.1254 -0.8856
  176SOPE   H5X20055   1.460   5.281   9.950 -0.9434 -1.0999 -1.3098
  176SOPE   H5Y20056   1.364   5.424   9.886 -1.8235  0.6021  0.0849
  176SOPE   C3620057   1.281   5.239   9.831 -0.6721 -0.4082  0.0349
  176SOPE   H6X20058   1.175   5.272   9.841 -0.1636  0.5139  3.3916
  176SOPE   H6Y20059   1.299   5.132   9.855 -0.6239 -0.1598  1.1470
  176SOPE   C3720060   1.318   5.257   9.682  0.1497 -0.6005 -0.3197
  176SOPE   H7X20061   1.428   5.251   9.669  0.4452 -0.6566  1.8501
  176SOPE   H7Y20062   1.281   5.359   9.655 -2.9632 -1.5723 -0.0944
  176SOPE   C3820063   1.262   5.147   9.586 -1.0087 -0.5158 -0.0126
  176SOPE   H8X20064   1.155   5.123   9.607 -1.2930  1.1090  0.4655
  176SOPE   H8Y20065   1.328   5.059   9.602  1.0338  0.6112 -1.7879
  176SOPE   C3920066   1.292   5.177   9.437 -0.2798  0.4204 -0.7469
  176SOPE   H9X20067   1.401   5.191   9.422  0.0293  0.2171  1.0934
  176SOPE   H9Y20068   1.251   5.279   9.421  0.0503  0.5952 -0.4946
  176SOPE  C31020069   1.225   5.075   9.343 -0.2250 -0.4047  0.1823
  176SOPE  H10X20070   1.117   5.067   9.369 -0.1072 -0.5389  0.6339
  176SOPE  H10Y20071   1.262   4.974   9.367 -0.3376 -0.6371 -0.5991
  176SOPE  C31120072   1.247   5.111   9.198  0.1828 -0.3810 -0.1850
  176SOPE  H11X20073   1.231   5.036   9.118 -1.6733  1.0185 -1.2317
  176SOPE  H11Y20074   1.353   5.144   9.197  0.7887 -2.2409  0.0610
  176SOPE  C31220075   1.167   5.236   9.153 -0.5748  0.1746 -0.4383
  176SOPE  H12X20076   1.189   5.317   9.226 -2.5277 -2.0743  2.9830
  176SOPE  H12Y20077   1.059   5.210   9.159 -0.2136 -2.1013 -2.1441
  176SOPE  C31320078   1.202   5.274   9.004 -0.0920  0.3544  0.3396
  176SOPE  H13X20079   1.312   5.282   8.990 -0.2780 -0.8019 -2.3482
  176SOPE  H13Y20080   1.166   5.378   8.993 -3.3260 -0.3266  2.9107
  176SOPE  C31420081   1.134   5.187   8.897  0.2608 -0.6010 -0.9965
  176SOPE  H14X20082   1.029   5.170   8.929  0.4422  0.8352  0.5378
  176SOPE  H14Y20083   1.189   5.091   8.894 -1.5964 -1.6882 -1.7929
  176SOPE  C31520084   1.140   5.247   8.755 -0.5566 -0.9918 -0.1370
  176SOPE  H15X20085   1.248   5.260   8.731 -0.1133 -0.5695  1.9358
  176SOPE  H15Y20086   1.101   5.351   8.758  1.4269 -0.2107  3.2241
  176SOPE  C31620087   1.069   5.165   8.650 -0.6786 -0.1746  1.0892
  176SOPE  H16X20088   0.970   5.126   8.680 -0.5753 -2.8475 -1.5348
  176SOPE  H16Y20089   1.127   5.076   8.615 -0.8958  0.5208 -1.2604
  176SOPE  C31720090   1.033   5.246   8.531  1.0142 -0.4559 -0.6647
  176SOPE  H17X20091   0.967   5.331   8.558  2.7465  0.2105  1.8942
  176SOPE  H17Y20092   0.977   5.188   8.454  1.2268 -0.4062 -0.8589
  176SOPE  C31820093   1.155   5.298   8.465  0.1891 -0.5599  0.0163
  176SOPE  H18X20094   1.121   5.336   8.366  2.5120 -0.4639 -0.7891
  176SOPE  H18Y20095   1.232   5.219   8.457  1.6380  0.9153 -1.7188
  176SOPE  H18Z20096   1.204   5.379   8.523 -0.5771 -1.0948  1.4469
  177SOPE     N20097   2.344   3.764  10.784 -0.3791 -0.7741 -0.1860
  177SOPE   HN120098   2.255   3.733  10.829  0.2990  2.3154  3.9305
  177SOPE   HN220099   2.388   3.686  10.730 -0.2356 -0.1219 -1.0275
  177SOPE   HN320100   2.414   3.796  10.854 -1.3626  0.0100  0.4766
  177SOPE   C1220101   2.292   3.863  10.676 -1.4133  0.2795 -0.6450
  177SOPE  H12A20102   2.233   3.801  10.605  2.0916 -2.7816 -1.1861
  177SOPE  H12B20103   2.384   3.909  10.634 -0.2515 -2.9675 -2.0430
  177SOPE   C1120104   2.214   3.974  10.750  0.3329 -0.2177  0.7982
  177SOPE  H11A20105   2.186   4.055  10.678 -4.1315 -1.3173  0.9894
  177SOPE  H11B20106   2.281   4.038  10.811  0.9478  2.3350 -2.2577
  177SOPE     P20107   1.960   3.925  10.783 -0.0319  0.3815  0.0438
  177SOPE   O1320108   1.911   4.059  10.798  0.1337 -0.0979  0.4109
  177SOPE   O1420109   1.881   3.823  10.855 -0.0564  0.3171 -0.3056
  177SOPE   O1220110   2.104   3.927  10.831 -0.2250  0.9809  0.7753
  177SOPE   O1120111   1.963   3.882  10.632 -0.4718  0.6675 -0.0047
  177SOPE    C120112   1.920   3.978  10.528 -0.1129 -0.0151 -0.7915
  177SOPE    HA20113   1.976   3.956  10.435  2.5547  0.0941  0.6719
  177SOPE    HB20114   1.959   4.081  10.544  2.8374 -1.0969 -0.4784
  177SOPE    C220115   1.768   3.969  10.502  0.0216 -0.1462  0.2347
  177SOPE    HS20116   1.724   3.996  10.600  3.6109  0.6750  1.7792
  177SOPE   O2120117   1.738   3.837  10.451 -0.3844 -0.2712  0.2824
  177SOPE   C2120118   1.608   3.804  10.465 -0.5940 -0.2807 -0.3550
  177SOPE   O2220119   1.518   3.874  10.506  0.1631 -0.4349 -0.6710
  177SOPE   C2220120   1.592   3.659  10.418  0.3356 -0.7816 -0.2469
  177SOPE   H2R20121   1.482   3.652  10.425  0.1975  1.9622  2.1429
  177SOPE   H2S20122   1.634   3.594  10.497 -1.0911  0.2662  1.4246
  177SOPE    C320123   1.723   4.086  10.403 -0.4338 -0.4652  0.1331
  177SOPE    HX20124   1.740   4.189  10.442  0.8749 -0.6085 -0.0285
  177SOPE    HY20125   1.612   4.077  10.395 -0.4568 -0.4966  0.4740
  177SOPE   O3120126   1.786   4.081  10.272  0.0433  0.5542 -0.0650
  177SOPE   C3120127   1.712   4.045  10.177 -0.3324  1.0403  0.1669
  177SOPE   O3220128   1.610   3.982  10.185 -0.3335  0.4122  0.1105
  177SOPE   C3220129   1.775   4.098  10.046 -0.0143  0.6097 -0.9723
  177SOPE   H2X20130   1.872   4.044  10.040 -0.2463  0.1516 -0.6457
  177SOPE   H2Y20131   1.780   4.208  10.061  0.1599  0.5014 -0.2067
  177SOPE   C2320132   1.648   3.632  10.282 -0.2573 -0.5213 -0.8987
  177SOPE   H3R20133   1.695   3.532  10.276 -0.0509 -0.4655 -0.2860
  177SOPE   H3S20134   1.739   3.689  10.254  0.3196 -0.2434  1.3506
  177SOPE   C2420135   1.547   3.658  10.166 -0.0193  0.2626 -0.4154
  177SOPE   H4R20136   1.492   3.562  10.164 -1.0634  0.7278  2.0305
  177SOPE   H4S20137   1.487   3.750  10.182  1.1064  0.8788  0.4601
  177SOPE   C2520138   1.605   3.682  10.031  0.0145 -0.4835  0.1229
  177SOPE   H5R20139   1.639   3.787  10.027 -2.1982  0.2596 -2.7887
  177SOPE   H5S20140   1.701   3.633  10.004 -0.1714 -0.7223 -0.1223
  177SOPE   C2620141   1.512   3.680   9.910  0.0230 -0.6340  0.3440
  177SOPE   H6R20142   1.439   3.598   9.921 -1.0135  0.2402  0.1797
  177SOPE   H6S20143   1.462   3.779   9.924  1.1913  0.3495 -1.8664
  177SOPE   C2720144   1.586   3.672   9.775  0.1984 -0.8972  0.8291
  177SOPE   H7R20145   1.664   3.751   9.772 -0.8412  0.1653  1.4119
  177SOPE   H7S20146   1.633   3.572   9.763 -0.6742 -1.0082 -3.3123
  177SOPE   C2820147   1.487   3.718   9.666 -0.4206 -0.4551  0.1291
  177SOPE   H8R20148   1.392   3.664   9.687 -0.4967 -0.6305 -0.6703
  177SOPE   H8S20149   1.471   3.827   9.680 -2.5685 -0.3568 -2.2707
  177SOPE   C2920150   1.540   3.696   9.526 -0.6239 -0.0417 -0.6399
  177SOPE   H9120151   1.649   3.710   9.521 -0.4677 -1.1617 -0.5672
  177SOPE  C21020152   1.477   3.678   9.414  0.0069  0.4196  0.7060
  177SOPE  H10120153   1.546   3.664   9.330 -0.7844 -3.2054  0.4927
  177SOPE  C21120154   1.325   3.661   9.393 -0.5439 -0.0706  0.0947
  177SOPE  H11R20155   1.285   3.723   9.309  0.2638 -0.8929 -0.9333
  177SOPE  H11S20156   1.269   3.695   9.482  1.0030  0.6358  0.8429
  177SOPE  C21220157   1.302   3.516   9.350  0.7505 -0.0156 -0.4508
  177SOPE  H12R20158   1.192   3.500   9.353  0.5254  1.4406  0.2247
  177SOPE  H12S20159   1.352   3.448   9.422 -0.6499  0.8348  1.4063
  177SOPE  C21320160   1.350   3.485   9.205  0.1674  0.1441  0.5111
  177SOPE  H13R20161   1.316   3.381   9.185 -0.6681  0.1138  1.9809
  177SOPE  H13S20162   1.460   3.494   9.193  0.1439 -0.7840 -0.6407
  177SOPE  C21420163   1.276   3.570   9.107 -0.5041  0.3095 -0.4571
  177SOPE  H14R20164   1.292   3.680   9.112 -1.0145  0.3358  1.6578
  177SOPE  H14S20165   1.170   3.548   9.134  0.6483 -2.8428  2.2858
  177SOPE  C21520166   1.304   3.514   8.959  0.7510 -0.1647 -0.2921
  177SOPE  H15R20167   1.279   3.406   8.959 -0.2646  0.0618  0.0213
  177SOPE  H15S20168   1.412   3.525   8.932  0.6893  0.0945 -0.4348
  177SOPE  C21620169   1.214   3.589   8.855  0.3268 -0.0272  0.3007
  177SOPE  H16R20170   1.256   3.582   8.753 -3.7419  0.2189 -1.5782
  177SOPE  H16S20171   1.213   3.697   8.880 -2.5124  0.1227 -0.1995
  177SOPE  C21720172   1.069   3.542   8.856  0.0825  1.0623  0.2890
  177SOPE  H17R20173   1.018   3.583   8.947  3.3909  1.9990  1.8830
  177SOPE  H17S20174   1.065   3.432   8.862  0.2157  1.0582  0.3047
  177SOPE  C21820175   0.990   3.588   8.728 -0.1080 -0.3288  0.1989
  177SOPE  H18R20176   0.890   3.549   8.756 -0.7814  0.3655 -1.1226
  177SOPE  H18S20177   1.028   3.525   8.644 -1.4610 -2.5406  1.1586
  177SOPE  H18T20178   0.988   3.699   8.719  2.3557 -0.2792 -0.4358
  177SOPE   C3320179   1.692   4.065   9.919  0.3144  0.4253 -0.1598
  177SOPE   H3X20180   1.596   4.121   9.910 -0.7802 -1.3449  0.0341
  177SOPE   H3Y20181   1.652   3.962   9.924 -2.0156  1.3317  1.5082
  177SOPE   C3420182   1.775   4.082   9.786 -0.5839 -0.6355 -0.7354
  177SOPE   H4X20183   1.868   4.022   9.785  0.9703  1.6783 -0.9993
  177SOPE   H4Y20184   1.814   4.186   9.783 -0.3831 -0.6123  1.2561
  177SOPE   C3520185   1.694   4.058   9.662  0.1438 -0.1579  0.4998
  177SOPE   H5X20186   1.593   4.101   9.678  0.7641  0.4779  3.0648
  177SOPE   H5Y20187   1.684   3.947   9.658 -1.0216 -0.0594  0.2279
  177SOPE   C3620188   1.745   4.121   9.532  0.3539 -0.8765  0.2183
  177SOPE   H6X20189   1.844   4.072   9.520  1.5214  1.8148 -2.1321
  177SOPE   H6Y20190   1.738   4.230   9.515  0.8524 -1.1768 -2.2673
  177SOPE   C3720191   1.664   4.068   9.414 -0.2311  0.6659  0.1933
  177SOPE   H7X20192   1.567   4.122   9.410 -0.8170 -0.0980  2.4684
  177SOPE   H7Y20193   1.636   3.960   9.414 -1.4003  0.8791 -2.7902
  177SOPE   C3820194   1.730   4.092   9.282  0.1300 -0.6355  0.2404
  177SOPE   H8X20195   1.840   4.079   9.288  0.0682 -0.6994  1.3134
  177SOPE   H8Y20196   1.712   4.199   9.256  2.3095 -0.6337 -1.4713
  177SOPE   C3920197   1.666   4.016   9.165 -0.4635 -0.3914  0.2486
  177SOPE   H9X20198   1.659   4.099   9.091  2.3139 -0.3811 -0.1084
  177SOPE   H9Y20199   1.562   3.980   9.179 -0.7931  0.6248  0.5827
  177SOPE  C31020200   1.757   3.908   9.107 -0.3884  0.1748  0.2503
  177SOPE  H10X20201   1.771   3.834   9.189  0.5152 -0.7299 -0.6964
  177SOPE  H10Y20202   1.855   3.945   9.072  0.9984 -2.5964  0.9070
  177SOPE  C31120203   1.679   3.847   8.991 -1.2939 -0.2042  0.4522
  177SOPE  H11X20204   1.582   3.806   9.026 -0.5631 -1.8664  0.6257
  177SOPE  H11Y20205   1.743   3.764   8.954  0.5436  0.8871  1.0841
  177SOPE  C31220206   1.668   3.947   8.872  0.7091 -0.3230 -0.7949
  177SOPE  H12X20207   1.766   3.979   8.832  1.3871 -2.4132 -0.9036
  177SOPE  H12Y20208   1.617   4.040   8.905  1.2457  0.6595 -2.6192
  177SOPE  C31320209   1.591   3.888   8.760 -0.0359  0.6771 -0.1949
  177SOPE  H13X20210   1.493   3.847   8.794 -0.3239  2.1080  0.7778
  177SOPE  H13Y20211   1.648   3.812   8.702  0.8656  1.6137 -0.5659
  177SOPE  C31420212   1.557   3.990   8.649 -0.3648 -0.6234 -0.8762
  177SOPE  H14X20213   1.654   4.006   8.597  0.1208 -0.7770 -0.0464
  177SOPE  H14Y20214   1.529   4.086   8.697  2.2567 -0.2783  0.1316
  177SOPE  C31520215   1.445   3.947   8.554 -0.5798  1.5579 -0.7479
  177SOPE  H15X20216   1.407   4.030   8.490 -2.7994  0.2353 -1.2571
  177SOPE  H15Y20217   1.363   3.917   8.623  0.4311  1.6728  0.5319
  177SOPE  C31620218   1.488   3.820   8.468 -0.3861 -0.1926 -0.2609
  177SOPE  H16X20219   1.519   3.738   8.535  0.2132 -0.6012 -1.0238
  177SOPE  H16Y20220   1.582   3.832   8.410 -0.1565  0.9007  0.3134
  177SOPE  C31720221   1.381   3.781   8.367  0.4959  0.1859 -0.5221
  177SOPE  H17X20222   1.354   3.873   8.310 -3.5499  0.9266  2.1118
  177SOPE  H17Y20223   1.297   3.754   8.435  3.2837 -0.9585  2.7449
  177SOPE  C31820224   1.414   3.664   8.272 -0.5928  0.5157  0.3718
  177SOPE  H18X20225   1.509   3.684   8.217 -1.1065 -0.1675 -0.8002
  177SOPE  H18Y20226   1.334   3.654   8.196 -0.3421 -0.2122  0.2017
  177SOPE  H18Z20227   1.422   3.567   8.325  0.6987 -0.9721 -2.3158
  178SOPE     N20228   0.691   2.079  10.981  0.4885 -0.0195 -0.1427
  178SOPE   HN120229   0.705   2.161  10.918 -1.2558  0.2538 -0.2277
  178SOPE   HN220230   0.591   2.050  10.970  0.7004 -0.3024 -1.5497
  178SOPE   HN320231   0.706   2.130  11.070 -0.7156  1.5744 -0.8094
  178SOPE   C1220232   0.791   1.971  10.958 -0.4050  0.5044 -0.4241
  178SOPE  H12A20233   0.782   1.923  10.859  1.4474  0.1845 -0.4784
  178SOPE  H12B20234   0.769   1.887  11.027  0.9441 -1.0438 -1.7960
  178SOPE   C1120235   0.929   2.031  10.990 -0.2610 -0.2840  0.2940
  178SOPE  H11A20236   0.994   1.942  10.980 -0.6756 -0.5181 -0.4350
  178SOPE  H11B20237   0.933   2.077  11.091 -1.4404  3.2812 -1.1262
  178SOPE     P20238   1.090   2.150  10.815  0.3576  0.1194 -0.2417
  178SOPE   O1320239   1.198   2.171  10.913  0.1263  0.1343 -0.2164
  178SOPE   O1420240   1.073   2.248  10.705 -0.6428 -0.4534 -1.1041
  178SOPE   O1220241   0.958   2.129  10.892 -0.1641 -0.2759 -0.5034
  178SOPE   O1120242   1.104   2.000  10.763 -0.1949 -0.2544 -0.4486
  178SOPE    C120243   0.995   1.963  10.675 -0.3836 -0.6500 -0.3299
  178SOPE    HA20244   0.921   2.043  10.653  1.6531  0.9357 -1.9091
  178SOPE    HB20245   0.939   1.872  10.706 -1.3925  0.3091  0.7387
  178SOPE    C220246   1.045   1.920  10.529  0.1903  1.1852  0.0969
  178SOPE    HS20247   1.142   1.867  10.537  0.6590  1.9142 -0.6306
  178SOPE   O2120248   1.046   2.035  10.440  0.1543 -0.3188 -0.3923
  178SOPE   C2120249   1.168   2.095  10.422 -0.3161  0.6410  0.4895
  178SOPE   O2220250   1.272   2.047  10.457  0.1108  0.4829  0.1005
  178SOPE   C2220251   1.147   2.232  10.353 -0.3454 -0.4180  0.2381
  178SOPE   H2R20252   1.239   2.294  10.364 -0.7277  0.4967 -1.5148
  178SOPE   H2S20253   1.070   2.287  10.411  0.0391 -0.9597  1.2907
  178SOPE    C320254   0.942   1.812  10.470 -0.2643  0.1372  0.2058
  178SOPE    HX20255   0.845   1.863  10.492  0.2413  0.0073  3.1360
  178SOPE    HY20256   0.949   1.716  10.524  0.8833 -0.4457 -0.9178
  178SOPE   O3120257   0.965   1.783  10.328  0.5317  0.1344 -0.4811
  178SOPE   C3120258   0.901   1.852  10.239 -0.1868 -0.4807  0.2663
  178SOPE   O3220259   0.805   1.925  10.261 -0.4342  0.3873  0.0590
  178SOPE   C3220260   0.963   1.821  10.102  0.3591 -0.2816  0.8787
  178SOPE   H2X20261   0.945   1.715  10.073 -1.6694 -0.3008  2.0000
  178SOPE   H2Y20262   1.072   1.839  10.117 -0.2091  2.9926  1.9264
  178SOPE   C2320263   1.112   2.218  10.199  0.5098  0.7885 -0.3779
  178SOPE   H3R20264   1.063   2.311  10.165 -2.3395 -0.8402 -1.0705
  178SOPE   H3S20265   1.036   2.138  10.183 -0.2749  1.3924  0.2507
  178SOPE   C2420266   1.225   2.193  10.102 -0.3581  0.2701  0.2152
  178SOPE   H4R20267   1.287   2.121  10.160  1.0561  1.6468  0.4763
  178SOPE   H4S20268   1.189   2.153  10.005  0.3012  0.0815  0.0435
  178SOPE   C2520269   1.283   2.327  10.075  0.4471  0.0024 -0.2888
  178SOPE   H5R20270   1.215   2.382  10.006 -0.0876 -0.4778 -0.1460
  178SOPE   H5S20271   1.285   2.371  10.177 -0.8377  2.7462 -1.3356
  178SOPE   C2620272   1.428   2.323  10.026  0.6395 -0.3121 -0.2482
  178SOPE   H6R20273   1.457   2.430  10.018  0.7831 -0.4222 -1.4216
  178SOPE   H6S20274   1.487   2.271  10.105  0.9743 -0.6693 -0.7322
  178SOPE   C2720275   1.462   2.265   9.893 -0.7687  0.0189  0.6369
  178SOPE   H7R20276   1.465   2.154   9.901 -0.7861  0.0928  2.0470
  178SOPE   H7S20277   1.384   2.288   9.817  1.1749  0.9625 -1.1691
  178SOPE   C2820278   1.600   2.322   9.849 -0.8087 -0.5435 -0.2561
  178SOPE   H8R20279   1.633   2.267   9.758  2.4539  1.5777 -0.4975
  178SOPE   H8S20280   1.579   2.429   9.827 -2.5181 -1.0749 -1.3958
  178SOPE   C2920281   1.716   2.298   9.945  0.9969  0.7349 -0.5090
  178SOPE   H9120282   1.733   2.191   9.967 -2.1221 -0.0349 -1.2821
  178SOPE  C21020283   1.781   2.388  10.012 -0.2959  0.1731 -0.1831
  178SOPE  H10120284   1.870   2.358  10.069 -0.4444 -2.5531 -1.2421
  178SOPE  C21120285   1.766   2.537   9.996 -0.0036 -0.0599 -0.1873
  178SOPE  H11R20286   1.786   2.582  10.095  0.1008 -0.0747 -0.2018
  178SOPE  H11S20287   1.660   2.559   9.970 -0.2427 -1.8029 -0.8389
  178SOPE  C21220288   1.860   2.608   9.897  0.0343  0.2872  0.4823
  178SOPE  H12R20289   1.842   2.718   9.896  0.7992  0.4306 -1.4976
  178SOPE  H12S20290   1.844   2.566   9.796  1.3102 -0.9390  0.7540
  178SOPE  C21320291   2.009   2.600   9.933  0.2289 -0.4490  0.5562
  178SOPE  H13R20292   2.015   2.617  10.043 -0.7851 -3.4371  1.1602
  178SOPE  H13S20293   2.059   2.691   9.895 -2.5489 -0.1413 -2.8817
  178SOPE  C21420294   2.072   2.465   9.905  0.3661 -0.7384 -0.3269
  178SOPE  H14R20295   2.015   2.373   9.932  0.5960 -0.9796 -0.6536
  178SOPE  H14S20296   2.169   2.454   9.959 -0.5767  2.5844  2.3175
  178SOPE  C21520297   2.122   2.454   9.755  0.2391 -0.1519 -0.0258
  178SOPE  H15R20298   2.039   2.484   9.688  0.8767 -1.0443 -1.2556
  178SOPE  H15S20299   2.145   2.347   9.735 -1.3406 -0.4856 -0.1528
  178SOPE  C21620300   2.248   2.548   9.740  1.0564 -0.0961 -0.3597
  178SOPE  H16R20301   2.329   2.517   9.810  1.5322 -1.0243 -1.3038
  178SOPE  H16S20302   2.217   2.650   9.772  0.8139 -0.9884  2.6015
  178SOPE  C21720303   2.289   2.545   9.590 -0.2409 -0.7588  0.7815
  178SOPE  H17R20304   2.325   2.442   9.568 -0.0155 -0.2787 -1.3026
  178SOPE  H17S20305   2.374   2.614   9.571 -0.0463 -2.1056 -5.1424
  178SOPE  C21820306   2.168   2.584   9.493 -0.0240  0.5857 -0.8557
  178SOPE  H18R20307   2.105   2.498   9.465 -1.1643  0.1271  2.5892
  178SOPE  H18S20308   2.217   2.633   9.406  0.3841  0.0645 -0.9236
  178SOPE  H18T20309   2.103   2.663   9.537  0.0689  0.9960 -1.4388
  178SOPE   C3320310   0.919   1.922   9.992 -0.4527  0.3693 -0.4806
  178SOPE   H3X20311   0.966   2.019  10.020  1.5418 -0.3569 -1.1407
  178SOPE   H3Y20312   0.809   1.934   9.988 -0.6377 -1.1129 -0.3751
  178SOPE   C3420313   0.967   1.862   9.856 -0.0325 -0.8584  0.0422
  178SOPE   H4X20314   0.912   1.769   9.830 -0.6637 -0.4288 -0.1993
  178SOPE   H4Y20315   1.074   1.833   9.862  0.1869  0.1488  1.3643
  178SOPE   C3520316   0.935   1.958   9.745 -0.3401  0.0398  0.2773
  178SOPE   H5X20317   0.921   2.065   9.773 -0.9908 -0.1584  0.7414
  178SOPE   H5Y20318   0.838   1.924   9.705  1.0248 -0.3256 -3.0224
  178SOPE   C3620319   1.040   1.956   9.636 -0.2459 -0.5778 -0.9048
  178SOPE   H6X20320   1.034   1.863   9.576 -0.4929  0.1688 -2.0809
  178SOPE   H6Y20321   1.141   1.973   9.679 -0.7723 -0.0561  0.1605
  178SOPE   C3720322   1.019   2.062   9.523 -0.0089 -0.5285  0.1475
  178SOPE   H7X20323   1.010   2.163   9.567 -2.3701  0.0314 -1.4580
  178SOPE   H7Y20324   0.919   2.051   9.476  0.3521  0.1378 -0.7899
  178SOPE   C3820325   1.129   2.056   9.424  0.6507  0.2473  0.2587
  178SOPE   H8X20326   1.136   1.952   9.385 -1.9733 -0.9741  2.6824
  178SOPE   H8Y20327   1.215   2.100   9.479  1.7413 -1.1628 -0.2563
  178SOPE   C3920328   1.112   2.154   9.306  0.0515 -0.4011  0.7734
  178SOPE   H9X20329   1.135   2.258   9.336 -1.7007 -0.5747  2.9836
  178SOPE   H9Y20330   1.005   2.144   9.275  0.1350 -0.0293  0.3571
  178SOPE  C31020331   1.210   2.133   9.186 -0.1882  0.6439 -0.7410
  178SOPE  H10X20332   1.230   2.027   9.160  0.1752  0.2710  0.9095
  178SOPE  H10Y20333   1.312   2.150   9.225  0.0134 -0.7595 -0.6194
  178SOPE  C31120334   1.169   2.203   9.057  0.3691  0.2848 -0.9617
  178SOPE  H11X20335   1.151   2.311   9.077 -2.1750 -0.5499  2.2793
  178SOPE  H11Y20336   1.071   2.159   9.027  0.2264 -1.3947  1.6585
  178SOPE  C31220337   1.275   2.212   8.948  0.8572 -0.3293 -0.8295
  178SOPE  H12X20338   1.294   2.108   8.914 -0.6220 -1.0169  0.3091
  178SOPE  H12Y20339   1.362   2.264   8.992  0.3715  0.4593 -0.7696
  178SOPE  C31320340   1.221   2.277   8.818  0.7062 -0.4649 -0.7030
  178SOPE  H13X20341   1.186   2.378   8.848 -1.2407 -1.2428 -0.2017
  178SOPE  H13Y20342   1.138   2.218   8.774  0.1134  0.7885 -1.3245
  178SOPE  C31420343   1.330   2.284   8.714  0.8219  0.6015  0.6304
  178SOPE  H14X20344   1.395   2.193   8.709 -1.4240 -1.0267 -1.0444
  178SOPE  H14Y20345   1.388   2.372   8.747 -0.6406  2.5402 -1.6601
  178SOPE  C31520346   1.284   2.314   8.566  0.0623 -0.0599 -0.0728
  178SOPE  H15X20347   1.373   2.365   8.522  0.1698  0.3110  0.5542
  178SOPE  H15Y20348   1.193   2.378   8.565  0.7553  0.9580 -1.6597
  178SOPE  C31620349   1.250   2.187   8.491 -0.1003  0.4710  0.6337
  178SOPE  H16X20350   1.175   2.137   8.557  0.3786 -2.1962 -0.6869
  178SOPE  H16Y20351   1.342   2.124   8.493  0.1104  0.6703 -1.3588
  178SOPE  C31720352   1.195   2.211   8.352  0.1273 -0.0538  0.1823
  178SOPE  H17X20353   1.181   2.118   8.293  2.5782  0.0620 -0.6639
  178SOPE  H17Y20354   1.259   2.284   8.298 -1.4118 -0.3298 -2.1993
  178SOPE  C31820355   1.054   2.282   8.358 -0.0475  0.2696 -0.3771
  178SOPE  H18X20356   1.063   2.383   8.403  0.9094 -0.1994  0.5422
  178SOPE  H18Y20357   0.986   2.222   8.422  0.4162 -0.4564 -0.5537
  178SOPE  H18Z20358   1.016   2.294   8.254  0.3919 -0.0598 -0.5809
  179SOPE     N20359   4.324   3.549   6.506  0.2905  0.4761 -0.1087
  179SOPE   HN120360   4.264   3.623   6.465  0.5167  0.5910 -0.2351
  179SOPE   HN220361   4.420   3.563   6.467  1.2998 -0.1876  1.9698
  179SOPE   HN320362   4.284   3.457   6.479 -1.4173  1.2997 -0.4898
  179SOPE   C1220363   4.331   3.543   6.657  1.1091  0.4593 -0.5486
  179SOPE  H12A20364   4.242   3.489   6.698  0.4983  2.3425  0.7628
  179SOPE  H12B20365   4.318   3.645   6.700 -3.5253 -0.3969  0.6870
  179SOPE   C1120366   4.460   3.475   6.706 -0.3706 -0.4869  0.2860
  179SOPE  H11A20367   4.478   3.482   6.815  2.4986 -1.5194 -0.0257
  179SOPE  H11B20368   4.541   3.532   6.656 -1.8456 -1.5097 -3.6366
  179SOPE     P20369   4.588   3.244   6.691  0.2763  0.1198 -0.0617
  179SOPE   O1320370   4.673   3.237   6.563 -0.1345 -0.0808  0.4991
  179SOPE   O1420371   4.528   3.116   6.727 -0.0515  0.3104  0.6162
  179SOPE   O1220372   4.469   3.342   6.666  0.8417 -0.2054  0.3827
  179SOPE   O1120373   4.679   3.304   6.803 -0.0724  0.4159 -0.7814
  179SOPE    C120374   4.805   3.375   6.777  0.7635  0.3822  0.5905
  179SOPE    HA20375   4.798   3.448   6.693  0.2639  0.8647  1.0450
  179SOPE    HB20376   4.887   3.307   6.745 -0.6317 -1.5569  0.9593
  179SOPE    C220377   4.856   3.448   6.905 -0.1656  0.3458 -0.2947
  179SOPE    HS20378   4.963   3.474   6.890 -0.1495 -0.1912 -1.2252
  179SOPE   O2120379   4.833   3.365   7.022 -0.0560 -0.6009 -0.3790
  179SOPE   C2120380   4.892   3.253   7.022  0.0633 -0.4514 -0.2689
  179SOPE   O2220381   4.978   3.218   6.946 -0.4547 -0.1622  0.6627
  179SOPE   C2220382   4.851   3.174   7.150 -0.3775  0.0398  0.1582
  179SOPE   H2R20383   4.740   3.173   7.154 -0.3866 -2.1105  0.5911
  179SOPE   H2S20384   4.893   3.236   7.233 -0.7286  3.0619 -1.7551
  179SOPE    C320385   4.772   3.580   6.925  0.0163 -2.2475 -0.4614
  179SOPE    HX20386   4.664   3.553   6.929 -0.7337  0.5034  0.4770
  179SOPE    HY20387   4.782   3.652   6.841  0.3336 -0.9567  0.6439
  179SOPE   O3120388   4.809   3.649   7.048 -0.3612 -0.3628 -0.6536
  179SOPE   C3120389   4.718   3.731   7.100  0.1199 -0.3132  0.9111
  179SOPE   O3220390   4.618   3.761   7.045  0.2648 -0.0952 -0.4917
  179SOPE   C3220391   4.759   3.783   7.244 -0.1172  0.4043  0.1676
  179SOPE   H2X20392   4.825   3.872   7.234  0.2561  0.1852  0.6259
  179SOPE   H2Y20393   4.811   3.704   7.303  1.2900  1.3463  0.2364
  179SOPE   C2320394   4.887   3.023   7.136 -0.3728  0.3038 -0.4278
  179SOPE   H3R20395   4.997   3.016   7.146  0.2453  1.0733 -4.7118
  179SOPE   H3S20396   4.855   2.987   7.036  3.1643 -0.4804 -1.4287
  179SOPE   C2420397   4.823   2.931   7.238 -0.2798 -0.7527  0.0214
  179SOPE   H4R20398   4.716   2.934   7.208  0.5732  0.6706 -3.4618
  179SOPE   H4S20399   4.864   2.829   7.222 -0.1211 -0.4953 -1.4042
  179SOPE   C2520400   4.829   2.960   7.387  0.8193 -0.2072 -0.9420
  179SOPE   H5R20401   4.935   2.979   7.418  1.8699 -4.1298 -1.6400
  179SOPE   H5S20402   4.779   3.059   7.397 -1.5347 -1.4962  1.3345
  179SOPE   C2620403   4.750   2.860   7.472 -0.3468 -0.6032  0.3380
  179SOPE   H6R20404   4.643   2.857   7.442  0.1263 -1.4559 -1.4151
  179SOPE   H6S20405   4.796   2.759   7.458 -0.8521 -0.8726  0.5900
  179SOPE   C2720406   4.762   2.906   7.618 -0.5558 -0.3170 -0.4040
  179SOPE   H7R20407   4.755   3.017   7.626  0.4166 -0.1146 -1.8950
  179SOPE   H7S20408   4.682   2.864   7.682 -0.9032 -0.0827 -0.6754
  179SOPE   C2820409   4.905   2.881   7.678  0.1331 -0.6370  0.9937
  179SOPE   H8R20410   4.997   2.907   7.622 -1.0580  0.3174 -0.5891
  179SOPE   H8S20411   4.915   2.959   7.756 -2.4758 -0.3188  1.1252
  179SOPE   C2920412   4.916   2.736   7.730 -0.5030  0.2478 -0.0825
  179SOPE   H9120413   4.941   2.658   7.657  1.4107  2.0095 -1.4264
  179SOPE  C21020414   4.891   2.687   7.850 -0.0662 -0.2331  0.3596
  179SOPE  H10120415   4.909   2.580   7.867  3.4502  0.4039  1.5359
  179SOPE  C21120416   4.858   2.773   7.971  0.0854 -0.4219  0.3508
  179SOPE  H11R20417   4.806   2.869   7.952  1.4451  0.4935  1.0587
  179SOPE  H11S20418   4.953   2.798   8.024 -0.9063 -1.4737  2.7867
  179SOPE  C21220419   4.786   2.712   8.092 -0.0295  0.0624  0.7459
  179SOPE  H12R20420   4.686   2.678   8.058  1.2630 -2.9617 -0.4288
  179SOPE  H12S20421   4.784   2.794   8.167 -1.3382  1.3775 -0.6700
  179SOPE  C21320422   4.856   2.587   8.139 -0.2456 -0.1998  0.6261
  179SOPE  H13R20423   4.963   2.605   8.161  0.0561 -0.0577 -0.8692
  179SOPE  H13S20424   4.841   2.501   8.069 -1.6050 -0.9265  1.7522
  179SOPE  C21420425   4.786   2.532   8.266 -1.0507  0.3086  0.0682
  179SOPE  H14R20426   4.680   2.517   8.237 -0.5535 -0.7849 -1.2675
  179SOPE  H14S20427   4.781   2.611   8.344 -0.2990  0.1792  0.2604
  179SOPE  C21520428   4.853   2.411   8.331 -0.4093 -0.5161 -0.0734
  179SOPE  H15R20429   4.951   2.429   8.382  0.2266 -0.0950 -1.3937
  179SOPE  H15S20430   4.881   2.342   8.249  0.8052  2.8666 -2.7136
  179SOPE  C21620431   4.759   2.349   8.435  0.0839  0.3281 -0.0042
  179SOPE  H16R20432   4.673   2.311   8.376  0.0088 -2.3699  1.6400
  179SOPE  H16S20433   4.731   2.423   8.512  1.4517  0.5149  0.3289
  179SOPE  C21720434   4.806   2.219   8.505 -0.6955 -0.1575  0.2763
  179SOPE  H17R20435   4.899   2.238   8.563  0.1397  3.0969 -1.8505
  179SOPE  H17S20436   4.833   2.147   8.424 -0.2532 -1.9234  1.9300
  179SOPE  C21820437   4.697   2.168   8.596  0.4599  0.6092  0.5177
  179SOPE  H18R20438   4.689   2.237   8.682 -1.2591  0.0620  0.8420
  179SOPE  H18S20439   4.719   2.065   8.631 -0.1206  0.3443  0.1121
  179SOPE  H18T20440   4.596   2.174   8.550  1.3603  0.8207 -1.5382
  179SOPE   C3320441   4.631   3.836   7.316 -0.1825  0.6746 -0.3874
  179SOPE   H3X20442   4.548   3.765   7.337  0.6028  0.2506  1.4155
  179SOPE   H3Y20443   4.597   3.919   7.250  1.4611  0.9820 -0.9108
  179SOPE   C3420444   4.677   3.889   7.452 -0.0074  0.3908 -0.8109
  179SOPE   H4X20445   4.715   3.992   7.439  1.0374  0.5667  2.6089
  179SOPE   H4Y20446   4.761   3.833   7.500  1.8059  3.7329  0.2417
  179SOPE   C3520447   4.565   3.915   7.554 -0.7512 -0.3887 -0.0330
  179SOPE   H5X20448   4.520   3.818   7.582 -0.6301 -0.1124  1.1623
  179SOPE   H5Y20449   4.498   3.994   7.514 -2.0004 -1.3256  0.1653
  179SOPE   C3620450   4.615   3.962   7.689 -0.4649 -0.4024 -0.2252
  179SOPE   H6X20451   4.661   4.061   7.672  0.3593 -0.3803  1.9069
  179SOPE   H6Y20452   4.702   3.905   7.728 -0.4199  0.4736  1.0078
  179SOPE   C3720453   4.510   3.974   7.801 -0.7440 -0.8589  0.5285
  179SOPE   H7X20454   4.470   3.873   7.825 -0.1257 -1.6305 -1.4973
  179SOPE   H7Y20455   4.421   4.034   7.771 -0.7592 -0.1363  1.9215
  179SOPE   C3820456   4.559   4.040   7.928 -0.9111  0.3238 -0.3400
  179SOPE   H8X20457   4.596   4.143   7.911  0.2863 -0.2393 -1.3906
  179SOPE   H8Y20458   4.659   3.997   7.953 -1.2324  0.8323  2.0098
  179SOPE   C3920459   4.465   4.036   8.056 -0.0451  0.0910  0.2591
  179SOPE   H9X20460   4.383   4.102   8.020 -0.7765 -1.7241 -1.6193
  179SOPE   H9Y20461   4.511   4.086   8.143 -1.8834  1.9942  0.2279
  179SOPE  C31020462   4.393   3.905   8.101  0.0653 -0.0562 -0.0992
  179SOPE  H10X20463   4.467   3.824   8.120  1.7326  1.6164  0.9091
  179SOPE  H10Y20464   4.322   3.884   8.019 -0.6787  2.1221 -0.0719
  179SOPE  C31120465   4.307   3.926   8.230 -0.5193 -0.2650  0.5117
  179SOPE  H11X20466   4.250   4.021   8.220  1.3637  0.9014  0.3085
  179SOPE  H11Y20467   4.370   3.927   8.321  0.7589 -1.4395 -0.3162
  179SOPE  C31220468   4.211   3.808   8.243 -0.2376  0.2475 -0.4838
  179SOPE  H12X20469   4.253   3.706   8.241 -3.5432 -1.2502 -0.5994
  179SOPE  H12Y20470   4.151   3.814   8.150 -0.3844  0.4758 -0.3761
  179SOPE  C31320471   4.118   3.821   8.371 -0.9425  0.1464  0.4721
  179SOPE  H13X20472   4.070   3.920   8.377 -0.4513  0.3390  1.3393
  179SOPE  H13Y20473   4.176   3.809   8.465 -0.5519 -1.4672  0.0550
  179SOPE  C31420474   4.007   3.713   8.382 -0.2696 -0.2727 -0.2558
  179SOPE  H14X20475   4.053   3.612   8.388 -0.4304 -0.3370 -0.0838
  179SOPE  H14Y20476   3.940   3.729   8.295  0.9495 -0.6310 -1.2755
  179SOPE  C31520477   3.911   3.746   8.495 -0.3635  0.0642  0.6583
  179SOPE  H15X20478   3.884   3.853   8.512 -0.6878 -0.0665  0.9778
  179SOPE  H15Y20479   3.974   3.714   8.580  1.2860 -1.2415 -0.9646
  179SOPE  C31620480   3.783   3.666   8.493  0.6199 -0.1057  0.5631
  179SOPE  H16X20481   3.803   3.564   8.456 -0.4480  0.4371 -1.7133
  179SOPE  H16Y20482   3.718   3.713   8.415  1.5836 -0.6459 -0.5839
  179SOPE  C31720483   3.705   3.679   8.624 -0.2181 -0.2266  0.0528
  179SOPE  H17X20484   3.649   3.775   8.618 -0.8957 -0.6972 -2.0508
  179SOPE  H17Y20485   3.767   3.683   8.716  0.7700  0.8490 -0.6349
  179SOPE  C31820486   3.606   3.560   8.647  0.0206  0.3042 -0.1706
  179SOPE  H18X20487   3.663   3.475   8.691  2.4394  0.8428 -2.0557
  179SOPE  H18Y20488   3.559   3.536   8.550 -0.1008  2.1836 -0.6113
  179SOPE  H18Z20489   3.535   3.589   8.727 -0.0245 -0.6958  0.1647
  180SOPE     N20490   0.393   6.001   6.443 -0.7300 -0.6936  0.5209
  180SOPE   HN120491   0.298   6.039   6.463 -1.5458 -1.2726 -1.9202
  180SOPE   HN220492   0.446   6.084   6.409 -2.3848  0.4843  0.7083
  180SOPE   HN320493   0.380   5.940   6.360  0.0077 -0.9535  0.5872
  180SOPE   C1220494   0.442   5.922   6.559 -1.0687 -0.2981  0.3997
  180SOPE  H12A20495   0.359   5.868   6.609  0.0419 -0.7662  1.7967
  180SOPE  H12B20496   0.483   5.991   6.635 -0.3173 -0.2196 -0.0586
  180SOPE   C1120497   0.549   5.821   6.512  0.1392  0.2396 -0.8187
  180SOPE  H11A20498   0.560   5.750   6.597 -0.4574 -0.7939 -1.5819
  180SOPE  H11B20499   0.648   5.867   6.492 -0.6124  1.7975 -1.1177
  180SOPE     P20500   0.587   5.634   6.349 -0.1813  0.0940 -0.3978
  180SOPE   O1320501   0.724   5.679   6.322 -0.2727  0.0527  0.5205
  180SOPE   O1420502   0.521   5.582   6.227 -0.2644  0.8403 -0.6965
  180SOPE   O1220503   0.503   5.755   6.399 -0.5055 -0.2494 -0.1305
  180SOPE   O1120504   0.580   5.523   6.458 -0.3639  0.1785  0.1459
  180SOPE    C120505   0.456   5.477   6.514  0.6031 -0.6719  0.0781
  180SOPE    HA20506   0.386   5.443   6.434 -2.1244  1.7971  1.2071
  180SOPE    HB20507   0.399   5.563   6.557  0.9406  1.0802 -2.7551
  180SOPE    C220508   0.468   5.368   6.616 -0.2285 -0.8028 -0.6505
  180SOPE    HS20509   0.377   5.351   6.678 -1.0211  0.6873 -1.3680
  180SOPE   O2120510   0.575   5.403   6.703 -0.0559  0.3579 -0.4847
  180SOPE   C2120511   0.558   5.505   6.780 -0.3170 -0.3434 -0.2680
  180SOPE   O2220512   0.457   5.564   6.805  0.2240  0.2753  0.1618
  180SOPE   C2220513   0.691   5.519   6.864  0.1536  1.0484 -0.1421
  180SOPE   H2R20514   0.773   5.569   6.809  1.6200 -0.8412  0.2102
  180SOPE   H2S20515   0.723   5.416   6.892 -2.2415 -0.0090 -1.0053
  180SOPE    C320516   0.493   5.238   6.543  0.4564  0.3233  0.0523
  180SOPE    HX20517   0.581   5.250   6.475  0.8673  0.6437  0.6339
  180SOPE    HY20518   0.402   5.209   6.486 -1.1996 -0.1153  2.7278
  180SOPE   O3120519   0.512   5.126   6.628 -0.0867 -0.1781 -0.3912
  180SOPE   C3120520   0.639   5.109   6.678  0.5809 -0.4576 -0.6487
  180SOPE   O3220521   0.735   5.174   6.644  0.2887  0.2270  0.1510
  180SOPE   C3220522   0.631   5.009   6.794  0.3985 -0.5689  0.5148
  180SOPE   H2X20523   0.631   4.908   6.747  1.1899 -0.1276 -0.4676
  180SOPE   H2Y20524   0.531   5.023   6.839 -0.2814 -0.4890 -0.9739
  180SOPE   C2320525   0.656   5.584   7.002  0.1590  0.0353  0.4463
  180SOPE   H3R20526   0.561   5.546   7.046 -1.0087  1.1472 -0.9678
  180SOPE   H3S20527   0.622   5.689   6.989 -4.1132 -0.4339  4.8441
  180SOPE   C2420528   0.778   5.584   7.095 -0.1300 -0.4814 -1.3356
  180SOPE   H4R20529   0.735   5.594   7.197 -0.3025  0.4634 -1.4896
  180SOPE   H4S20530   0.830   5.486   7.095  0.8790  0.0218 -0.2892
  180SOPE   C2520531   0.887   5.680   7.052  0.2601  0.0220 -0.2921
  180SOPE   H5R20532   0.925   5.630   6.961  1.2783 -0.0556  0.1670
  180SOPE   H5S20533   0.845   5.781   7.030 -4.6193 -1.0739  2.5288
  180SOPE   C2620534   0.996   5.708   7.161  0.2287 -0.2688  0.1545
  180SOPE   H6R20535   1.020   5.610   7.207  0.3598  0.5229  1.8901
  180SOPE   H6S20536   1.081   5.754   7.106  1.8263  0.4038  2.9623
  180SOPE   C2720537   0.937   5.800   7.272 -0.5733  0.3277 -0.0955
  180SOPE   H7R20538   0.926   5.905   7.237 -3.8961 -0.4594 -1.7547
  180SOPE   H7S20539   0.839   5.758   7.302 -1.1994  2.0960  0.4253
  180SOPE   C2820540   1.013   5.790   7.403 -1.0463  0.0684  0.4756
  180SOPE   H8R20541   1.014   5.681   7.428 -0.2967 -0.1162 -0.2810
  180SOPE   H8S20542   1.115   5.831   7.391 -1.1145 -0.0113 -0.5501
  180SOPE   C2920543   0.944   5.872   7.508  0.0061  0.6168 -0.2123
  180SOPE   H9120544   0.863   5.935   7.467 -0.6804  1.0430  1.7158
  180SOPE  C21020545   0.967   5.843   7.643  0.0684 -0.3736 -0.7608
  180SOPE  H10120546   0.912   5.899   7.720  2.0073  2.8398 -1.5187
  180SOPE  C21120547   1.073   5.745   7.683  0.2499  0.8792 -0.2876
  180SOPE  H11R20548   1.156   5.746   7.610  1.1907  1.1440  0.7636
  180SOPE  H11S20549   1.033   5.642   7.669  0.1732  1.0462 -1.3925
  180SOPE  C21220550   1.120   5.778   7.825 -0.6307 -0.8596  1.2146
  180SOPE  H12R20551   1.195   5.708   7.867  0.9710 -0.7094 -1.1922
  180SOPE  H12S20552   1.033   5.778   7.894  0.0322 -1.7560  2.0888
  180SOPE  C21320553   1.196   5.915   7.833  0.2704  0.1376  0.0996
  180SOPE  H13R20554   1.119   5.994   7.820 -1.2106 -1.0519  1.2498
  180SOPE  H13S20555   1.268   5.927   7.749  0.6009  0.7367  0.4567
  180SOPE  C21420556   1.276   5.925   7.962 -0.0969 -0.1115 -0.2568
  180SOPE  H14R20557   1.356   5.850   7.941 -0.3948 -0.5272  0.0915
  180SOPE  H14S20558   1.206   5.891   8.041 -2.5620 -0.0558 -2.3042
  180SOPE  C21520559   1.327   6.067   7.997  0.6256 -0.0287  0.4874
  180SOPE  H15R20560   1.243   6.137   8.019 -0.3518 -0.7260 -0.9022
  180SOPE  H15S20561   1.385   6.110   7.912  0.1507  0.8448  0.5865
  180SOPE  C21620562   1.426   6.085   8.120  0.3239  0.7389  0.0338
  180SOPE  H16R20563   1.465   6.189   8.123  4.7897 -0.6537 -1.6930
  180SOPE  H16S20564   1.523   6.032   8.109 -0.3067 -0.1755 -1.4427
  180SOPE  C21720565   1.360   6.049   8.260 -0.3442  0.3963  0.2992
  180SOPE  H17R20566   1.331   5.942   8.265 -1.8926  0.8167  1.4098
  180SOPE  H17S20567   1.266   6.108   8.270 -0.7363 -0.5549  3.2038
  180SOPE  C21820568   1.453   6.083   8.375  0.3350  0.5040 -0.2721
  180SOPE  H18R20569   1.554   6.039   8.364 -0.7681 -2.3222  0.1219
  180SOPE  H18S20570   1.405   6.052   8.470  0.0519 -1.3053 -0.9692
  180SOPE  H18T20571   1.453   6.193   8.390  0.6464  0.5439 -0.5449
  180SOPE   C3320572   0.733   5.037   6.899  0.1791  0.1884  0.0926
  180SOPE   H3X20573   0.723   5.140   6.939 -0.2758 -0.8079  2.7249
  180SOPE   H3Y20574   0.842   5.021   6.882  0.3851  0.1771  1.3671
  180SOPE   C3420575   0.708   4.944   7.022  0.2072 -0.2082  0.1902
  180SOPE   H4X20576   0.736   4.841   6.991  0.6213 -0.3822  1.0983
  180SOPE   H4Y20577   0.598   4.932   7.037  0.3849 -2.5403  0.0068
  180SOPE   C3520578   0.791   4.971   7.146 -0.0871 -0.0490  0.0878
  180SOPE   H5X20579   0.805   5.080   7.160 -0.3447 -0.0908  0.6793
  180SOPE   H5Y20580   0.889   4.922   7.125 -0.0476  1.0239 -2.6874
  180SOPE   C3620581   0.728   4.903   7.264  0.6178 -0.2263  1.0118
  180SOPE   H6X20582   0.686   4.805   7.233  1.0771 -0.3964  0.9124
  180SOPE   H6Y20583   0.635   4.951   7.300  0.4661 -0.2296  0.6330
  180SOPE   C3720584   0.829   4.881   7.374  0.5580 -0.2516 -0.9069
  180SOPE   H7X20585   0.930   4.846   7.345  1.6953  1.1990  1.0339
  180SOPE   H7Y20586   0.786   4.800   7.436 -0.1139  0.6688 -0.1210
  180SOPE   C3820587   0.837   5.006   7.470 -0.6179 -0.2520  0.1494
  180SOPE   H8X20588   0.734   5.046   7.481 -0.9214 -0.5541 -1.3989
  180SOPE   H8Y20589   0.888   5.089   7.416  1.0472 -0.7619  0.8569
  180SOPE   C3920590   0.914   4.979   7.601 -0.5082  0.3712  0.8611
  180SOPE   H9X20591   0.976   5.069   7.624  1.6388 -1.0132  0.7718
  180SOPE   H9Y20592   0.987   4.899   7.577  1.4059  1.1966  3.4203
  180SOPE  C31020593   0.826   4.933   7.716 -0.0659  0.0405  0.1355
  180SOPE  H10X20594   0.760   4.852   7.678 -0.3496  1.6228 -3.0833
  180SOPE  H10Y20595   0.770   5.023   7.748 -1.0452 -0.4297 -0.2158
  180SOPE  C31120596   0.903   4.885   7.841  0.2351 -0.4567  0.4202
  180SOPE  H11X20597   0.983   4.956   7.872  0.4984 -0.5010 -0.1452
  180SOPE  H11Y20598   0.959   4.796   7.805  0.5612 -0.1534  0.1736
  180SOPE  C31220599   0.806   4.861   7.961 -0.1801 -0.4471 -0.0176
  180SOPE  H12X20600   0.729   4.784   7.939 -0.1866 -1.1639  2.1857
  180SOPE  H12Y20601   0.749   4.955   7.979 -1.1416 -1.4573  2.9131
  180SOPE  C31320602   0.870   4.810   8.089 -0.6938  0.1692 -0.2408
  180SOPE  H13X20603   0.924   4.894   8.137 -1.9807  0.9221 -0.0700
  180SOPE  H13Y20604   0.946   4.732   8.066 -0.1580  1.2760 -2.4650
  180SOPE  C31420605   0.778   4.739   8.187  0.2977 -0.9886  0.3839
  180SOPE  H14X20606   0.696   4.702   8.123 -0.1768  2.1434 -0.9899
  180SOPE  H14Y20607   0.740   4.810   8.264 -1.1218 -0.9641 -0.3120
  180SOPE  C31520608   0.852   4.625   8.254  0.4917  0.0817  0.4674
  180SOPE  H15X20609   0.887   4.550   8.180  3.0982  0.9834  0.6955
  180SOPE  H15Y20610   0.783   4.582   8.330  1.9845  0.4213  2.0797
  180SOPE  C31620611   0.983   4.677   8.335  0.1243  0.5072  0.2290
  180SOPE  H16X20612   0.951   4.721   8.432 -0.7313  0.0431  0.1616
  180SOPE  H16Y20613   1.040   4.747   8.270  2.0740 -1.5501 -0.4078
  180SOPE  C31720614   1.082   4.564   8.366 -0.5859 -0.9582 -0.2602
  180SOPE  H17X20615   1.170   4.601   8.423 -0.2995  2.3535 -2.5359
  180SOPE  H17Y20616   1.131   4.515   8.279  0.2421  0.7527 -0.8190
  180SOPE  C31820617   1.017   4.440   8.435  0.2868  0.4629  0.4738
  180SOPE  H18X20618   1.090   4.358   8.451  1.2866  0.7805 -1.9464
  180SOPE  H18Y20619   0.925   4.399   8.388  1.2078 -2.8625  1.3748
  180SOPE  H18Z20620   0.984   4.470   8.537  0.8562  0.0912  0.7678
  181SOPE     N20621   0.894   2.208   6.085  0.6241  0.2923  0.4277
  181SOPE   HN120622   0.937   2.139   6.021  1.6915  0.5831  0.8165
  181SOPE   HN220623   0.936   2.302   6.076 -0.8160  1.2526  2.8823
  181SOPE   HN320624   0.927   2.171   6.176 -0.6746 -0.7080  0.5335
  181SOPE   C1220625   0.744   2.203   6.078  0.6194 -0.1819  0.3737
  181SOPE  H12A20626   0.712   2.229   5.975 -0.8062  1.9207  1.2811
  181SOPE  H12B20627   0.708   2.289   6.138  0.2313 -0.3456  0.3748
  181SOPE   C1120628   0.677   2.070   6.114 -0.5381 -0.6338  0.8063
  181SOPE  H11A20629   0.568   2.080   6.128 -0.8840 -0.9648 -1.3031
  181SOPE  H11B20630   0.720   2.045   6.214  1.4554  1.9455  0.7134
  181SOPE     P20631   0.812   1.878   5.999  0.0335  0.1061  0.1938
  181SOPE   O1320632   0.933   1.957   6.015  0.3971 -0.3831  0.2223
  181SOPE   O1420633   0.797   1.795   5.877  0.4004  0.0636 -0.2504
  181SOPE   O1220634   0.698   1.983   6.002 -0.5300  0.7459  0.5178
  181SOPE   O1120635   0.778   1.799   6.133 -0.2404 -0.0970  0.2364
  181SOPE    C120636   0.685   1.693   6.140  0.2789 -0.2050 -0.0381
  181SOPE    HA20637   0.731   1.617   6.206 -3.8635 -0.5649  2.7951
  181SOPE    HB20638   0.669   1.629   6.051 -0.3876 -0.5451  0.3175
  181SOPE    C220639   0.548   1.724   6.202  0.1653  1.3095  0.2312
  181SOPE    HS20640   0.502   1.792   6.127 -0.0563  0.0899 -0.7629
  181SOPE   O2120641   0.569   1.798   6.328 -0.1369  0.0710 -0.1206
  181SOPE   C2120642   0.483   1.900   6.353  0.3887  0.1955 -0.3495
  181SOPE   O2220643   0.396   1.941   6.275 -0.2137  0.1562  0.0683
  181SOPE   C2220644   0.504   1.943   6.496 -0.0191 -0.0293 -0.5807
  181SOPE   H2R20645   0.588   1.883   6.536 -0.3591  1.0010  1.9370
  181SOPE   H2S20646   0.417   1.905   6.554  1.2161 -2.0074  0.0851
  181SOPE    C320647   0.453   1.598   6.218 -0.2248  0.0105 -0.2822
  181SOPE    HX20648   0.415   1.563   6.120 -2.1856  0.2235  0.3455
  181SOPE    HY20649   0.362   1.633   6.272  1.1742  3.4650  0.1502
  181SOPE   O3120650   0.522   1.489   6.280  0.4844  0.3172  0.1632
  181SOPE   C3120651   0.490   1.438   6.395  0.3711 -0.5771 -0.0046
  181SOPE   O3220652   0.387   1.459   6.452 -0.1893  0.2513 -0.0011
  181SOPE   C3220653   0.611   1.357   6.446  0.7805  1.2571 -0.3092
  181SOPE   H2X20654   0.644   1.281   6.372  0.7756 -0.9695  1.8499
  181SOPE   H2Y20655   0.567   1.311   6.537  1.7872 -1.1931 -0.9686
  181SOPE   C2320656   0.522   2.093   6.516 -0.1422 -0.0891 -0.2602
  181SOPE   H3R20657   0.435   2.143   6.469  0.9773  2.6442  0.3993
  181SOPE   H3S20658   0.618   2.119   6.466 -0.7668 -0.1650 -1.5246
  181SOPE   C2420659   0.508   2.115   6.667  0.1172  0.1611 -0.9723
  181SOPE   H4R20660   0.488   2.221   6.694  3.0512  0.4927  0.1604
  181SOPE   H4S20661   0.427   2.049   6.706  0.7624 -1.0281 -1.5844
  181SOPE   C2520662   0.635   2.094   6.745  0.5553 -0.3553  0.2809
  181SOPE   H5R20663   0.663   1.987   6.740  2.5645  0.1950 -1.4016
  181SOPE   H5S20664   0.718   2.155   6.703 -0.7869  2.0884  0.9975
  181SOPE   C2620665   0.618   2.144   6.887  0.5799 -0.0705 -0.1807
  181SOPE   H6R20666   0.602   2.253   6.897 -0.4625 -0.1787 -0.5739
  181SOPE   H6S20667   0.526   2.095   6.926  1.3586 -0.5760  1.1063
  181SOPE   C2720668   0.733   2.092   6.982 -1.1714  0.5921 -0.9285
  181SOPE   H7R20669   0.725   1.981   6.983 -3.3876  0.7117 -0.8967
  181SOPE   H7S20670   0.835   2.121   6.949 -0.0449  1.3245  2.6904
  181SOPE   C2820671   0.737   2.148   7.120  0.6055  0.3050 -0.5797
  181SOPE   H8R20672   0.753   2.258   7.111 -1.9216  0.9256  1.3414
  181SOPE   H8S20673   0.636   2.118   7.155  2.1269 -4.0852  0.6130
  181SOPE   C2920674   0.845   2.087   7.202 -0.0737  0.0053  0.1449
  181SOPE   H9120675   0.939   2.069   7.149  1.3671  1.2556  2.0971
  181SOPE  C21020676   0.823   2.048   7.330 -0.6666  0.1340 -0.4569
  181SOPE  H10120677   0.909   2.016   7.390 -2.0441 -1.8156  0.5704
  181SOPE  C21120678   0.697   2.065   7.405 -0.0979  0.3036 -0.7103
  181SOPE  H11R20679   0.645   1.968   7.393 -0.9603  0.3351  2.0762
  181SOPE  H11S20680   0.622   2.137   7.366 -0.1591  0.2698 -0.6550
  181SOPE  C21220681   0.720   2.085   7.554  0.2942 -0.3706 -0.1504
  181SOPE  H12R20682   0.788   2.173   7.557 -0.5028  0.2647 -0.3012
  181SOPE  H12S20683   0.773   1.998   7.598 -0.6466 -2.7802 -3.3251
  181SOPE  C21320684   0.587   2.106   7.629  0.6319 -0.2342 -0.4718
  181SOPE  H13R20685   0.503   2.131   7.560 -0.5061 -0.1423  0.9038
  181SOPE  H13S20686   0.590   2.195   7.695 -0.2743 -0.7389  0.2858
  181SOPE  C21420687   0.565   1.989   7.726  0.6684  0.6348 -0.5052
  181SOPE  H14R20688   0.655   1.972   7.788  0.2159 -0.5746 -0.1430
  181SOPE  H14S20689   0.547   1.894   7.670  0.6869 -0.0627  0.6469
  181SOPE  C21520690   0.447   2.008   7.820 -0.3729  0.2039  0.4268
  181SOPE  H15R20691   0.349   2.021   7.770  0.7305 -0.8056 -2.2032
  181SOPE  H15S20692   0.464   2.098   7.882  0.3536 -0.2501  0.9035
  181SOPE  C21620693   0.420   1.889   7.909 -0.1733  0.1326  0.6862
  181SOPE  H16R20694   0.414   1.801   7.842  1.4300 -0.5344  1.3439
  181SOPE  H16S20695   0.318   1.888   7.953 -0.3343 -1.2253  0.3330
  181SOPE  C21720696   0.534   1.862   8.003 -0.2524  0.2904 -0.7827
  181SOPE  H17R20697   0.572   1.961   8.035  2.1421 -1.2745  1.6692
  181SOPE  H17S20698   0.623   1.809   7.962 -0.7979 -1.0939 -0.2344
  181SOPE  C21820699   0.484   1.793   8.129  0.2427 -0.2267  0.6717
  181SOPE  H18R20700   0.405   1.855   8.175  0.0898  0.9501 -1.0952
  181SOPE  H18S20701   0.576   1.781   8.190  2.6497  4.1765 -1.6150
  181SOPE  H18T20702   0.449   1.693   8.098  0.7417 -0.4023  0.6557
  181SOPE   C3320703   0.737   1.441   6.486 -0.5925 -0.1474 -0.4419
  181SOPE   H3X20704   0.701   1.528   6.545 -1.2286  0.5543 -1.8019
  181SOPE   H3Y20705   0.795   1.473   6.397 -0.1241 -0.7797 -0.3664
  181SOPE   C3420706   0.834   1.357   6.581 -0.3366  0.4153  0.0594
  181SOPE   H4X20707   0.924   1.422   6.585  0.2640  0.1277 -4.0228
  181SOPE   H4Y20708   0.870   1.263   6.534 -0.2545  0.6262 -0.3023
  181SOPE   C3520709   0.763   1.315   6.715 -0.3804 -0.5525  0.2886
  181SOPE   H5X20710   0.682   1.244   6.689 -0.0280 -0.7021 -0.4396
  181SOPE   H5Y20711   0.715   1.410   6.745 -0.6623 -0.4371 -0.5039
  181SOPE   C3620712   0.856   1.274   6.826  0.1115  0.9616  0.0578
  181SOPE   H6X20713   0.935   1.351   6.844  1.4610 -0.1559 -0.7985
  181SOPE   H6Y20714   0.914   1.192   6.778 -1.7371  0.6737 -1.8563
  181SOPE   C3720715   0.780   1.231   6.953  0.2383  0.6452 -0.0960
  181SOPE   H7X20716   0.733   1.132   6.934 -0.3594  1.0224 -0.5702
  181SOPE   H7Y20717   0.705   1.305   6.986 -0.1773  0.4396 -0.5720
  181SOPE   C3820718   0.866   1.198   7.084  0.0910 -0.5007 -0.1581
  181SOPE   H8X20719   0.933   1.286   7.094 -1.6281  0.7431  1.0190
  181SOPE   H8Y20720   0.932   1.112   7.064 -0.9158 -1.8965  2.1114
  181SOPE   C3920721   0.776   1.176   7.205 -0.2624  0.0953 -0.1497
  181SOPE   H9X20722   0.701   1.100   7.177 -1.0577  1.2013 -1.1334
  181SOPE   H9Y20723   0.709   1.263   7.221  0.9179  1.0756 -0.3667
  181SOPE  C31020724   0.843   1.151   7.340 -0.2808  0.4027  0.3922
  181SOPE  H10X20725   0.929   1.214   7.369  0.0406 -0.2012  0.7861
  181SOPE  H10Y20726   0.887   1.049   7.337  1.8815  1.2955 -2.1625
  181SOPE  C31120727   0.749   1.168   7.463 -0.3254 -0.5521  0.5175
  181SOPE  H11X20728   0.648   1.133   7.434 -0.5102  0.0138  0.4671
  181SOPE  H11Y20729   0.740   1.277   7.480  0.9190 -0.4826  0.8714
  181SOPE  C31220730   0.785   1.108   7.595 -0.2965 -0.1575  0.1749
  181SOPE  H12X20731   0.893   1.119   7.619 -0.3199 -2.2165  1.5150
  181SOPE  H12Y20732   0.772   0.998   7.584  1.3652 -0.3247 -0.3789
  181SOPE  C31320733   0.698   1.158   7.713  0.7549 -0.0588  0.3873
  181SOPE  H13X20734   0.681   1.079   7.790  1.8155  1.0877  1.8791
  181SOPE  H13Y20735   0.597   1.180   7.672 -0.4520  0.5671  3.4110
  181SOPE  C31420736   0.754   1.280   7.785  0.8689  0.2418 -0.2630
  181SOPE  H14X20737   0.782   1.351   7.704  2.1586  0.2114  0.1488
  181SOPE  H14Y20738   0.844   1.247   7.841  0.1137  0.9444  1.4473
  181SOPE  C31520739   0.655   1.327   7.897 -0.1202  0.6820 -0.5026
  181SOPE  H15X20740   0.594   1.241   7.930 -2.7262  1.5475 -2.7130
  181SOPE  H15Y20741   0.582   1.402   7.859 -1.9193 -0.1726  1.1418
  181SOPE  C31620742   0.719   1.369   8.034  1.1385 -0.2641 -0.1639
  181SOPE  H16X20743   0.642   1.436   8.076 -0.7113 -2.7587  0.6628
  181SOPE  H16Y20744   0.819   1.419   8.035  1.3447 -0.6553 -0.6714
  181SOPE  C31720745   0.722   1.258   8.150 -0.5049  0.2394 -0.1865
  181SOPE  H17X20746   0.763   1.167   8.101 -0.2643  0.1050  0.2606
  181SOPE  H17Y20747   0.617   1.241   8.180 -0.6553  1.0672 -0.2098
  181SOPE  C31820748   0.811   1.292   8.271  0.2770  0.4226 -0.4740
  181SOPE  H18X20749   0.754   1.361   8.338 -2.1535  0.0832 -2.0456
  181SOPE  H18Y20750   0.911   1.327   8.240  0.4702  0.5491  0.2621
  181SOPE  H18Z20751   0.818   1.196   8.325 -0.2923  0.7868  0.2733
  182SOPE     N20752   3.878   3.106   6.182  0.0705 -0.2281 -0.0635
  182SOPE   HN120753   3.901   3.058   6.271  0.0072 -1.2028 -0.5648
  182SOPE   HN220754   3.774   3.109   6.170  0.1587 -0.6003 -0.9554
  182SOPE   HN320755   3.906   3.044   6.104 -1.0303  1.0759 -1.5447
  182SOPE   C1220756   3.940   3.246   6.176 -0.4323  0.0768  0.4297
  182SOPE  H12A20757   3.896   3.317   6.104 -1.0411 -0.1626  0.5624
  182SOPE  H12B20758   4.044   3.225   6.143 -1.5083 -1.5984 -2.2507
  182SOPE   C1120759   3.932   3.312   6.316  0.5792  0.3515  0.1304
  182SOPE  H11A20760   3.825   3.335   6.332  0.0985 -1.5831 -0.1167
  182SOPE  H11B20761   3.988   3.408   6.313 -0.1878  0.8562 -4.4113
  182SOPE     P20762   4.094   3.255   6.513 -0.3114 -0.1572  0.1583
  182SOPE   O1320763   4.216   3.292   6.440 -0.2492  0.2533 -0.7358
  182SOPE   O1420764   4.106   3.145   6.614 -0.1408 -0.1460  0.1626
  182SOPE   O1220765   3.969   3.219   6.425 -0.6109 -0.0399  0.0471
  182SOPE   O1120766   4.049   3.384   6.586  0.6558 -0.6339  0.4809
  182SOPE    C120767   3.938   3.392   6.676  0.2115  0.4503  0.5165
  182SOPE    HA20768   3.957   3.347   6.776 -2.5819 -0.0638  0.9148
  182SOPE    HB20769   3.849   3.340   6.635  1.0286  0.3720 -1.2488
  182SOPE    C220770   3.917   3.544   6.708 -1.0516 -1.1590 -0.1201
  182SOPE    HS20771   3.937   3.593   6.611 -0.1082 -1.8196 -0.2739
  182SOPE   O2120772   4.020   3.577   6.805 -0.0679  0.2076  0.3998
  182SOPE   C2120773   4.047   3.711   6.816 -0.9483  0.2165  0.5086
  182SOPE   O2220774   4.011   3.791   6.729  0.4141 -0.3834  0.1329
  182SOPE   C2220775   4.148   3.747   6.928 -0.2337  0.4162 -0.3491
  182SOPE   H2R20776   4.092   3.826   6.982  0.4496  0.0567  0.9146
  182SOPE   H2S20777   4.230   3.805   6.880 -0.9460  2.5999  0.9529
  182SOPE    C320778   3.783   3.571   6.770 -0.2595  0.0332  0.1898
  182SOPE    HX20779   3.702   3.557   6.695  0.0053  0.9275 -0.2866
  182SOPE    HY20780   3.781   3.682   6.783  1.6003  0.2219 -0.8075
  182SOPE   O3120781   3.759   3.491   6.885  0.0734  0.4330  0.1122
  182SOPE   C3120782   3.753   3.550   7.000 -0.0899  0.4035  0.1831
  182SOPE   O3220783   3.751   3.669   7.016 -0.7447 -0.2618  0.1220
  182SOPE   C3220784   3.735   3.441   7.108  0.0132  0.2381 -0.3540
  182SOPE   H2X20785   3.792   3.356   7.063 -0.0595  0.0493 -0.0930
  182SOPE   H2Y20786   3.628   3.413   7.116  0.5237 -1.4095  1.7055
  182SOPE   C2320787   4.202   3.636   7.025 -0.7528 -0.8864 -0.0853
  182SOPE   H3R20788   4.278   3.580   6.966 -0.4859 -1.2222  0.5617
  182SOPE   H3S20789   4.126   3.564   7.062 -0.6877 -0.7784  0.2559
  182SOPE   C2420790   4.277   3.673   7.150 -0.4131 -0.1561  0.2753
  182SOPE   H4R20791   4.331   3.589   7.200 -1.3104 -0.2013  1.2064
  182SOPE   H4S20792   4.357   3.749   7.142 -1.2686  0.8138  0.7548
  182SOPE   C2520793   4.180   3.706   7.260 -0.1646 -0.1763 -0.5357
  182SOPE   H5R20794   4.116   3.793   7.231 -0.8482 -1.0907 -1.8507
  182SOPE   H5S20795   4.103   3.627   7.275  0.7434 -0.8016  0.9352
  182SOPE   C2620796   4.236   3.728   7.402 -0.1032 -0.0264 -0.3607
  182SOPE   H6R20797   4.268   3.628   7.439  2.6291  1.0349  0.4004
  182SOPE   H6S20798   4.316   3.804   7.398 -0.8920  0.9954  1.6631
  182SOPE   C2720799   4.123   3.767   7.498  0.4353  0.1993  0.8250
  182SOPE   H7R20800   4.063   3.851   7.457  0.4022  0.7379  1.9371
  182SOPE   H7S20801   4.068   3.672   7.521  1.4945 -0.5386  0.3691
  182SOPE   C2820802   4.170   3.826   7.626 -0.4998  0.2943 -1.2206
  182SOPE   H8R20803   4.249   3.758   7.663 -0.9636  1.1501  1.5374
  182SOPE   H8S20804   4.225   3.918   7.597 -0.8998  0.9882  0.1452
  182SOPE   C2920805   4.059   3.848   7.729  0.1208  0.3246 -0.4643
  182SOPE   H9120806   3.979   3.912   7.689 -1.5117 -0.3996  1.4492
  182SOPE  C21020807   4.049   3.785   7.852  0.8148  0.1088  0.2438
  182SOPE  H10120808   3.961   3.810   7.913  0.6492  0.1570 -0.0117
  182SOPE  C21120809   4.146   3.679   7.905  0.3201 -0.2290 -0.4656
  182SOPE  H11R20810   4.228   3.741   7.949 -2.1180  2.4091  0.7116
  182SOPE  H11S20811   4.187   3.620   7.820 -2.7801 -0.6164 -1.7909
  182SOPE  C21220812   4.073   3.576   7.994 -0.1415  0.4238 -0.4274
  182SOPE  H12R20813   4.004   3.521   7.926  1.8966 -1.3055 -1.2507
  182SOPE  H12S20814   4.003   3.613   8.071 -1.4950  1.1077 -1.9249
  182SOPE  C21320815   4.179   3.480   8.054 -0.1224  0.4441 -0.1642
  182SOPE  H13R20816   4.119   3.432   8.134  0.1656 -1.2918 -0.9457
  182SOPE  H13S20817   4.261   3.522   8.115 -0.2710 -1.5477  1.5070
  182SOPE  C21420818   4.224   3.365   7.964  0.4083  0.5023  0.1170
  182SOPE  H14R20819   4.284   3.416   7.886  0.4002 -0.4855 -0.5527
  182SOPE  H14S20820   4.140   3.312   7.914  1.9218 -2.2469  0.2673
  182SOPE  C21520821   4.306   3.253   8.036  0.1497 -0.6497 -0.0895
  182SOPE  H15R20822   4.275   3.252   8.143 -0.1844 -2.1736 -0.1756
  182SOPE  H15S20823   4.413   3.282   8.032  0.5838 -2.1743 -0.1398
  182SOPE  C21620824   4.298   3.118   7.972 -0.0982 -0.0944  0.1962
  182SOPE  H16R20825   4.333   3.112   7.867 -1.0850 -2.5997 -0.0739
  182SOPE  H16S20826   4.195   3.076   7.983  0.2940 -1.4824 -1.1245
  182SOPE  C21720827   4.395   3.016   8.047 -0.0526  0.1646 -0.6108
  182SOPE  H17R20828   4.375   3.034   8.155 -1.1895  2.6291 -1.1619
  182SOPE  H17S20829   4.497   3.045   8.013 -0.8986  1.2675 -2.2973
  182SOPE  C21820830   4.370   2.872   8.005  0.0520  0.0515  0.1281
  182SOPE  H18R20831   4.370   2.866   7.894 -0.2606  2.4923 -0.0753
  182SOPE  H18S20832   4.270   2.838   8.038  0.4208 -0.4167  0.7887
  182SOPE  H18T20833   4.448   2.808   8.051 -0.5979  0.0947  1.3082
  182SOPE   C3320834   3.794   3.501   7.234 -0.0476  0.6739  0.0828
  182SOPE   H3X20835   3.886   3.558   7.210  1.5117 -1.2205  1.2361
  182SOPE   H3Y20836   3.821   3.409   7.291  0.9044  1.7725  1.4613
  182SOPE   C3420837   3.701   3.585   7.313  0.2289  0.4594 -1.0696
  182SOPE   H4X20838   3.620   3.514   7.342 -1.5712  3.3489  1.5390
  182SOPE   H4Y20839   3.654   3.664   7.251 -1.6388  0.1023 -0.1922
  182SOPE   C3520840   3.773   3.641   7.438 -0.4770 -0.0514  0.3971
  182SOPE   H5X20841   3.837   3.729   7.416  0.0721 -0.3156  0.8914
  182SOPE   H5Y20842   3.835   3.557   7.475  0.6926  0.0400 -1.2518
  182SOPE   C3620843   3.672   3.663   7.544  0.2885 -0.9571  0.0511
  182SOPE   H6X20844   3.607   3.577   7.569 -2.7828  1.6721  2.0965
  182SOPE   H6Y20845   3.598   3.734   7.502  0.6648 -0.4339  0.2555
  182SOPE   C3720846   3.725   3.734   7.675  0.2768  0.1150 -0.0039
  182SOPE   H7X20847   3.780   3.829   7.653  1.5238 -0.5930 -0.0327
  182SOPE   H7Y20848   3.811   3.675   7.712 -0.7681  1.1260  4.7405
  182SOPE   C3820849   3.623   3.737   7.795  0.8733  0.3242  0.1121
  182SOPE   H8X20850   3.588   3.634   7.817  0.1292  0.9065  1.8066
  182SOPE   H8Y20851   3.533   3.798   7.772  1.2177 -0.2333 -3.3450
  182SOPE   C3920852   3.690   3.774   7.927  0.1906  0.4108 -0.1468
  182SOPE   H9X20853   3.742   3.872   7.913 -0.3771  1.0864  2.1830
  182SOPE   H9Y20854   3.768   3.699   7.956 -1.1879 -1.5069 -1.1587
  182SOPE  C31020855   3.589   3.795   8.044  0.0320 -0.9229  0.5315
  182SOPE  H10X20856   3.514   3.873   8.020 -0.4636 -0.6120  2.8881
  182SOPE  H10Y20857   3.648   3.838   8.127  0.0804 -0.2466  0.1569
  182SOPE  C31120858   3.494   3.677   8.073  0.5094  0.4804  1.1754
  182SOPE  H11X20859   3.560   3.588   8.088  0.9033  0.3311 -1.1042
  182SOPE  H11Y20860   3.432   3.649   7.986  0.7226  2.0623  0.4775
  182SOPE  C31220861   3.412   3.705   8.198 -0.1165 -0.0136 -0.6373
  182SOPE  H12X20862   3.360   3.798   8.167 -0.1994  0.1833  0.0878
  182SOPE  H12Y20863   3.471   3.730   8.288 -3.4236 -1.4183  2.1737
  182SOPE  C31320864   3.290   3.607   8.234  0.4036  0.3763 -0.3438
  182SOPE  H13X20865   3.225   3.582   8.147 -1.8619  0.8738  1.1308
  182SOPE  H13Y20866   3.218   3.662   8.297 -1.7141  0.1433 -2.4103
  182SOPE  C31420867   3.338   3.487   8.317  0.7151  0.4798 -0.3536
  182SOPE  H14X20868   3.388   3.525   8.408 -0.6438 -0.2868  0.7507
  182SOPE  H14Y20869   3.411   3.430   8.256  1.6963  1.9410 -0.6013
  182SOPE  C31520870   3.214   3.408   8.368 -0.0096 -0.3535 -0.8133
  182SOPE  H15X20871   3.137   3.482   8.400  0.8844 -0.3822  1.6090
  182SOPE  H15Y20872   3.244   3.358   8.462 -1.0208  3.1412  1.5804
  182SOPE  C31620873   3.178   3.311   8.256  0.1794 -0.1512  0.6970
  182SOPE  H16X20874   3.259   3.249   8.212 -2.8142 -2.6638 -1.9036
  182SOPE  H16Y20875   3.150   3.374   8.169  0.7586 -0.3248  0.3826
  182SOPE  C31720876   3.059   3.221   8.295 -0.4877 -0.0879  0.5179
  182SOPE  H17X20877   2.991   3.182   8.216 -1.2906 -2.0181  2.0869
  182SOPE  H17Y20878   2.986   3.278   8.358  1.2029 -0.8666  3.3599
  182SOPE  C31820879   3.102   3.100   8.377 -0.1576 -0.0022 -0.1047
  182SOPE  H18X20880   3.140   3.016   8.315 -0.6585 -0.4338  0.1702
  182SOPE  H18Y20881   3.016   3.062   8.436  1.6044 -1.0869  1.8913
  182SOPE  H18Z20882   3.181   3.134   8.448  0.3293  0.8550 -1.0370
  183SOPE     N20883   4.858   1.911   6.367 -0.1692  0.0710  0.6181
  183SOPE   HN120884   4.843   1.922   6.469 -0.0947  2.7908  0.3997
  183SOPE   HN220885   4.831   1.819   6.325  3.3684 -0.2765 -1.2353
  183SOPE   HN320886   4.959   1.909   6.344 -0.5601 -0.2403 -1.2775
  183SOPE   C1220887   4.789   2.017   6.286 -0.3026 -0.1912 -0.1922
  183SOPE  H12A20888   4.705   2.057   6.346 -0.2112  1.6417 -1.2368
  183SOPE  H12B20889   4.747   1.972   6.194 -0.2781  0.9309 -0.7596
  183SOPE   C1120890   4.887   2.129   6.243 -0.0719 -0.6726 -0.9804
  183SOPE  H11A20891   4.834   2.195   6.171  1.3559  1.8543  0.1209
  183SOPE  H11B20892   4.974   2.087   6.189  0.3480 -1.7129  0.4503
  183SOPE     P20893   4.863   2.337   6.401 -0.1030 -0.2641 -0.1071
  183SOPE   O1320894   4.714   2.337   6.382  0.1578 -0.3390  0.1936
  183SOPE   O1420895   4.941   2.433   6.326 -0.5564  0.4249 -0.1033
  183SOPE   O1220896   4.928   2.199   6.356  0.3712  0.0687 -0.0978
  183SOPE   O1120897   4.893   2.330   6.558 -0.4595 -0.1010 -0.6772
  183SOPE    C120898   4.964   2.217   6.611 -0.0587 -0.2241 -0.5360
  183SOPE    HA20899   5.053   2.208   6.545 -0.4564  1.1687 -1.3094
  183SOPE    HB20900   4.910   2.120   6.605 -0.6004 -0.0829  1.5449
  183SOPE    C220901   5.000   2.226   6.767 -0.1853 -0.6722  0.2601
  183SOPE    HS20902   5.043   2.130   6.802 -0.7740 -1.4448 -1.1043
  183SOPE   O2120903   4.879   2.257   6.842  0.0334 -0.1665  0.2379
  183SOPE   C2120904   4.800   2.149   6.861  0.3077  0.1575  0.1736
  183SOPE   O2220905   4.829   2.031   6.840  0.0551 -0.0307 -0.7278
  183SOPE   C2220906   4.658   2.204   6.905  0.0891 -0.4253  0.3470
  183SOPE   H2R20907   4.586   2.121   6.890  0.0013 -1.0469  3.5463
  183SOPE   H2S20908   4.637   2.284   6.831  0.4588 -1.0438 -0.4560
  183SOPE    C320909   5.102   2.337   6.787  0.0039 -0.2313  0.2237
  183SOPE    HX20910   5.062   2.430   6.740 -1.5556 -0.7621  0.4211
  183SOPE    HY20911   5.196   2.298   6.743 -0.5243 -0.5416 -0.6540
  183SOPE   O3120912   5.129   2.360   6.930 -0.4510  0.4848  0.3162
  183SOPE   C3120913   5.068   2.470   6.978  0.1261 -0.0446  0.2638
  183SOPE   O3220914   4.999   2.549   6.915 -0.3298  0.0656 -0.1344
  183SOPE   C3220915   5.096   2.468   7.124 -0.3002 -0.1943 -0.6865
  183SOPE   H2X20916   5.207   2.469   7.127 -0.2921 -1.4916  0.1230
  183SOPE   H2Y20917   5.049   2.373   7.159 -0.1754 -0.2058 -0.5508
  183SOPE   C2320918   4.634   2.257   7.046  0.5198 -0.3460 -0.1032
  183SOPE   H3R20919   4.530   2.290   7.065 -0.1804 -2.5914  0.2113
  183SOPE   H3S20920   4.703   2.342   7.069  0.5078 -0.9234  2.3116
  183SOPE   C2420921   4.653   2.145   7.137  0.4500  0.0700  0.1339
  183SOPE   H4R20922   4.565   2.079   7.120 -0.5055  0.2853  3.4668
  183SOPE   H4S20923   4.744   2.088   7.112  0.8512  0.0158  1.6250
  183SOPE   C2520924   4.665   2.185   7.283  0.7098  0.2072 -0.1321
  183SOPE   H5R20925   4.757   2.237   7.317 -0.5781  0.2516  3.9414
  183SOPE   H5S20926   4.581   2.252   7.313  1.2760  0.8513  0.0548
  183SOPE   C2620927   4.660   2.059   7.377 -0.4515  0.5504 -0.4015
  183SOPE   H6R20928   4.576   1.991   7.350  0.9115 -1.9134  1.1880
  183SOPE   H6S20929   4.756   2.010   7.350  1.3268  2.3560  2.2097
  183SOPE   C2720930   4.650   2.080   7.527 -0.1831  0.0168  0.7620
  183SOPE   H7R20931   4.726   2.157   7.554 -1.0598  0.9005  0.7734
  183SOPE   H7S20932   4.559   2.135   7.559 -0.3062  0.9602 -1.1148
  183SOPE   C2820933   4.660   1.947   7.605  0.6239 -0.4099  0.2977
  183SOPE   H8R20934   4.586   1.870   7.573 -0.5897 -0.3925  2.7634
  183SOPE   H8S20935   4.761   1.904   7.591 -0.3318 -1.9840 -2.5174
  183SOPE   C2920936   4.640   1.976   7.753  0.4949 -0.1041  0.2402
  183SOPE   H9120937   4.728   1.975   7.819  0.0479  0.5193  0.8568
  183SOPE  C21020938   4.526   1.988   7.823 -0.1193  0.1410 -0.4885
  183SOPE  H10120939   4.532   2.003   7.932  1.1822 -0.1260 -0.5065
  183SOPE  C21120940   4.387   1.975   7.760  0.0953  0.3577  0.5050
  183SOPE  H11R20941   4.390   1.942   7.654  1.6886  1.2992  0.2242
  183SOPE  H11S20942   4.341   2.075   7.749  0.2047  0.3195 -0.3491
  183SOPE  C21220943   4.304   1.879   7.844 -0.0738 -0.0876 -0.4938
  183SOPE  H12R20944   4.362   1.784   7.853 -0.1473 -0.1464 -0.6375
  183SOPE  H12S20945   4.216   1.855   7.781  0.2454 -0.2869 -0.8758
  183SOPE  C21320946   4.250   1.922   7.983  0.4432 -0.3584 -0.1535
  183SOPE  H13R20947   4.317   1.988   8.042  1.5073 -0.1989 -1.4779
  183SOPE  H13S20948   4.222   1.829   8.036  0.9689 -3.0077 -4.0311
  183SOPE  C21420949   4.117   1.992   7.970 -0.1473 -0.3141  0.3113
  183SOPE  H14R20950   4.034   1.922   7.952  0.3988 -2.2376  4.1456
  183SOPE  H14S20951   4.124   2.078   7.900 -2.6747 -0.3479 -0.0435
  183SOPE  C21520952   4.090   2.049   8.113  0.0148 -0.0053 -0.0132
  183SOPE  H15R20953   4.162   2.131   8.134  0.4454 -0.2928 -0.3519
  183SOPE  H15S20954   4.090   1.964   8.185  2.5337 -0.2478 -0.2131
  183SOPE  C21620955   3.959   2.120   8.139  0.1005 -0.3648  0.3784
  183SOPE  H16R20956   3.950   2.210   8.074 -3.4804  1.3454  2.8336
  183SOPE  H16S20957   3.957   2.162   8.242 -1.3793  0.6368 -0.0203
  183SOPE  C21720958   3.828   2.042   8.126 -0.1473 -0.7441 -1.0205
  183SOPE  H17R20959   3.828   1.997   8.024  1.0056 -1.1479 -0.8671
  183SOPE  H17S20960   3.739   2.107   8.136  1.6474  1.5819  0.7360
  183SOPE  C21820961   3.812   1.939   8.243  0.1642 -0.9664 -0.4885
  183SOPE  H18R20962   3.709   1.896   8.239 -1.1118  1.7951  0.0087
  183SOPE  H18S20963   3.818   1.984   8.344 -3.0748 -2.7657  0.6819
  183SOPE  H18T20964   3.883   1.854   8.236 -0.5117 -1.6290  0.3951
  183SOPE   C3320965   5.030   2.577   7.216 -0.2566 -0.0464 -0.0766
  183SOPE   H3X20966   4.925   2.540   7.223 -0.2706 -0.0628 -0.3770
  183SOPE   H3Y20967   5.037   2.675   7.165 -0.8134 -0.6662 -1.3925
  183SOPE   C3420968   5.090   2.576   7.359 -0.5235  0.0381  0.8087
  183SOPE   H4X20969   5.029   2.638   7.428  0.1602  3.3988 -1.3490
  183SOPE   H4Y20970   5.191   2.620   7.355 -0.3784 -0.0851  2.4410
  183SOPE   C3520971   5.097   2.432   7.421 -0.1066 -0.3080  0.4811
  183SOPE   H5X20972   5.162   2.365   7.360 -0.8709 -0.7168  0.0979
  183SOPE   H5Y20973   4.993   2.393   7.420 -1.5809  3.1658  1.9798
  183SOPE   C3620974   5.139   2.428   7.563 -0.1421  0.3340 -0.0523
  183SOPE   H6X20975   5.050   2.462   7.622 -0.1848  1.0181 -0.5049
  183SOPE   H6Y20976   5.225   2.497   7.574 -0.5586  0.9916 -0.8123
  183SOPE   C3720977   5.173   2.285   7.600  0.7383 -0.0706 -0.7959
  183SOPE   H7X20978   5.260   2.238   7.549  0.0015 -0.9433 -1.2913
  183SOPE   H7Y20979   5.089   2.219   7.571  0.8382 -0.6394  0.1472
  183SOPE   C3820980   5.183   2.263   7.759 -0.5304 -0.7544 -0.0256
  183SOPE   H8X20981   5.264   2.334   7.787  1.3160 -2.3482 -1.0603
  183SOPE   H8Y20982   5.236   2.166   7.768  2.3091  0.7400  0.5749
  183SOPE   C3920983   5.050   2.272   7.840 -0.3137 -0.0473  0.0988
  183SOPE   H9X20984   4.989   2.182   7.816 -1.9050  0.8199  0.7855
  183SOPE   H9Y20985   4.985   2.353   7.801 -1.0896  0.1624  1.7461
  183SOPE  C31020986   5.072   2.287   7.992  0.1454  0.5771 -0.0740
  183SOPE  H10X20987   4.972   2.288   8.038  0.0762  2.4944 -0.1741
  183SOPE  H10Y20988   5.121   2.382   8.021 -0.9420  1.4619 -1.0677
  183SOPE  C31120989   5.165   2.184   8.067  0.0202  0.6737  0.8921
  183SOPE  H11X20990   5.269   2.222   8.060 -0.3709  1.9359  1.5476
  183SOPE  H11Y20991   5.158   2.089   8.009  2.4920  1.0274 -0.1095
  183SOPE  C31220992   5.125   2.176   8.220 -0.4579  0.0019 -0.3370
  183SOPE  H12X20993   5.023   2.131   8.219 -0.1414 -0.8781  1.4043
  183SOPE  H12Y20994   5.131   2.273   8.274  1.7531  1.4789 -3.0155
  183SOPE  C31320995   5.206   2.079   8.305 -0.0396 -0.7796  0.2842
  183SOPE  H13X20996   5.308   2.117   8.328  0.3710 -0.9658 -1.1192
  183SOPE  H13Y20997   5.220   1.986   8.247  0.0483 -0.3960 -0.3142
  183SOPE  C31420998   5.145   2.051   8.444 -0.3727 -0.3993  0.0644
  183SOPE  H14X20999   5.037   2.029   8.430 -0.7503 -0.3661  2.5272
  183SOPE  H14Y21000   5.149   2.147   8.500 -0.1532  0.6004 -1.5925
  183SOPE  C31521001   5.218   1.939   8.516 -0.1991 -0.6118 -0.2895
  183SOPE  H15X21002   5.315   1.978   8.556 -0.0544 -1.8459  0.6027
  183SOPE  H15Y21003   5.257   1.876   8.434  1.6374  0.9110 -0.6680
  183SOPE  C31621004   5.138   1.860   8.613 -0.1559  0.5440 -0.1390
  183SOPE  H16X21005   5.204   1.789   8.668 -2.1545 -0.2175  1.3706
  183SOPE  H16Y21006   5.069   1.791   8.560 -1.1164 -0.2180  2.0023
  183SOPE  C31721007   5.060   1.946   8.708 -0.0183  0.5238  0.3156
  183SOPE  H17X21008   5.009   1.870   8.772 -0.3790  0.5418  0.0515
  183SOPE  H17Y21009   4.990   2.012   8.652  0.6167  0.3921 -0.6445
  183SOPE  C31821010   5.143   2.026   8.800  0.2766 -0.4048 -0.5113
  183SOPE  H18X21011   5.184   2.109   8.739 -0.7062  0.4924  0.0205
  183SOPE  H18Y21012   5.233   1.979   8.845  1.1043  0.6892 -0.9727
  183SOPE  H18Z21013   5.098   2.077   8.888  0.3524 -0.6591 -0.3224
  184SOPE     N21014   3.961   1.971   6.334 -0.1030  0.4661  0.4932
  184SOPE   HN121015   3.878   2.025   6.366 -0.1620 -0.2469  1.6121
  184SOPE   HN221016   3.921   1.919   6.253 -0.7376 -1.9062  2.1976
  184SOPE   HN321017   3.981   1.892   6.399 -2.4191 -2.5323 -2.1365
  184SOPE   C1221018   4.074   2.055   6.279  0.1500  0.2202 -0.3544
  184SOPE  H12A21019   4.043   2.160   6.266  1.3050  0.8784  1.7087
  184SOPE  H12B21020   4.110   2.006   6.186 -3.0979 -0.0265 -1.6074
  184SOPE   C1121021   4.194   2.057   6.377  0.2636 -0.3380  0.4152
  184SOPE  H11A21022   4.159   2.081   6.480 -0.8767 -2.4363  0.5730
  184SOPE  H11B21023   4.260   2.140   6.342  0.1463  0.3238  1.6853
  184SOPE     P21024   4.404   1.900   6.322 -0.1939 -0.1451  0.3475
  184SOPE   O1321025   4.414   1.980   6.200 -0.8723  0.1606  0.3356
  184SOPE   O1421026   4.432   1.757   6.315  0.2082 -0.0728  0.2360
  184SOPE   O1221027   4.268   1.933   6.394 -0.5042  0.1877  0.6607
  184SOPE   O1121028   4.506   1.959   6.429 -0.4225 -0.1935  0.1361
  184SOPE    C121029   4.570   1.885   6.533  0.0259 -1.0661  0.8270
  184SOPE    HA21030   4.654   1.953   6.559 -0.3751 -0.0850 -0.3184
  184SOPE    HB21031   4.612   1.787   6.505 -2.6843 -2.1703  0.2999
  184SOPE    C221032   4.482   1.852   6.659 -0.2570 -0.4704  0.3824
  184SOPE    HS21033   4.409   1.774   6.628 -0.5741  0.1367 -0.4259
  184SOPE   O2121034   4.426   1.974   6.710 -0.3587  0.2056 -0.6513
  184SOPE   C2121035   4.291   1.967   6.737 -0.1260 -0.6612 -0.1636
  184SOPE   O2221036   4.218   1.878   6.707 -0.1312  0.0211 -0.5558
  184SOPE   C2221037   4.246   2.100   6.807 -0.0435  0.3892 -0.2593
  184SOPE   H2R21038   4.136   2.097   6.816  0.0633 -2.8483  1.1682
  184SOPE   H2S21039   4.283   2.192   6.755 -0.3934  1.1989  0.8792
  184SOPE    C321040   4.566   1.790   6.770 -0.3177 -0.2388  0.3089
  184SOPE    HX21041   4.665   1.841   6.760 -0.6563  0.1655 -1.2540
  184SOPE    HY21042   4.592   1.684   6.750  0.3914  0.2515 -1.5924
  184SOPE   O3121043   4.519   1.805   6.910 -0.4102 -0.5345 -0.0521
  184SOPE   C3121044   4.434   1.711   6.951  0.7322 -0.2158  0.2082
  184SOPE   O3221045   4.377   1.633   6.878 -0.0672  0.9864  0.2358
  184SOPE   C3221046   4.426   1.719   7.106  0.1958 -0.2498  1.0110
  184SOPE   H2X21047   4.448   1.825   7.130 -0.5456  0.1308  0.0838
  184SOPE   H2Y21048   4.508   1.658   7.149  2.0649  0.5884 -1.1956
  184SOPE   C2321049   4.308   2.114   6.952 -0.0300 -0.2330  0.0763
  184SOPE   H3R21050   4.331   2.222   6.959  1.6703 -0.6796  2.2737
  184SOPE   H3S21051   4.406   2.061   6.954 -1.9753 -4.2220  1.3338
  184SOPE   C2421052   4.210   2.081   7.063 -0.5147 -0.5714 -0.1334
  184SOPE   H4R21053   4.116   2.135   7.041  0.1210  0.2995 -0.7612
  184SOPE   H4S21054   4.205   1.972   7.086  0.2125 -0.7414 -0.7292
  184SOPE   C2521055   4.258   2.138   7.199 -0.5167 -0.1424 -0.1932
  184SOPE   H5R21056   4.347   2.088   7.243  1.6642  2.3117 -1.5592
  184SOPE   H5S21057   4.291   2.236   7.160  1.3775 -1.5759 -2.5374
  184SOPE   C2621058   4.136   2.128   7.300  0.5338 -0.9025  0.2861
  184SOPE   H6R21059   4.055   2.199   7.271  1.5636  0.0301 -0.4216
  184SOPE   H6S21060   4.084   2.032   7.282 -1.2211  0.2976 -1.3595
  184SOPE   C2721061   4.188   2.142   7.440  0.2898  0.2749 -0.7429
  184SOPE   H7R21062   4.247   2.052   7.467 -1.4892 -1.2301 -1.6102
  184SOPE   H7S21063   4.258   2.228   7.444  1.2395 -0.4851 -0.8337
  184SOPE   C2821064   4.064   2.146   7.541 -0.9640 -0.0614  0.4431
  184SOPE   H8R21065   4.006   2.051   7.529 -2.8759  1.3200 -2.6176
  184SOPE   H8S21066   4.123   2.149   7.635 -0.0638 -2.7685  0.0568
  184SOPE   C2921067   3.962   2.259   7.514  0.4676  0.0203 -0.4965
  184SOPE   H9121068   3.913   2.261   7.416  0.7739 -1.0008 -0.6775
  184SOPE  C21021069   3.929   2.358   7.601 -0.0803 -0.2340 -0.1426
  184SOPE  H10121070   3.850   2.424   7.563 -0.8600 -1.6383 -1.0274
  184SOPE  C21121071   3.987   2.391   7.736 -0.1139  0.8657  0.2864
  184SOPE  H11R21072   4.037   2.490   7.726  1.7290 -0.0540 -0.1763
  184SOPE  H11S21073   4.063   2.320   7.776  1.6311  2.8703  0.7441
  184SOPE  C21221074   3.880   2.426   7.845  0.3983 -0.2398 -0.7059
  184SOPE  H12R21075   3.921   2.441   7.947 -2.0973  0.3576  0.2862
  184SOPE  H12S21076   3.811   2.339   7.852 -1.2169  1.0888  1.1110
  184SOPE  C21321077   3.778   2.536   7.814  0.2976 -0.1492  0.0069
  184SOPE  H13R21078   3.719   2.518   7.722  0.1204 -3.8380  0.6957
  184SOPE  H13S21079   3.834   2.630   7.794  0.6832 -0.3980 -0.0992
  184SOPE  C21421080   3.697   2.577   7.937  0.3014  0.5961  0.3856
  184SOPE  H14R21081   3.767   2.596   8.021 -0.1266 -1.3963  1.2220
  184SOPE  H14S21082   3.630   2.491   7.957 -1.1131  1.2174 -1.3925
  184SOPE  C21521083   3.615   2.702   7.901  0.5385  0.3246  0.3427
  184SOPE  H15R21084   3.554   2.680   7.811 -0.5582  0.9355  0.9164
  184SOPE  H15S21085   3.673   2.792   7.874  1.6004 -0.4990 -0.1652
  184SOPE  C21621086   3.524   2.742   8.019 -0.6579  0.3038  0.1712
  184SOPE  H16R21087   3.463   2.649   8.028  0.0114 -0.0555  1.3130
  184SOPE  H16S21088   3.459   2.820   7.974 -0.1800 -0.0611 -1.2079
  184SOPE  C21721089   3.595   2.798   8.143  0.0054 -0.4254  0.6599
  184SOPE  H17R21090   3.642   2.896   8.120 -0.4737 -0.0104  1.4273
  184SOPE  H17S21091   3.674   2.726   8.173  0.3552  0.1032  1.0238
  184SOPE  C21821092   3.497   2.810   8.265  0.0973 -0.4298  0.1515
  184SOPE  H18R21093   3.466   2.711   8.304 -1.2979  0.9267  2.7684
  184SOPE  H18S21094   3.401   2.859   8.238 -0.0916 -0.2483  1.0956
  184SOPE  H18T21095   3.544   2.876   8.341 -1.7335 -0.8941  1.7739
  184SOPE   C3321096   4.288   1.690   7.155 -0.7482 -0.1015 -0.6349
  184SOPE   H3X21097   4.265   1.581   7.153 -0.1133 -0.3363  1.7437
  184SOPE   H3Y21098   4.218   1.755   7.098 -0.0133 -0.9822 -2.6424
  184SOPE   C3421099   4.276   1.722   7.309 -0.5693  0.2056 -0.2423
  184SOPE   H4X21100   4.302   1.830   7.313 -1.1506  0.3205  0.5868
  184SOPE   H4Y21101   4.346   1.669   7.377  0.0151  1.2560  0.0106
  184SOPE   C3521102   4.128   1.710   7.364  0.4740  0.7292  1.0330
  184SOPE   H5X21103   4.090   1.606   7.352 -0.5240  0.9293  2.3335
  184SOPE   H5Y21104   4.057   1.771   7.304 -0.3565 -0.4417  0.7746
  184SOPE   C3621105   4.116   1.727   7.514  0.5822  0.7351  0.5183
  184SOPE   H6X21106   4.099   1.836   7.531 -1.2073  0.6085 -0.2532
  184SOPE   H6Y21107   4.201   1.690   7.575  1.5590  0.1602 -1.1216
  184SOPE   C3721108   3.989   1.659   7.560 -0.0916 -0.4286 -0.0827
  184SOPE   H7X21109   4.012   1.550   7.549 -1.7108 -0.5443 -3.8333
  184SOPE   H7Y21110   3.904   1.695   7.498  0.6862  0.8548 -0.4381
  184SOPE   C3821111   3.970   1.703   7.708  1.0463  0.3579 -0.1376
  184SOPE   H8X21112   3.939   1.810   7.708  1.9402  0.6700  2.4253
  184SOPE   H8Y21113   4.062   1.699   7.769 -0.4335  0.2462  2.1985
  184SOPE   C3921114   3.861   1.624   7.779  0.6109  0.4611  0.1777
  184SOPE   H9X21115   3.892   1.519   7.801 -0.1056 -0.4297 -2.7310
  184SOPE   H9Y21116   3.775   1.609   7.710  2.7055 -0.4730 -2.4178
  184SOPE  C31021117   3.811   1.681   7.913 -1.0080 -0.0080 -0.3017
  184SOPE  H10X21118   3.767   1.783   7.910 -2.2475 -0.5310 -0.7702
  184SOPE  H10Y21119   3.899   1.691   7.980 -0.5396  0.1933 -0.9469
  184SOPE  C31121120   3.708   1.596   7.988  0.1346 -0.3517 -0.0525
  184SOPE  H11X21121   3.735   1.489   8.003  0.9917 -0.4996 -2.3045
  184SOPE  H11Y21122   3.619   1.597   7.923  0.1434  3.6300 -0.2484
  184SOPE  C31221123   3.656   1.657   8.113 -0.1698 -0.6091 -1.4475
  184SOPE  H12X21124   3.627   1.760   8.085  1.5108  0.8951  1.7571
  184SOPE  H12Y21125   3.723   1.670   8.201 -0.8102 -2.9956 -0.5098
  184SOPE  C31321126   3.519   1.595   8.164 -0.9090  0.1593 -0.0297
  184SOPE  H13X21127   3.534   1.487   8.183 -1.3692  0.2445  0.8897
  184SOPE  H13Y21128   3.452   1.607   8.076 -0.5630  1.5553 -0.1352
  184SOPE  C31421129   3.456   1.662   8.287  0.0837  0.6112  0.0112
  184SOPE  H14X21130   3.421   1.762   8.252 -0.5311 -0.1523 -1.6535
  184SOPE  H14Y21131   3.540   1.669   8.358  0.0587 -1.1455  0.2389
  184SOPE  C31521132   3.338   1.584   8.351  0.2575 -0.0453 -0.0081
  184SOPE  H15X21133   3.261   1.555   8.276  1.4113  1.8174 -2.0166
  184SOPE  H15Y21134   3.299   1.658   8.424 -2.6772  1.3141 -2.7109
  184SOPE  C31621135   3.372   1.461   8.434  0.3532  0.0063 -0.0114
  184SOPE  H16X21136   3.402   1.374   8.371 -0.2940  0.6401 -1.2312
  184SOPE  H16Y21137   3.276   1.430   8.480 -0.8129  0.9011 -1.7043
  184SOPE  C31721138   3.461   1.489   8.559 -0.3981 -0.5896  0.3956
  184SOPE  H17X21139   3.402   1.568   8.611  1.3994 -0.1110  1.8077
  184SOPE  H17Y21140   3.558   1.533   8.527 -0.5262  0.8164  1.8096
  184SOPE  C31821141   3.496   1.364   8.648  0.6035 -0.5103 -0.2091
  184SOPE  H18X21142   3.405   1.314   8.687 -0.0881  0.9190  0.0960
  184SOPE  H18Y21143   3.558   1.392   8.736 -2.4666 -0.9111  2.2568
  184SOPE  H18Z21144   3.555   1.289   8.591  0.1527  0.2331 -1.7056
  185SAPI   C1221145   2.721   5.767  11.075 -0.0349 -0.1096  0.8564
  185SAPI    H221146   2.657   5.715  11.150  0.8031  0.2996  1.8922
  185SAPI    O221147   2.670   5.904  11.091 -0.0564  0.2185 -0.5330
  185SAPI   HO221148   2.574   5.902  11.088 -0.1374  1.6499  0.4440
  185SAPI   C1321149   2.867   5.754  11.101  0.3890  0.1304 -0.4448
  185SAPI    H321150   2.897   5.649  11.085  1.9922  0.7562 -1.9109
  185SAPI    O321151   2.897   5.793  11.233  0.2374  0.6840 -0.6402
  185SAPI   HO321152   2.832   5.858  11.263  0.1530 -1.0571  3.7643
  185SAPI   C1421153   2.945   5.835  11.001  0.0024  0.2851 -0.0080
  185SAPI    H421154   2.914   5.941  11.010 -1.3007  0.0729 -1.6334
  185SAPI    O421155   3.084   5.847  11.033 -0.0988 -0.0624  0.6165
  185SAPI   HO421156   3.076   5.875  11.125 -0.9988 -1.9659  1.1832
  185SAPI   C1521157   2.924   5.795  10.867 -0.2335  0.0208  0.5485
  185SAPI    H521158   2.972   5.696  10.850 -3.5340 -1.5368 -0.4573
  185SAPI    O521159   2.998   5.876  10.770 -0.8054  0.1891 -0.1284
  185SAPI   HO521160   3.061   5.928  10.821 -1.6863  2.2695 -1.0472
  185SAPI   C1621161   2.778   5.792  10.837  0.0930  0.6380  0.1256
  185SAPI    H621162   2.740   5.897  10.836 -0.4534  0.4666  1.4934
  185SAPI    O621163   2.758   5.740  10.706  0.2395  0.2100  1.1132
  185SAPI   HO621164   2.732   5.647  10.700  0.0591  0.3340 -0.7913
  185SAPI   C1121165   2.699   5.702  10.937  0.1084 -0.0891  0.0366
  185SAPI    H121166   2.750   5.604  10.934  0.5281  0.1408 -0.6070
  185SAPI     P21167   2.478   5.560  10.880  0.0131 -0.0246  0.5893
  185SAPI   O1321168   2.336   5.584  10.847 -0.0980 -0.3445  0.2498
  185SAPI   O1421169   2.505   5.473  11.000  0.0138  0.4524 -0.2348
  185SAPI   O1221170   2.554   5.702  10.910  0.3704  0.2027  0.2736
  185SAPI   O1121171   2.559   5.519  10.754  0.2008  0.3085 -0.1979
  185SAPI    C121172   2.636   5.397  10.767  0.9066 -0.9664 -0.6512
  185SAPI    HA21173   2.716   5.415  10.843 -0.6912 -0.3562  0.9511
  185SAPI    HB21174   2.566   5.312  10.779 -0.9423  0.8278  3.0697
  185SAPI    C221175   2.722   5.375  10.636 -0.0569  0.4094  0.2781
  185SAPI    HS21176   2.750   5.268  10.643  0.5999  0.6396  1.4195
  185SAPI   O2121177   2.834   5.467  10.622 -0.7749  0.0684 -0.0788
  185SAPI   C2121178   2.938   5.404  10.557 -0.4578 -0.5073  0.7734
  185SAPI   O2221179   2.938   5.289  10.514  0.5566 -1.0888 -0.6368
  185SAPI   C2221180   3.062   5.497  10.554  0.0941 -0.4037  0.5950
  185SAPI   H2R21181   3.030   5.587  10.611  0.2728 -0.4667  0.7994
  185SAPI   H2S21182   3.145   5.440  10.602 -0.7060 -1.9569  0.1980
  185SAPI    C321183   2.626   5.384  10.513  0.3101 -1.1423 -1.2810
  185SAPI    HX21184   2.611   5.493  10.497 -1.3028 -0.7115  2.1621
  185SAPI    HY21185   2.527   5.349  10.549 -0.1038  1.5372  0.4008
  185SAPI   O3121186   2.680   5.319  10.393 -0.2368 -0.8448  0.2138
  185SAPI   C3121187   2.637   5.196  10.374  0.0841  0.1710  0.0890
  185SAPI   O3221188   2.567   5.135  10.455  0.8907  0.0192  0.4130
  185SAPI   C3221189   2.717   5.127  10.256 -0.0287 -0.8058 -0.2440
  185SAPI   H2X21190   2.732   5.019  10.278  1.2372 -0.6119 -0.0318
  185SAPI   H2Y21191   2.816   5.177  10.257  0.2233 -1.2899 -0.2244
  185SAPI   C2321192   3.098   5.547  10.415  0.1946  0.0410  0.1345
  185SAPI   H3R21193   3.157   5.637  10.443 -2.4268  1.7812  0.4245
  185SAPI   H3S21194   3.015   5.570  10.346 -0.4268  0.6955  1.0779
  185SAPI   C2421195   3.201   5.453  10.336  1.0087  0.1816  0.2367
  185SAPI   H4R21196   3.288   5.429  10.402  1.4023 -0.8704 -0.6242
  185SAPI   H4S21197   3.240   5.508  10.248 -0.1809 -0.3506 -0.6537
  185SAPI   C2521198   3.136   5.318  10.293 -0.3985 -0.2184 -0.2155
  185SAPI   H5R21199   3.137   5.236  10.367 -0.5736  0.0105  0.0403
  185SAPI   C2621200   3.078   5.299  10.177 -0.0655 -0.8627 -0.1533
  185SAPI   H6R21201   3.038   5.198  10.158 -1.9260 -0.2393  0.2500
  185SAPI   C2721202   3.058   5.402  10.074 -0.6379 -0.2817  1.1836
  185SAPI   H7R21203   3.129   5.378   9.991 -1.3384  4.3293 -1.0813
  185SAPI   H7S21204   3.073   5.507  10.108  0.5645 -0.0966  0.1679
  185SAPI   C2821205   2.920   5.398  10.007  0.1596 -0.1183 -0.1295
  185SAPI   H8R21206   2.843   5.385  10.084  1.1734 -1.7218  0.6749
  185SAPI   C2921207   2.890   5.408   9.880 -0.3490 -0.7269  0.5198
  185SAPI   H9R21208   2.785   5.388   9.857 -0.6113 -2.1964  2.7212
  185SAPI  C21021209   2.983   5.436   9.772 -0.1651 -0.2123  0.3121
  185SAPI  H10R21210   2.990   5.344   9.710  1.0704 -1.1966  1.8393
  185SAPI  H10S21211   3.091   5.454   9.790  1.2768 -2.2442 -4.6207
  185SAPI  C21121212   2.918   5.550   9.698 -0.8456  0.8927 -0.7001
  185SAPI  H11R21213   2.883   5.634   9.760 -0.7082  0.5455 -0.1423
  185SAPI  C21221214   2.898   5.558   9.564  0.4697 -0.4488 -0.8300
  185SAPI  H12R21215   2.833   5.636   9.522 -0.7611 -0.8414  0.2965
  185SAPI  C21321216   2.929   5.450   9.463  0.0516 -0.7558  0.4534
  185SAPI  H13R21217   2.837   5.391   9.442 -0.8864  0.4644  0.9647
  185SAPI  H13S21218   3.002   5.379   9.508  1.3262  0.3651  0.2172
  185SAPI  C21421219   3.003   5.493   9.341  0.0897 -0.0413  0.3249
  185SAPI  H14R21220   3.110   5.496   9.365 -0.0053  0.3125  0.7036
  185SAPI  C21521221   2.956   5.527   9.221  0.0018 -0.3933 -0.3438
  185SAPI  H15R21222   3.025   5.555   9.141  0.3541  1.6023  0.6140
  185SAPI  C21621223   2.807   5.516   9.183  0.0500  0.9128  1.4102
  185SAPI  H16R21224   2.770   5.619   9.165  1.0602  1.4478  2.2303
  185SAPI  H16S21225   2.747   5.466   9.262 -0.8684 -0.3500 -0.0320
  185SAPI  C21721226   2.787   5.410   9.071 -0.1094 -0.5321 -0.5091
  185SAPI  H17R21227   2.820   5.313   9.113  0.2424  0.1467  0.8138
  185SAPI  H17S21228   2.842   5.420   8.975 -0.2507 -1.5752 -0.7100
  185SAPI  C21821229   2.641   5.402   9.044 -0.3181  0.1427  0.4606
  185SAPI  H18R21230   2.582   5.493   9.066 -2.0297 -0.3534 -1.7581
  185SAPI  H18S21231   2.595   5.334   9.119  0.7276 -2.7954 -1.3688
  185SAPI  C21921232   2.619   5.360   8.894  0.3755  0.4068  0.0164
  185SAPI  H19R21233   2.639   5.252   8.874 -1.6604  0.2994 -1.8070
  185SAPI  H19S21234   2.704   5.409   8.842  1.1445 -0.4694  0.4222
  185SAPI  C22021235   2.483   5.399   8.836 -0.1665 -0.0931  0.7297
  185SAPI  H20R21236   2.406   5.379   8.914 -1.0675 -1.0698 -0.3707
  185SAPI  H20S21237   2.458   5.347   8.742  1.6183  1.2109 -0.5308
  185SAPI  H20T21238   2.475   5.507   8.810  1.4043 -0.5512 -1.9570
  185SAPI   C3321239   2.657   5.147  10.112 -0.1490  0.2638 -0.1859
  185SAPI   H3X21240   2.648   5.257  10.096  0.5993  0.3007 -0.3549
  185SAPI   H3Y21241   2.551   5.112  10.109 -0.5991  1.5115  0.0779
  185SAPI   C3421242   2.729   5.085   9.997 -1.6143  0.0408  0.2192
  185SAPI   H4X21243   2.730   4.975  10.007 -2.4338  0.0038 -0.0471
  185SAPI   H4Y21244   2.828   5.135   9.996 -1.9239  0.6857 -0.6525
  185SAPI   C3521245   2.656   5.111   9.862  0.1332 -0.1327 -0.2558
  185SAPI   H5X21246   2.638   5.218   9.839 -0.7344 -0.6272 -2.1209
  185SAPI   H5Y21247   2.560   5.055   9.856 -0.2090  0.4966 -0.7978
  185SAPI   C3621248   2.735   5.072   9.741 -0.2615 -0.5811 -0.3179
  185SAPI   H6X21249   2.734   4.961   9.746  0.0563 -0.5770 -0.1630
  185SAPI   H6Y21250   2.841   5.105   9.738 -1.0072  2.1152 -0.0333
  185SAPI   C3721251   2.667   5.104   9.600  0.6824 -0.3254 -0.3935
  185SAPI   H7X21252   2.661   5.215   9.598  3.1812 -0.0410  1.5994
  185SAPI   H7Y21253   2.563   5.065   9.595 -0.1139  1.3507  1.4843
  185SAPI   C3821254   2.742   5.058   9.471 -0.3010  0.2002  0.1991
  185SAPI   H8X21255   2.746   4.947   9.472  0.0670  0.1791 -1.3650
  185SAPI   H8Y21256   2.847   5.093   9.466 -0.2336 -0.1893 -2.6018
  185SAPI   C3921257   2.671   5.102   9.342  0.8140  0.1145 -0.1028
  185SAPI   H9X21258   2.693   5.207   9.314 -0.7506  0.1921 -1.1724
  185SAPI   H9Y21259   2.561   5.101   9.359  1.1502 -0.2089  2.3113
  185SAPI  C31021260   2.708   5.011   9.219 -0.6759  0.1111  0.2261
  185SAPI  H10X21261   2.717   4.903   9.242 -0.7537 -0.1471 -0.8668
  185SAPI  H10Y21262   2.810   5.033   9.182 -1.2769 -0.2198 -1.7715
  185SAPI  C31121263   2.604   5.023   9.102  0.3750 -0.2568 -0.3656
  185SAPI  H11X21264   2.599   5.131   9.079 -1.3728  0.3330  2.3506
  185SAPI  H11Y21265   2.504   4.992   9.140  1.2587  0.9099  3.3545
  185SAPI  C31221266   2.630   4.960   8.971 -0.0192  0.0328  0.9732
  185SAPI  H12X21267   2.638   4.850   8.980 -1.3617 -0.2776 -0.8513
  185SAPI  H12Y21268   2.723   4.996   8.922  1.0993 -2.1232  1.3746
  185SAPI  C31321269   2.523   4.990   8.856  0.2861 -0.5645 -0.4902
  185SAPI  H13X21270   2.565   4.991   8.753  0.0439  0.4644 -0.5886
  185SAPI  H13Y21271   2.490   5.093   8.880 -1.4287 -1.4691  1.2919
  185SAPI  C31421272   2.401   4.900   8.852 -0.8247 -0.3803  0.7708
  185SAPI  H14X21273   2.360   4.910   8.955  0.6574  1.2101  1.2515
  185SAPI  H14Y21274   2.431   4.794   8.837 -1.4092 -0.4986  0.3730
  185SAPI  C31521275   2.310   4.935   8.732  0.4689  0.3738 -0.0406
  185SAPI  H15X21276   2.317   5.046   8.724  2.5075  0.1590 -3.7667
  185SAPI  H15Y21277   2.203   4.912   8.754  0.4487  1.2934  0.8740
  185SAPI  C31621278   2.345   4.861   8.603  0.1572 -0.1818 -0.3561
  185SAPI  H16X21279   2.326   4.752   8.613  0.1136 -0.0746  0.8357
  185SAPI  H16Y21280   2.454   4.873   8.582 -0.5474  2.4252 -3.1792
  185SAPI  C31721281   2.287   4.922   8.478 -0.1398  0.7509  0.7725
  185SAPI  H17X21282   2.176   4.916   8.479 -0.0576 -1.5280  0.9413
  185SAPI  H17Y21283   2.335   4.863   8.396  0.7204  0.8410  1.2054
  185SAPI  C31821284   2.333   5.063   8.444 -0.4273  0.0861 -0.4129
  185SAPI  H18X21285   2.443   5.071   8.442 -0.3948  0.0423  0.5233
  185SAPI  H18Y21286   2.309   5.143   8.517  1.1793  0.8175 -0.6462
  185SAPI  H18Z21287   2.291   5.101   8.349 -1.6323  0.5494  0.2792
  186SAPI   C1221288   1.905   2.549  10.893  0.1773  0.3007 -0.3249
  186SAPI    H221289   1.802   2.520  10.924  1.0059 -0.8427  1.5606
  186SAPI    O221290   1.970   2.573  11.016  0.2912 -0.0102  0.1429
  186SAPI   HO221291   1.909   2.624  11.071 -0.7435 -0.4440 -0.5829
  186SAPI   C1321292   1.951   2.412  10.837 -0.6297  0.0765 -0.1801
  186SAPI    H321293   1.891   2.410  10.743  0.0562 -1.5511 -0.6096
  186SAPI    O321294   1.919   2.303  10.921 -0.8574 -0.1975 -0.2592
  186SAPI   HO321295   1.835   2.267  10.889  0.0740 -3.2349  0.3280
  186SAPI   C1421296   2.093   2.427  10.785 -0.4026  0.8232  0.5086
  186SAPI    H421297   2.163   2.450  10.868  2.0192  0.6755 -1.4124
  186SAPI    O421298   2.138   2.307  10.730  0.7037 -0.0394 -0.1856
  186SAPI   HO421299   2.231   2.301  10.752  0.8569 -3.6662 -1.1863
  186SAPI   C1521300   2.098   2.532  10.683 -0.4393 -1.1741  0.0397
  186SAPI    H521301   2.045   2.496  10.592  1.5534 -1.8969 -0.8915
  186SAPI    O521302   2.232   2.549  10.635  0.2924 -0.0357 -0.0115
  186SAPI   HO521303   2.247   2.466  10.588 -1.3823  0.7462 -2.1053
  186SAPI   C1621304   2.044   2.669  10.728 -0.2907  0.8842  0.4275
  186SAPI    H621305   2.119   2.713  10.797  1.1574  1.3514 -1.3646
  186SAPI    O621306   2.046   2.764  10.627 -0.2673  0.0452 -0.0619
  186SAPI   HO621307   1.969   2.820  10.635  0.0815  0.9609 -2.2192
  186SAPI   C1121308   1.908   2.658  10.794 -0.4826 -0.4004  0.1298
  186SAPI    H121309   1.835   2.629  10.715 -0.7231  2.1848 -0.7256
  186SAPI     P21310   1.743   2.867  10.788  0.2320  0.1782  0.3225
  186SAPI   O1321311   1.731   2.995  10.852 -0.3515 -0.6688 -0.6485
  186SAPI   O1421312   1.619   2.788  10.784 -0.0335 -0.7651  0.5227
  186SAPI   O1221313   1.862   2.782  10.856  0.0692  0.1481 -0.2391
  186SAPI   O1121314   1.801   2.884  10.644 -1.1923 -0.1753  0.3217
  186SAPI    C121315   1.730   2.854  10.522 -0.7075 -0.5488  0.0369
  186SAPI    HA21316   1.758   2.751  10.491  0.5866 -0.5998  1.2874
  186SAPI    HB21317   1.619   2.864  10.518 -0.5330  1.3696 -1.4041
  186SAPI    C221318   1.767   2.949  10.397 -0.3102 -0.1121 -0.0785
  186SAPI    HS21319   1.710   2.921  10.306  0.7645  1.0548 -1.1506
  186SAPI   O2121320   1.911   2.952  10.379 -0.5300  0.2163 -0.0804
  186SAPI   C2121321   1.953   2.850  10.307 -1.1553  0.1646  0.0477
  186SAPI   O2221322   1.888   2.758  10.267  0.1206  0.5512  0.3559
  186SAPI   C2221323   2.100   2.874  10.259 -0.3195  0.9661 -0.3374
  186SAPI   H2R21324   2.165   2.822  10.333  0.2298  1.9246 -0.1391
  186SAPI   H2S21325   2.113   2.822  10.162  1.1431 -1.7619  1.1871
  186SAPI    C321326   1.724   3.095  10.434  0.7183 -0.1457  0.7155
  186SAPI    HX21327   1.803   3.141  10.498  2.4109 -1.1172 -0.5771
  186SAPI    HY21328   1.626   3.086  10.485  0.3521 -1.2056 -0.1345
  186SAPI   O3121329   1.714   3.177  10.313  0.0816  0.0553  0.1800
  186SAPI   C3121330   1.591   3.175  10.256 -0.0048  0.3921 -0.3135
  186SAPI   O3221331   1.501   3.098  10.293 -0.0044  0.3664 -0.1212
  186SAPI   C3221332   1.592   3.273  10.138  0.2570  0.0609 -0.3840
  186SAPI   H2X21333   1.695   3.276  10.097  0.0904 -1.1419 -0.9576
  186SAPI   H2Y21334   1.567   3.374  10.176 -3.9415 -1.2599  0.9223
  186SAPI   C2321335   2.130   3.023  10.230 -0.1216  0.3467 -0.0856
  186SAPI   H3R21336   2.235   3.056  10.242 -0.4390  0.9944  1.0332
  186SAPI   H3S21337   2.091   3.087  10.312  0.5738 -0.6882  1.0955
  186SAPI   C2421338   2.096   3.053  10.089 -0.3522 -0.1313  0.5388
  186SAPI   H4R21339   2.167   2.985  10.038  1.1712  1.2333  0.7815
  186SAPI   H4S21340   2.130   3.157  10.073 -0.2260 -0.2324  0.1312
  186SAPI   C2521341   1.949   3.040  10.044 -0.0424 -0.0422  0.3417
  186SAPI   H5R21342   1.877   3.058  10.125 -0.0591 -0.0859  0.3362
  186SAPI   C2621343   1.901   3.003   9.919  0.6501 -0.3242 -0.1137
  186SAPI   H6R21344   1.792   2.992   9.917  0.6064 -0.4168  1.2763
  186SAPI   C2721345   1.987   2.959   9.811 -0.0276  0.1285 -0.5379
  186SAPI   H7R21346   1.946   2.864   9.769 -0.6403  0.7030 -1.2678
  186SAPI   H7S21347   2.090   2.930   9.839 -0.5488 -1.9152 -0.5445
  186SAPI   C2821348   1.975   3.065   9.698 -0.1043  0.2304  0.0824
  186SAPI   H8R21349   1.968   3.170   9.731 -1.3990 -0.3611  1.8260
  186SAPI   C2921350   1.951   3.041   9.567  0.2261  0.9918  0.7876
  186SAPI   H9R21351   1.947   3.125   9.496  0.9208  1.1177  0.8827
  186SAPI  C21021352   1.918   2.905   9.502 -0.2543  0.3759  0.0638
  186SAPI  H10R21353   1.809   2.906   9.481 -0.5642 -2.5657  1.0008
  186SAPI  H10S21354   1.923   2.816   9.568 -0.3126  1.0668  1.0144
  186SAPI  C21121355   1.983   2.891   9.365  0.2614  0.4032  0.3678
  186SAPI  H11R21356   2.059   2.963   9.333 -1.2353  1.0886 -1.8737
  186SAPI  C21221357   1.940   2.816   9.262 -0.5313  0.1712  0.7311
  186SAPI  H12R21358   1.987   2.820   9.163 -1.6008  1.3772  0.2534
  186SAPI  C21321359   1.808   2.737   9.254 -0.5281 -0.0884 -0.9182
  186SAPI  H13R21360   1.748   2.752   9.346  0.6860  2.4951 -0.4548
  186SAPI  H13S21361   1.830   2.629   9.239  0.7525 -0.1616  1.1986
  186SAPI  C21421362   1.711   2.772   9.149 -0.1453 -0.2188 -0.1829
  186SAPI  H14R21363   1.620   2.824   9.182  0.4233  1.8153 -1.6147
  186SAPI  C21521364   1.718   2.746   9.019 -0.5116  0.4198 -0.2051
  186SAPI  H15R21365   1.633   2.768   8.953  0.6212  0.7720 -1.6031
  186SAPI  C21621366   1.826   2.675   8.940  0.3904 -0.1604 -0.3049
  186SAPI  H16R21367   1.799   2.574   8.903  2.2223 -0.6248 -0.5041
  186SAPI  H16S21368   1.913   2.664   9.008  0.6985  2.6633 -0.1149
  186SAPI  C21721369   1.887   2.747   8.817 -0.2174  0.0349  0.6842
  186SAPI  H17R21370   1.800   2.781   8.756 -0.3159 -0.1109  0.7432
  186SAPI  H17S21371   1.941   2.670   8.758 -1.6134  0.1172 -0.8041
  186SAPI  C21821372   1.975   2.867   8.838 -0.5041 -0.9127 -0.5087
  186SAPI  H18R21373   2.066   2.837   8.894 -0.2633  0.9427  0.1725
  186SAPI  H18S21374   1.919   2.949   8.888 -1.3283 -0.3107 -2.3116
  186SAPI  C21921375   2.017   2.936   8.701 -0.4939  0.4901  0.2229
  186SAPI  H19R21376   1.924   2.963   8.646 -2.1835 -3.8614  0.5303
  186SAPI  H19S21377   2.077   2.870   8.636 -1.1804 -1.0378  1.0668
  186SAPI  C22021378   2.093   3.070   8.719  0.8492 -0.3100 -0.1499
  186SAPI  H20R21379   2.031   3.138   8.781  2.4922  0.1435  1.0711
  186SAPI  H20S21380   2.104   3.126   8.624 -1.7204 -0.2601 -0.4827
  186SAPI  H20T21381   2.190   3.050   8.770  0.6416  0.2547  0.4823
  186SAPI   C3321382   1.496   3.226  10.027  0.6363  0.6743  0.7348
  186SAPI   H3X21383   1.390   3.254  10.040  0.1371 -0.5918 -0.3615
  186SAPI   H3Y21384   1.492   3.115  10.027  0.9402  0.6617  0.9987
  186SAPI   C3421385   1.552   3.283   9.891  0.1071 -0.1834 -0.4725
  186SAPI   H4X21386   1.653   3.239   9.880  0.3936  0.6448 -1.2361
  186SAPI   H4Y21387   1.557   3.393   9.910 -0.1991  0.5784 -4.1147
  186SAPI   C3521388   1.458   3.257   9.773 -0.2936  0.3181  0.8885
  186SAPI   H5X21389   1.365   3.314   9.791 -0.1640  1.5716 -1.8328
  186SAPI   H5Y21390   1.435   3.149   9.758 -1.9026  0.8067 -0.3604
  186SAPI   C3621391   1.513   3.301   9.636 -0.0055 -0.1039  0.1125
  186SAPI   H6X21392   1.541   3.409   9.638  0.2091 -0.1704  0.9615
  186SAPI   H6Y21393   1.432   3.289   9.561  0.7154 -1.5797 -0.4737
  186SAPI   C3721394   1.641   3.224   9.586 -0.0130  0.6165 -0.0047
  186SAPI   H7X21395   1.604   3.119   9.581 -0.6191  0.8659 -1.2836
  186SAPI   H7Y21396   1.726   3.242   9.655 -0.7152  4.0926  0.0870
  186SAPI   C3821397   1.677   3.262   9.439 -0.1841 -0.3959 -0.4025
  186SAPI   H8X21398   1.787   3.245   9.442 -0.4671 -2.3311  1.0339
  186SAPI   H8Y21399   1.645   3.367   9.425 -0.0407 -0.3659 -0.5068
  186SAPI   C3921400   1.609   3.172   9.342  0.2008  0.0573 -0.2492
  186SAPI   H9X21401   1.500   3.192   9.345  0.7167  3.8075 -1.2436
  186SAPI   H9Y21402   1.621   3.062   9.353  0.3107 -0.0986 -1.7402
  186SAPI  C31021403   1.664   3.197   9.195  0.0159  0.0022 -0.4311
  186SAPI  H10X21404   1.768   3.160   9.179 -0.6374 -1.6091 -1.1608
  186SAPI  H10Y21405   1.647   3.304   9.174 -1.2955 -0.9364 -5.5322
  186SAPI  C31121406   1.585   3.119   9.091 -0.4034  0.0106 -0.0399
  186SAPI  H11X21407   1.478   3.147   9.079 -0.6762 -1.2241 -0.6606
  186SAPI  H11Y21408   1.586   3.011   9.115 -0.3259 -0.0593 -0.3545
  186SAPI  C31221409   1.650   3.124   8.952  0.3533 -0.1290 -0.0854
  186SAPI  H12X21410   1.743   3.065   8.955  1.1038  0.8684 -1.9682
  186SAPI  H12Y21411   1.679   3.229   8.928 -2.2301  0.7373  0.2113
  186SAPI  C31321412   1.553   3.065   8.844 -0.5538 -0.0110 -0.9447
  186SAPI  H13X21413   1.460   3.124   8.846 -0.1054  0.7039  1.3058
  186SAPI  H13Y21414   1.532   2.963   8.884  1.7401 -0.3402 -0.3899
  186SAPI  C31421415   1.611   3.066   8.706  0.5398 -0.6561  0.0457
  186SAPI  H14X21416   1.637   2.960   8.685 -1.2285 -0.9222 -1.0128
  186SAPI  H14Y21417   1.714   3.107   8.697  0.7409 -1.1279  0.1640
  186SAPI  C31521418   1.517   3.117   8.596 -0.2496  0.7503 -0.3527
  186SAPI  H15X21419   1.437   3.040   8.597  2.0908 -1.8820  0.1784
  186SAPI  H15Y21420   1.571   3.119   8.499  3.2511 -1.2759  1.3248
  186SAPI  C31621421   1.455   3.259   8.610  0.6518  0.2210  0.0453
  186SAPI  H16X21422   1.424   3.275   8.715 -0.9882  0.3439 -0.4428
  186SAPI  H16Y21423   1.364   3.260   8.547 -1.0192 -2.2413  2.2454
  186SAPI  C31721424   1.544   3.373   8.554  0.0792 -0.3675 -0.0098
  186SAPI  H17X21425   1.496   3.472   8.570  0.7685 -0.1360  0.7122
  186SAPI  H17Y21426   1.536   3.362   8.444 -0.4313 -1.4815  0.1239
  186SAPI  C31821427   1.691   3.377   8.605 -0.1483  0.4523  0.6713
  186SAPI  H18X21428   1.743   3.297   8.548 -1.2015 -1.2452  2.0020
  186SAPI  H18Y21429   1.698   3.372   8.716 -1.6439  0.0117  0.7736
  186SAPI  H18Z21430   1.748   3.468   8.576  1.2972  0.0678  2.1819
  187SAPI   C1221431   3.664   4.841   6.238  0.1195  0.4358  0.4012
  187SAPI    H221432   3.709   4.805   6.333  2.0868 -2.8843 -1.6104
  187SAPI    O221433   3.715   4.773   6.123  0.4122 -0.0431  0.0342
  187SAPI   HO221434   3.792   4.821   6.093  0.2797  0.0727 -0.1273
  187SAPI   C1321435   3.515   4.832   6.250  0.8148  0.3177 -0.1794
  187SAPI    H321436   3.488   4.894   6.338 -1.4190 -1.0394  0.1854
  187SAPI    O321437   3.472   4.705   6.285 -0.4826 -0.2751 -0.5281
  187SAPI   HO321438   3.535   4.644   6.247  1.0850  1.1394 -0.3319
  187SAPI   C1421439   3.441   4.878   6.127  0.1353 -0.9546  0.0806
  187SAPI    H421440   3.464   4.833   6.029 -0.7790  0.3315 -0.7608
  187SAPI    O421441   3.298   4.875   6.145 -0.5053  0.3766  0.1772
  187SAPI   HO421442   3.259   4.891   6.059  0.1460 -1.4000 -0.5132
  187SAPI   C1521443   3.488   5.023   6.110  0.4550 -0.6523 -0.4102
  187SAPI    H521444   3.464   5.079   6.203  3.0438  0.8866 -0.5962
  187SAPI    O521445   3.415   5.093   6.010 -0.0722  0.6401 -0.1216
  187SAPI   HO521446   3.441   5.066   5.922 -1.1736  1.7805 -0.8255
  187SAPI   C1621447   3.635   5.049   6.107 -0.4150  0.2996 -0.3386
  187SAPI    H621448   3.664   5.010   6.007 -4.1364 -0.6400 -1.1881
  187SAPI    O621449   3.664   5.186   6.112 -0.0271  0.0749 -0.0388
  187SAPI   HO621450   3.747   5.209   6.155 -1.0434  2.0815  0.9913
  187SAPI   C1121451   3.709   4.987   6.228 -0.4599  0.5285  0.7770
  187SAPI    H121452   3.683   5.042   6.321 -0.0037  0.1484  1.1382
  187SAPI     P21453   3.957   5.082   6.298  0.1701 -0.2393  0.0705
  187SAPI   O1321454   3.897   5.213   6.265 -0.3852 -0.5976 -0.1508
  187SAPI   O1421455   4.102   5.064   6.265 -0.1419 -0.1391 -0.3105
  187SAPI   O1221456   3.857   4.973   6.219 -0.0641 -0.7805 -0.0053
  187SAPI   O1121457   3.938   5.057   6.450  0.2188 -1.0236  0.2334
  187SAPI    C121458   3.979   4.938   6.518  0.4468  0.3514  0.6449
  187SAPI    HA21459   3.945   4.848   6.462  0.8017 -1.4203  3.1476
  187SAPI    HB21460   4.090   4.940   6.522  0.5008 -0.2115 -0.2901
  187SAPI    C221461   3.920   4.918   6.657 -0.1948 -0.7229 -0.4417
  187SAPI    HS21462   3.987   4.978   6.723  0.4415  1.2527 -2.7278
  187SAPI   O2121463   3.904   4.776   6.689  0.1614  0.0484  0.6236
  187SAPI   C2121464   4.013   4.706   6.718 -0.0431 -0.8404  0.1346
  187SAPI   O2221465   4.127   4.755   6.723  0.1085  0.6736  0.5175
  187SAPI   C2221466   3.975   4.569   6.771 -0.0369 -0.5743  0.4039
  187SAPI   H2R21467   3.869   4.567   6.803 -0.3886 -2.0672 -0.7513
  187SAPI   H2S21468   3.972   4.500   6.684 -0.9652  0.4801 -0.4344
  187SAPI    C321469   3.777   4.985   6.667 -0.2775 -0.6791  0.2936
  187SAPI    HX21470   3.709   4.959   6.583  0.5988  0.6650 -0.8613
  187SAPI    HY21471   3.801   5.089   6.637  2.3800 -1.3909 -0.2971
  187SAPI   O3121472   3.713   4.976   6.796  0.2639  0.2651  0.4375
  187SAPI   C3121473   3.747   5.050   6.892 -0.3957  0.0056 -0.5017
  187SAPI   O3221474   3.843   5.131   6.889  0.4179  0.3098 -0.3531
  187SAPI   C3221475   3.673   4.999   7.008 -0.2888  0.6299 -0.8655
  187SAPI   H2X21476   3.566   4.988   6.981 -0.3919 -0.8040 -0.0117
  187SAPI   H2Y21477   3.689   5.078   7.085  0.0035  1.8657 -2.1572
  187SAPI   C2321478   4.077   4.506   6.867  0.1344  0.1687  0.0482
  187SAPI   H3R21479   4.086   4.569   6.958  0.0186  1.2582 -0.6738
  187SAPI   H3S21480   4.181   4.496   6.829  1.4287  1.0664  3.0767
  187SAPI   C2421481   4.016   4.384   6.940  0.1175 -0.1592 -0.2857
  187SAPI   H4R21482   3.906   4.399   6.933  0.3453  1.2858 -1.1581
  187SAPI   H4S21483   4.055   4.392   7.044  3.0599  3.2698 -1.4482
  187SAPI   C2521484   4.060   4.269   6.863 -0.6156  0.6612  0.4370
  187SAPI   H5R21485   4.019   4.261   6.761  0.2408 -0.4709  0.1567
  187SAPI   C2621486   4.151   4.177   6.905  0.1669 -0.0973  0.0681
  187SAPI   H6R21487   4.192   4.101   6.837  0.7502  1.8371 -1.8566
  187SAPI   C2721488   4.212   4.179   7.040 -0.0446 -0.5572  0.3523
  187SAPI   H7R21489   4.233   4.284   7.070  2.8511 -0.8030 -0.4625
  187SAPI   H7S21490   4.313   4.132   7.038 -0.4216 -1.5046  1.8752
  187SAPI   C2821491   4.148   4.100   7.145  0.0390 -0.0916 -0.4223
  187SAPI   H8R21492   4.058   4.045   7.113  0.4772 -0.6540 -0.7057
  187SAPI   C2921493   4.191   4.080   7.274 -0.1463  0.2061 -0.2762
  187SAPI   H9R21494   4.124   4.022   7.339 -1.1808  0.8961 -0.7004
  187SAPI  C21021495   4.315   4.140   7.341 -0.0826 -0.4285  0.0519
  187SAPI  H10R21496   4.407   4.093   7.300  1.4162  0.6774  1.9201
  187SAPI  H10S21497   4.324   4.115   7.449  3.3872 -1.3880 -0.3146
  187SAPI  C21121498   4.342   4.292   7.334 -0.2380 -1.0760 -0.8315
  187SAPI  H11R21499   4.327   4.330   7.232 -0.2856  2.2640  0.2964
  187SAPI  C21221500   4.398   4.373   7.426 -0.9382  0.5008 -0.4993
  187SAPI  H12R21501   4.410   4.479   7.399 -1.6366  0.5467 -0.6453
  187SAPI  C21321502   4.453   4.322   7.555 -0.3268  0.3671  0.4086
  187SAPI  H13R21503   4.537   4.393   7.571  0.4310 -0.2843 -0.5441
  187SAPI  H13S21504   4.490   4.220   7.532  0.5966  0.8315 -0.2258
  187SAPI  C21421505   4.364   4.328   7.676 -0.4276 -0.0971  0.1811
  187SAPI  H14R21506   4.268   4.274   7.680 -0.7356  0.4828  0.8417
  187SAPI  C21521507   4.387   4.400   7.787  0.0610  0.5762 -0.0408
  187SAPI  H15R21508   4.316   4.380   7.868 -1.6940 -1.0198 -1.8741
  187SAPI  C21621509   4.509   4.484   7.818 -0.4473  0.0423  0.3039
  187SAPI  H16R21510   4.536   4.540   7.726  1.0079  1.0574  1.2960
  187SAPI  H16S21511   4.598   4.420   7.837 -0.2544  0.1180 -0.3192
  187SAPI  C21721512   4.482   4.589   7.928 -0.6501  0.3788 -0.3701
  187SAPI  H17R21513   4.387   4.643   7.908 -1.3245 -0.7138 -0.2250
  187SAPI  H17S21514   4.567   4.658   7.911 -1.7037  1.5510 -1.0411
  187SAPI  C21821515   4.486   4.543   8.069 -0.7485  0.4273 -0.3687
  187SAPI  H18R21516   4.418   4.455   8.067  2.3428 -2.1140 -0.6315
  187SAPI  H18S21517   4.442   4.616   8.140  1.2460  0.0235  1.3734
  187SAPI  C21921518   4.625   4.505   8.122  0.7618 -0.1876 -0.3719
  187SAPI  H19R21519   4.684   4.598   8.116 -0.5569  0.6387 -0.8673
  187SAPI  H19S21520   4.659   4.440   8.039 -0.9653  0.5253 -1.6935
  187SAPI  C22021521   4.612   4.441   8.262 -0.1079 -0.5393  0.4791
  187SAPI  H20R21522   4.533   4.493   8.321  1.2314 -0.8207  2.6206
  187SAPI  H20S21523   4.708   4.437   8.319 -0.8026 -2.3596  1.6158
  187SAPI  H20T21524   4.579   4.335   8.253  0.3482 -0.6083 -0.4311
  187SAPI   C3321525   3.719   4.856   7.055  0.0826 -0.4149  0.3793
  187SAPI   H3X21526   3.821   4.865   7.098  0.8237  2.3350 -1.6625
  187SAPI   H3Y21527   3.716   4.783   6.971  0.0528 -0.9272  0.8169
  187SAPI   C3421528   3.627   4.808   7.168  0.1033  0.0429 -0.1324
  187SAPI   H4X21529   3.521   4.815   7.137 -1.5960 -2.7417  4.1721
  187SAPI   H4Y21530   3.644   4.875   7.255 -1.3310  1.8742 -1.2020
  187SAPI   C3521531   3.646   4.655   7.210  0.0501 -0.5115  0.1800
  187SAPI   H5X21532   3.754   4.641   7.233  0.4748  1.8519 -0.1069
  187SAPI   H5Y21533   3.616   4.595   7.121  0.5888 -1.7440  0.8165
  187SAPI   C3621534   3.549   4.616   7.326 -0.4004  0.3215  0.0731
  187SAPI   H6X21535   3.529   4.507   7.313 -2.6759  0.5904  0.8540
  187SAPI   H6Y21536   3.464   4.682   7.298 -0.1515  0.2468 -0.8913
  187SAPI   C3721537   3.623   4.653   7.461 -0.4030  1.0036  0.4804
  187SAPI   H7X21538   3.634   4.763   7.464 -2.8534  1.3988 -1.5378
  187SAPI   H7Y21539   3.721   4.600   7.455 -1.9173 -1.9178 -0.5357
  187SAPI   C3821540   3.544   4.601   7.575  0.1043  0.1717  0.9455
  187SAPI   H8X21541   3.537   4.490   7.576  0.3762  0.1307  2.5476
  187SAPI   H8Y21542   3.442   4.645   7.573  0.4137  0.8861  0.3100
  187SAPI   C3921543   3.608   4.648   7.704  0.4465  0.2112 -0.1610
  187SAPI   H9X21544   3.713   4.616   7.721 -0.1791 -0.3207  3.5279
  187SAPI   H9Y21545   3.549   4.600   7.785  0.2710  0.2066 -0.2908
  187SAPI  C31021546   3.591   4.801   7.739 -0.0834 -0.5138  0.4536
  187SAPI  H10X21547   3.493   4.830   7.696  0.5546 -0.1302 -0.8116
  187SAPI  H10Y21548   3.668   4.852   7.677 -0.2237  1.1911  1.6272
  187SAPI  C31121549   3.603   4.847   7.885 -0.1214  0.7079 -0.1083
  187SAPI  H11X21550   3.608   4.957   7.901  0.0346  0.6364  0.3674
  187SAPI  H11Y21551   3.689   4.798   7.936  0.5332 -1.5364 -3.1351
  187SAPI  C31221552   3.483   4.801   7.965  0.3799 -0.3124  0.6367
  187SAPI  H12X21553   3.474   4.691   7.956 -2.5520 -0.0088 -2.2307
  187SAPI  H12Y21554   3.400   4.853   7.912  0.7914 -0.5217 -0.2353
  187SAPI  C31321555   3.491   4.850   8.112 -0.1139 -0.0529 -0.4559
  187SAPI  H13X21556   3.394   4.867   8.164  0.2005 -0.4403  0.2725
  187SAPI  H13Y21557   3.555   4.941   8.118 -0.4900  0.2381 -0.8377
  187SAPI  C31421558   3.567   4.740   8.183 -0.0499 -0.0725 -0.6542
  187SAPI  H14X21559   3.664   4.703   8.141 -0.6336 -3.0396  0.3531
  187SAPI  H14Y21560   3.508   4.647   8.169  0.6706 -0.3240 -2.3596
  187SAPI  C31521561   3.583   4.752   8.340  0.2309  0.4785  0.3113
  187SAPI  H15X21562   3.481   4.778   8.377 -0.7794  0.8159 -2.4498
  187SAPI  H15Y21563   3.642   4.840   8.373 -1.0692  1.4537  0.1110
  187SAPI  C31621564   3.638   4.623   8.397  0.4602  0.3376 -0.4647
  187SAPI  H16X21565   3.729   4.584   8.345  0.3919 -2.3763  1.2637
  187SAPI  H16Y21566   3.560   4.548   8.370  0.0528  0.2608  0.8738
  187SAPI  C31721567   3.655   4.619   8.544  0.0729 -0.3120 -0.4241
  187SAPI  H17X21568   3.558   4.631   8.597  1.6697 -1.8415  3.1772
  187SAPI  H17Y21569   3.717   4.708   8.566  0.9162 -0.7972 -0.7684
  187SAPI  C31821570   3.730   4.504   8.612  0.5095  0.3607  0.2007
  187SAPI  H18X21571   3.680   4.408   8.587  0.7141  0.6379 -1.4315
  187SAPI  H18Y21572   3.737   4.517   8.722 -2.0253 -2.0268  0.7788
  187SAPI  H18Z21573   3.831   4.500   8.566  0.4936  1.7059  0.0297
  188SAPI   C1221574   5.870   0.425   6.289 -0.0538  1.0103  0.3937
  188SAPI    H221575   5.813   0.383   6.203  0.3972  0.5603  0.3061
  188SAPI    O221576   6.000   0.370   6.274  0.1508  0.0342  0.1521
  188SAPI   HO221577   5.993   0.274   6.280  0.7446 -0.0208  0.0233
  188SAPI   C1321578   5.878   0.574   6.267 -0.2479 -0.0708  0.2678
  188SAPI    H321579   5.780   0.627   6.267  0.8111  1.9979  0.9544
  188SAPI    O321580   5.943   0.612   6.142 -0.0760 -0.3383 -0.3841
  188SAPI   HO321581   6.028   0.568   6.147  0.2918  0.1841 -1.6894
  188SAPI   C1421582   5.960   0.641   6.384  0.4468  0.1184 -0.0822
  188SAPI    H421583   6.059   0.592   6.384  0.7219  0.5035  2.8403
  188SAPI    O421584   5.980   0.778   6.363  0.1307 -0.2352  0.1571
  188SAPI   HO421585   6.073   0.801   6.351 -0.3049  1.6534  0.0357
  188SAPI   C1521586   5.896   0.605   6.515  0.8932  0.1945  0.3969
  188SAPI    H521587   5.790   0.637   6.517  0.6867 -0.4627  1.8196
  188SAPI    O521588   5.962   0.664   6.625 -0.0014  0.1151 -0.1530
  188SAPI   HO521589   5.909   0.654   6.704 -1.5943 -0.7116 -1.2648
  188SAPI   C1621590   5.883   0.456   6.535  0.3582  0.5317 -0.0063
  188SAPI    H621591   5.987   0.415   6.530 -0.0146 -0.5743  0.8291
  188SAPI    O621592   5.819   0.439   6.660 -0.0487  0.0522  0.8818
  188SAPI   HO621593   5.778   0.352   6.655  0.2074 -0.0120 -1.5785
  188SAPI   C1121594   5.809   0.385   6.417  0.5275  0.4063  0.4178
  188SAPI    H121595   5.710   0.436   6.420  0.7698  0.9680 -0.7745
  188SAPI     P21596   5.639   0.180   6.385  0.0943 -0.4540 -0.3014
  188SAPI   O1321597   5.660   0.043   6.348 -0.4557  0.2145 -0.1286
  188SAPI   O1421598   5.554   0.268   6.299 -0.6226 -0.0153  0.0954
  188SAPI   O1221599   5.794   0.242   6.424  0.1111 -0.0972  0.0480
  188SAPI   O1121600   5.592   0.191   6.534 -0.1091 -0.5225  0.2625
  188SAPI    C121601   5.448   0.181   6.551 -0.5843 -0.0543 -0.1019
  188SAPI    HA21602   5.406   0.097   6.491 -0.6662 -1.8524  2.2939
  188SAPI    HB21603   5.421   0.162   6.657 -0.5391 -0.5798 -0.1802
  188SAPI    C221604   5.368   0.314   6.522  0.9197  0.0278 -0.7444
  188SAPI    HS21605   5.339   0.329   6.416  0.1054 -1.0400 -0.6909
  188SAPI   O2121606   5.450   0.423   6.561  0.5391 -1.1426 -0.3529
  188SAPI   C2121607   5.406   0.537   6.511  0.0705 -0.0937 -0.1516
  188SAPI   O2221608   5.310   0.549   6.439  0.1795 -0.2466  0.3565
  188SAPI   C2221609   5.488   0.657   6.569  0.0682 -0.3258  0.3776
  188SAPI   H2R21610   5.451   0.675   6.672 -1.2475 -2.6041  0.3585
  188SAPI   H2S21611   5.596   0.637   6.551  0.1875 -0.9191  1.6944
  188SAPI    C321612   5.233   0.306   6.600 -0.5171 -0.1071 -0.1690
  188SAPI    HX21613   5.178   0.215   6.569 -1.3932 -0.2181  1.5915
  188SAPI    HY21614   5.184   0.403   6.576  0.9577  0.5702 -0.5882
  188SAPI   O3121615   5.261   0.294   6.743  0.7234 -0.4355  0.2246
  188SAPI   C3121616   5.251   0.406   6.823 -0.3289  0.7860  0.6571
  188SAPI   O3221617   5.230   0.520   6.783 -0.8115 -0.3446  0.1054
  188SAPI   C3221618   5.262   0.370   6.976  0.3593 -0.3262  0.8729
  188SAPI   H2X21619   5.345   0.297   6.985 -0.1892 -0.8226  2.2500
  188SAPI   H2Y21620   5.163   0.327   7.003 -0.2540  0.8077  0.4874
  188SAPI   C2321621   5.464   0.787   6.472  0.3959 -0.2579 -0.1894
  188SAPI   H3R21622   5.357   0.816   6.470  0.8765  1.7014  0.1043
  188SAPI   H3S21623   5.489   0.764   6.366 -0.1553 -1.1571 -0.1290
  188SAPI   C2421624   5.535   0.914   6.530  0.5925 -0.3646  0.1307
  188SAPI   H4R21625   5.511   0.919   6.639  3.6692  1.1410  0.8531
  188SAPI   H4S21626   5.499   1.007   6.481  1.5577 -1.1397 -2.1618
  188SAPI   C2521627   5.683   0.912   6.508 -0.0420 -0.8731  0.5721
  188SAPI   H5R21628   5.716   0.865   6.414 -1.4058 -2.5505  0.8793
  188SAPI   C2621629   5.783   0.950   6.595  0.0293  0.8038 -1.3592
  188SAPI   H6R21630   5.889   0.940   6.569  0.4827  0.8306  0.3246
  188SAPI   C2721631   5.768   1.012   6.737  0.3514 -0.3901 -0.3508
  188SAPI   H7R21632   5.683   1.083   6.745 -0.2823 -1.0620 -1.0513
  188SAPI   H7S21633   5.844   1.092   6.751 -1.0858  1.1014 -0.7484
  188SAPI   C2821634   5.766   0.912   6.852 -0.6887 -0.1159 -1.1861
  188SAPI   H8R21635   5.783   0.809   6.819 -0.6490 -0.5893  0.2385
  188SAPI   C2921636   5.741   0.944   6.985  0.1347  0.1676 -0.1645
  188SAPI   H9R21637   5.751   0.871   7.067  2.7954  0.3286 -0.2409
  188SAPI  C21021638   5.708   1.087   7.024  0.1024  0.9021 -0.0173
  188SAPI  H10R21639   5.601   1.081   7.055  0.3067  0.6708  0.6423
  188SAPI  H10S21640   5.704   1.149   6.932 -1.9789 -0.4904 -0.9419
  188SAPI  C21121641   5.789   1.156   7.128  0.1791 -0.0470 -0.6911
  188SAPI  H11R21642   5.878   1.210   7.091  0.4573 -1.0949 -1.6041
  188SAPI  C21221643   5.758   1.170   7.255  0.5448 -0.1803  0.5377
  188SAPI  H12R21644   5.837   1.220   7.312  0.2542  2.8807 -1.5421
  188SAPI  C21321645   5.640   1.110   7.322  0.5644  0.1494  0.5328
  188SAPI  H13R21646   5.575   1.046   7.258  1.8698 -1.0629  0.3578
  188SAPI  H13S21647   5.571   1.192   7.349 -0.6635 -0.8885  0.6636
  188SAPI  C21421648   5.679   1.028   7.440 -0.3926  0.2324  0.6777
  188SAPI  H14R21649   5.681   0.920   7.417 -0.9749  0.4072 -0.2963
  188SAPI  C21521650   5.697   1.068   7.562  0.1426 -0.4260 -0.1303
  188SAPI  H15R21651   5.721   0.994   7.639 -0.0593 -2.3517 -1.8334
  188SAPI  C21621652   5.689   1.213   7.608 -0.0613  0.0130  0.3222
  188SAPI  H16R21653   5.669   1.292   7.534 -0.3075  0.4818  0.8792
  188SAPI  H16S21654   5.792   1.236   7.643  0.1258  1.9493 -1.3521
  188SAPI  C21721655   5.590   1.229   7.723  0.2299  0.3088  0.7484
  188SAPI  H17R21656   5.502   1.163   7.704 -0.1242  0.8887  0.3619
  188SAPI  H17S21657   5.557   1.334   7.732 -2.9422 -0.4744 -0.3380
  188SAPI  C21821658   5.653   1.187   7.862 -0.2617  0.0589 -0.3011
  188SAPI  H18R21659   5.735   1.259   7.884 -0.4091  0.6860 -1.6669
  188SAPI  H18S21660   5.691   1.083   7.868 -1.0140 -0.1557  3.7623
  188SAPI  C21921661   5.549   1.197   7.971 -0.0203 -0.1475  0.0924
  188SAPI  H19R21662   5.458   1.137   7.949 -0.5995  0.0459  1.8070
  188SAPI  H19S21663   5.515   1.302   7.983  0.6334  0.2001 -1.0606
  188SAPI  C22021664   5.595   1.124   8.100  0.2996 -0.6562  0.3588
  188SAPI  H20R21665   5.695   1.166   8.127  1.1711 -1.3641 -1.5416
  188SAPI  H20S21666   5.605   1.015   8.085  3.1900 -0.4174 -0.0123
  188SAPI  H20T21667   5.514   1.139   8.174 -1.9605 -1.3190 -1.8157
  188SAPI   C3321668   5.302   0.487   7.071  0.0072  0.0487  1.2728
  188SAPI   H3X21669   5.269   0.584   7.026  0.9794 -1.1793 -2.4909
  188SAPI   H3Y21670   5.410   0.492   7.095  0.1035  2.9040  0.6257
  188SAPI   C3421671   5.228   0.477   7.209  1.2292  0.1964  0.4647
  188SAPI   H4X21672   5.117   0.480   7.209  1.2038 -0.7242  0.0861
  188SAPI   H4Y21673   5.249   0.565   7.275 -0.7037  0.8289  0.3057
  188SAPI   C3521674   5.263   0.345   7.288 -0.2021  0.1056 -0.1491
  188SAPI   H5X21675   5.337   0.286   7.230 -1.9551 -2.6323  0.1601
  188SAPI   H5Y21676   5.183   0.267   7.279  0.4235 -0.6420  0.6364
  188SAPI   C3621677   5.300   0.364   7.432  0.3634  0.4408 -0.2635
  188SAPI   H6X21678   5.401   0.407   7.447  0.2045 -0.2156  3.6868
  188SAPI   H6Y21679   5.305   0.260   7.470  2.6517 -0.2829 -2.2859
  188SAPI   C3721680   5.197   0.451   7.513 -0.5268  0.0494  0.3156
  188SAPI   H7X21681   5.098   0.401   7.510 -0.9358  0.7643  1.1790
  188SAPI   H7Y21682   5.187   0.560   7.491 -1.6836  0.3301  1.9902
  188SAPI   C3821683   5.251   0.471   7.666 -0.3839 -0.4543 -0.0358
  188SAPI   H8X21684   5.202   0.558   7.714 -1.3912 -1.1677  0.2645
  188SAPI   H8Y21685   5.361   0.486   7.658 -0.6078  0.5464 -1.8229
  188SAPI   C3921686   5.225   0.351   7.752 -0.4990 -0.3154 -0.0444
  188SAPI   H9X21687   5.270   0.256   7.714 -0.9882 -1.5317  2.2144
  188SAPI   H9Y21688   5.117   0.323   7.754 -0.0935 -2.0544 -0.6016
  188SAPI  C31021689   5.284   0.358   7.892  0.0625  0.2298 -0.2650
  188SAPI  H10X21690   5.268   0.453   7.946 -1.7639 -0.3720  0.3401
  188SAPI  H10Y21691   5.393   0.339   7.893 -0.2115 -1.5910  1.9167
  188SAPI  C31121692   5.225   0.247   7.976 -0.3885 -0.6480 -0.0346
  188SAPI  H11X21693   5.252   0.151   7.928  1.6320 -0.0604 -0.1701
  188SAPI  H11Y21694   5.115   0.251   7.987 -0.1699 -0.8254  3.0254
  188SAPI  C31221695   5.270   0.251   8.120 -0.1675  0.8027  0.7424
  188SAPI  H12X21696   5.222   0.337   8.172 -0.3771  1.0775  0.1074
  188SAPI  H12Y21697   5.381   0.262   8.125  0.5185 -3.6757 -0.1535
  188SAPI  C31321698   5.233   0.135   8.215  0.3649 -0.9665  0.3499
  188SAPI  H13X21699   5.266   0.038   8.172  0.7469 -0.9326  0.5552
  188SAPI  H13Y21700   5.123   0.133   8.227  0.1180 -2.1267 -1.6940
  188SAPI  C31421701   5.291   0.145   8.355 -0.0687 -0.2516 -0.3493
  188SAPI  H14X21702   5.274   0.245   8.399  1.2469 -0.2434  0.1682
  188SAPI  H14Y21703   5.399   0.145   8.331 -0.1705 -1.1434 -0.8817
  188SAPI  C31521704   5.265   0.032   8.445 -0.4224 -0.2787  0.3196
  188SAPI  H15X21705   5.337   0.017   8.528 -3.1192 -0.5972  2.7642
  188SAPI  H15Y21706   5.278  -0.062   8.387  0.4923 -0.6804  1.1420
  188SAPI  C31621707   5.131   0.043   8.517  0.3420 -0.5369 -0.2713
  188SAPI  H16X21708   5.048   0.067   8.448  0.2242  1.1572  0.4031
  188SAPI  H16Y21709   5.135   0.133   8.583 -1.9173 -1.2987  1.0075
  188SAPI  C31721710   5.101  -0.082   8.596  0.0814  1.4050  0.0527
  188SAPI  H17X21711   5.152  -0.165   8.542 -1.0886  1.6322 -1.4744
  188SAPI  H17Y21712   4.992  -0.100   8.579  0.0428  0.6326  0.9785
  188SAPI  C31821713   5.124  -0.082   8.744  0.8473 -0.4687 -0.9248
  188SAPI  H18X21714   5.064  -0.001   8.792 -2.7491 -3.5831  0.2836
  188SAPI  H18Y21715   5.231  -0.062   8.767  0.2230 -0.4343  2.5999
  188SAPI  H18Z21716   5.102  -0.180   8.792  0.5822  0.2828  0.5625
  189POPC     N21717   1.618   0.930  10.897 -0.3818  0.3525 -0.3151
  189POPC   C1221718   1.602   0.988  10.762  0.3956  0.0437  0.3196
  189POPC  H12A21719   1.588   0.902  10.699 -2.0612 -0.5396  1.5676
  189POPC  H12B21720   1.689   1.047  10.735 -0.1068  1.3898  1.5542
  189POPC   C1321721   1.605   1.028  11.006  0.3185 -1.2736 -0.1382
  189POPC  H13A21722   1.698   1.082  11.013  1.0615 -2.6636  2.0180
  189POPC  H13B21723   1.526   1.099  10.990  0.9879 -0.8977 -1.9804
  189POPC  H13C21724   1.584   0.984  11.103  0.2970  0.1675  0.5414
  189POPC   C1421725   1.524   0.816  10.926 -0.2849  0.0013 -0.7798
  189POPC  H14A21726   1.426   0.862  10.926 -0.5269 -0.4941 -0.1573
  189POPC  H14B21727   1.518   0.733  10.857 -0.5884 -1.2958  0.7456
  189POPC  H14C21728   1.542   0.778  11.025 -0.1105  0.6491 -0.5577
  189POPC   C1521729   1.762   0.872  10.898 -0.5363 -0.6319 -0.4534
  189POPC  H15A21730   1.773   0.791  10.827  1.5822 -0.7851 -0.0410
  189POPC  H15B21731   1.797   0.831  10.992  2.2789 -2.3215 -2.0609
  189POPC  H15C21732   1.829   0.950  10.865 -2.4235  1.3640  0.2168
  189POPC   C1121733   1.467   1.074  10.748 -0.5161 -0.5083 -0.4963
  189POPC  H11A21734   1.390   1.021  10.807 -0.1788 -1.2800 -0.7279
  189POPC  H11B21735   1.425   1.081  10.645  0.8461 -1.3116 -1.1395
  189POPC     P21736   1.569   1.310  10.732  0.0703 -0.3821 -0.1319
  189POPC   O1321737   1.709   1.266  10.706 -0.5061 -0.8742  0.0591
  189POPC   O1421738   1.563   1.432  10.814 -0.2710 -0.0771 -0.6729
  189POPC   O1221739   1.486   1.197  10.802  0.5181 -0.4415  0.0794
  189POPC   O1121740   1.495   1.336  10.594 -0.2619  0.0157 -0.3070
  189POPC    C121741   1.354   1.377  10.585 -0.0313 -0.3140 -0.2511
  189POPC    HA21742   1.317   1.419  10.680  0.2234 -1.3027  0.2964
  189POPC    HB21743   1.297   1.283  10.569 -0.9283 -0.0060  1.0185
  189POPC    C221744   1.331   1.474  10.461  0.6399  0.0026 -0.0164
  189POPC    HS21745   1.225   1.480  10.428  0.9746  0.7891 -0.9993
  189POPC   O2121746   1.414   1.429  10.354 -0.1941  0.3045 -0.4918
  189POPC   C2121747   1.380   1.312  10.300 -0.5729  0.3198  0.1529
  189POPC   O2221748   1.283   1.246  10.327 -0.6248  0.1992 -0.0209
  189POPC   C2221749   1.474   1.274  10.191  0.5720  0.4725 -0.3845
  189POPC   H2R21750   1.411   1.196  10.141  0.4841  0.5417 -0.3818
  189POPC   H2S21751   1.567   1.228  10.231 -0.2120 -2.0666 -1.2392
  189POPC    C321752   1.367   1.622  10.509 -0.1154 -1.0977 -0.2987
  189POPC    HX21753   1.477   1.610  10.524 -0.1543 -3.0511 -1.3289
  189POPC    HY21754   1.313   1.636  10.606  0.0235  1.0568 -0.4841
  189POPC   O3121755   1.326   1.722  10.414 -0.2160  0.3634  0.0825
  189POPC   C3121756   1.424   1.759  10.336  0.8308  0.4515  0.2578
  189POPC   O3221757   1.541   1.725  10.342  0.1270  0.0118  0.0244
  189POPC   C3221758   1.361   1.834  10.220 -0.3562  0.0745  0.0690
  189POPC   H2X21759   1.398   1.938  10.235  4.4407 -1.6313  1.9547
  189POPC   H2Y21760   1.252   1.831  10.241 -0.1274 -2.4503  1.2284
  189POPC   C2321761   1.503   1.392  10.104 -0.4440  0.0504  0.5435
  189POPC   H3R21762   1.562   1.464  10.165  0.2171 -0.8862  1.0447
  189POPC   H3S21763   1.414   1.440  10.058 -1.2707 -1.2800  0.7226
  189POPC   C2421764   1.583   1.342   9.982 -0.0714 -0.9271 -0.7890
  189POPC   H4R21765   1.684   1.308  10.014 -0.0476 -0.8643 -0.7958
  189POPC   H4S21766   1.611   1.428   9.916 -0.7514 -0.2615 -0.2290
  189POPC   C2521767   1.509   1.236   9.897 -0.3324 -0.4489 -0.2475
  189POPC   H5R21768   1.404   1.263   9.874 -0.1366 -1.0829 -2.0725
  189POPC   H5S21769   1.514   1.144   9.958  1.1101 -0.3459 -0.1780
  189POPC   C2621770   1.576   1.198   9.760  0.6380  0.0944  1.0324
  189POPC   H6R21771   1.537   1.106   9.711  0.6402 -0.3122  1.7702
  189POPC   H6S21772   1.679   1.175   9.796  1.0625  0.0955 -0.1579
  189POPC   C2721773   1.573   1.316   9.653  0.5475 -0.2966 -0.0605
  189POPC   H7R21774   1.617   1.405   9.703  3.7605 -1.4430 -0.6452
  189POPC   H7S21775   1.470   1.335   9.615  0.0738  0.3249  1.4477
  189POPC   C2821776   1.662   1.294   9.537  0.2674  0.0893  0.8080
  189POPC   H8R21777   1.768   1.283   9.566  1.0833  0.2638 -1.8359
  189POPC   H8S21778   1.656   1.388   9.479 -0.7077  0.1864  1.0380
  189POPC   C2921779   1.620   1.180   9.450 -0.1883  0.3182 -0.1162
  189POPC   H9121780   1.622   1.082   9.500 -1.0343 -0.0787 -0.8478
  189POPC  C21021781   1.600   1.185   9.319  0.6492 -0.0860  0.5823
  189POPC  H10121782   1.586   1.087   9.271 -0.0717 -1.2705  3.0327
  189POPC  C21121783   1.598   1.297   9.219 -0.1045  0.5514  0.0242
  189POPC  H11R21784   1.599   1.392   9.276  1.1489 -0.0412  1.0410
  189POPC  H11S21785   1.505   1.286   9.159 -1.3412 -3.1566  2.2923
  189POPC  C21221786   1.704   1.305   9.109 -0.2942 -0.0852 -0.5556
  189POPC  H12R21787   1.715   1.202   9.070  0.3252 -0.1873 -0.1304
  189POPC  H12S21788   1.796   1.330   9.167 -1.9891  2.3855  1.2805
  189POPC  C21321789   1.685   1.408   8.996 -0.2340  0.1723 -0.5682
  189POPC  H13R21790   1.784   1.423   8.947  1.5330  0.1749  2.6908
  189POPC  H13S21791   1.672   1.499   9.059  2.2613  1.2055 -1.4099
  189POPC  C21421792   1.565   1.394   8.902  0.0474  0.0609 -0.3190
  189POPC  H14R21793   1.546   1.487   8.845  1.6874  1.1458  0.8015
  189POPC  H14S21794   1.479   1.371   8.969  1.7329 -1.0998  1.5569
  189POPC  C21521795   1.592   1.286   8.799  0.7015  0.7966  0.0896
  189POPC  H15R21796   1.508   1.281   8.726  0.7284  0.0872  0.1002
  189POPC  H15S21797   1.598   1.187   8.849 -1.4241  0.5783  0.0121
  189POPC  C21621798   1.718   1.312   8.717 -0.8329  0.1668  0.1386
  189POPC  H16R21799   1.760   1.409   8.749 -0.7201 -0.4867  2.1568
  189POPC  H16S21800   1.694   1.315   8.609 -0.4627  4.0258  0.0299
  189POPC  C21721801   1.817   1.192   8.737  0.2109  0.5906  0.5649
  189POPC  H17R21802   1.845   1.174   8.843  2.0622 -3.9429 -0.4745
  189POPC  H17S21803   1.909   1.220   8.682  0.9047  0.4944  1.6535
  189POPC  C21821804   1.767   1.057   8.681 -0.0126 -0.0899 -0.3061
  189POPC  H18R21805   1.700   1.001   8.750  1.3252 -1.0744  0.2103
  189POPC  H18S21806   1.845   0.982   8.661 -0.3203 -0.4900 -0.0140
  189POPC  H18T21807   1.715   1.063   8.583 -0.2076  0.5783 -0.1686
  189POPC   C3321808   1.392   1.777  10.081 -0.5343 -0.3171 -0.1876
  189POPC   H3X21809   1.325   1.691  10.064 -0.4941 -0.9113  2.1961
  189POPC   H3Y21810   1.493   1.731  10.082  0.3864  1.5901 -0.4206
  189POPC   C3421811   1.385   1.881   9.967 -0.6791  0.2902  0.5333
  189POPC   H4X21812   1.460   1.959   9.993  1.4461 -1.5321  0.1511
  189POPC   H4Y21813   1.282   1.923   9.964 -0.7542  0.0365 -2.4951
  189POPC   C3521814   1.411   1.815   9.829  0.0749  0.1327 -1.0683
  189POPC   H5X21815   1.316   1.767   9.796  0.3508 -2.0091  0.9726
  189POPC   H5Y21816   1.489   1.736   9.819  0.7470  0.4798  0.8942
  189POPC   C3621817   1.446   1.919   9.722 -0.0906  0.3485 -0.8416
  189POPC   H6X21818   1.552   1.946   9.743 -0.1486 -0.8567  1.3325
  189POPC   H6Y21819   1.392   2.015   9.737  0.3375  0.6459 -1.1727
  189POPC   C3721820   1.418   1.871   9.582 -0.1838 -0.5615  0.1597
  189POPC   H7X21821   1.425   1.951   9.506  0.1499 -0.3376  0.4240
  189POPC   H7Y21822   1.315   1.829   9.589 -0.0661 -0.7332  0.9775
  189POPC   C3821823   1.516   1.755   9.538 -0.6176  0.2584  0.4372
  189POPC   H8X21824   1.575   1.716   9.623 -2.4859 -1.3368  1.0711
  189POPC   H8Y21825   1.586   1.798   9.463 -0.7900 -1.2980 -0.6633
  189POPC   C3921826   1.438   1.632   9.486 -0.2977  0.6052  0.4263
  189POPC   H9X21827   1.374   1.587   9.564 -0.3085  0.3023  0.2459
  189POPC   H9Y21828   1.523   1.565   9.461 -1.0318  0.0079 -0.5202
  189POPC  C31021829   1.362   1.660   9.362 -0.1817  0.2440 -0.0408
  189POPC  H10X21830   1.287   1.742   9.377 -0.4989 -0.2756  1.3487
  189POPC  H10Y21831   1.313   1.565   9.333 -0.2440  0.2553  0.0250
  189POPC  C31121832   1.454   1.705   9.247  0.3521 -0.6605 -0.4528
  189POPC  H11X21833   1.535   1.631   9.227  1.3950  0.4956 -0.6329
  189POPC  H11Y21834   1.511   1.797   9.273 -0.8970 -0.3797  1.4485
  189POPC  C31221835   1.367   1.729   9.119  0.1727 -0.3656  0.8396
  189POPC  H12X21836   1.286   1.801   9.143 -1.5622 -2.0955  0.5025
  189POPC  H12Y21837   1.323   1.631   9.087  1.4599 -0.4506 -0.7762
  189POPC  C31321838   1.446   1.797   9.006  0.2464  0.8261 -0.1327
  189POPC  H13X21839   1.525   1.720   8.992 -1.0801 -0.7535  0.7096
  189POPC  H13Y21840   1.484   1.895   9.042  0.2763 -0.0568  2.4870
  189POPC  C31421841   1.348   1.810   8.883 -0.1796  0.6749  0.0015
  189POPC  H14X21842   1.269   1.884   8.905 -1.0435 -0.5837  1.2387
  189POPC  H14Y21843   1.302   1.712   8.858 -0.0910  0.9842 -1.4892
  189POPC  C31521844   1.431   1.844   8.759 -0.1314  1.0488  0.3466
  189POPC  H15X21845   1.511   1.769   8.740 -0.1550  1.0250  0.3412
  189POPC  H15Y21846   1.489   1.937   8.774  1.2253  0.3450 -0.3667
  189POPC  C31621847   1.342   1.857   8.631  0.4135  0.0446 -0.1988
  189POPC  H16X21848   1.408   1.899   8.552  2.7371 -1.1725  0.9780
  189POPC  H16Y21849   1.260   1.930   8.649  0.3050 -0.3420  0.9879
  189POPC  H16Z21850   1.291   1.764   8.598 -1.3515  0.5626  0.9220
  190POPC     N21851   2.033   4.316  11.339  0.6442  0.6116  0.6129
  190POPC   C1221852   2.124   4.224  11.250  0.0824  0.1269  0.1243
  190POPC  H12A21853   2.107   4.118  11.265 -0.9579 -0.1740 -2.4453
  190POPC  H12B21854   2.228   4.246  11.269 -0.0758  0.8021  0.2404
  190POPC   C1321855   2.039   4.266  11.483  0.2132 -0.1023  0.1839
  190POPC  H13A21856   1.993   4.168  11.487  1.0787 -0.5262  0.1198
  190POPC  H13B21857   2.137   4.238  11.520  0.1700  1.1462  1.2971
  190POPC  H13C21858   1.987   4.329  11.554  1.1849 -1.6291  2.3939
  190POPC   C1421859   2.107   4.447  11.338  0.4297 -0.3865 -0.3854
  190POPC  H14A21860   2.204   4.435  11.382  0.5022 -0.1582 -0.4790
  190POPC  H14B21861   2.119   4.480  11.235 -1.2792 -0.2511 -0.5727
  190POPC  H14C21862   2.056   4.527  11.390  0.6572  0.3566 -1.2663
  190POPC   C1521863   1.892   4.338  11.299  0.1932  0.0253  0.2267
  190POPC  H15A21864   1.899   4.391  11.205  0.0136  1.5941  1.0618
  190POPC  H15B21865   1.844   4.396  11.377  1.3499  0.2472  0.8093
  190POPC  H15C21866   1.835   4.247  11.294 -1.1336  0.6086  2.6910
  190POPC   C1121867   2.098   4.241  11.092  0.0920 -0.4196  0.3586
  190POPC  H11A21868   1.989   4.219  11.080  0.1520  0.1279 -1.5892
  190POPC  H11B21869   2.160   4.173  11.029 -0.9862 -0.6505 -0.4944
  190POPC     P21870   2.252   4.459  11.029 -0.0757  0.0249  0.1361
  190POPC   O1321871   2.360   4.429  11.124  0.1535 -0.1129 -0.0267
  190POPC   O1421872   2.224   4.604  11.016  0.0722 -0.1941 -0.2737
  190POPC   O1221873   2.115   4.380  11.058  0.0961  0.4030  0.0821
  190POPC   O1121874   2.299   4.406  10.883  0.8344 -0.4543  0.1707
  190POPC    C121875   2.217   4.347  10.789 -0.5483  0.1664  1.0691
  190POPC    HA21876   2.132   4.287  10.825 -0.3988 -0.7257 -0.0076
  190POPC    HB21877   2.289   4.279  10.738 -0.0095  1.1207  0.5069
  190POPC    C221878   2.180   4.436  10.664  1.1154 -0.9741 -0.2422
  190POPC    HS21879   2.161   4.359  10.586  1.1782 -1.3099  0.0750
  190POPC   O2121880   2.286   4.526  10.622 -0.0572  0.1675  0.1584
  190POPC   C2121881   2.366   4.472  10.528  0.1839  0.3266  0.3520
  190POPC   O2221882   2.357   4.359  10.488  0.0779  0.8343  0.1448
  190POPC   C2221883   2.467   4.571  10.494 -0.1410  0.2334  0.5964
  190POPC   H2R21884   2.569   4.540  10.525  0.4369  2.2175  0.8474
  190POPC   H2S21885   2.443   4.667  10.545 -4.2687  0.8530 -2.0420
  190POPC    C321886   2.053   4.522  10.677  0.0555  0.0334 -0.3204
  190POPC    HX21887   2.079   4.589  10.762 -1.0304  0.4944 -0.3242
  190POPC    HY21888   1.972   4.453  10.709  1.9148 -1.1252  2.2981
  190POPC   O3121889   2.021   4.594  10.560  0.5150 -0.1796  0.7989
  190POPC   C3121890   1.960   4.535  10.459 -0.6916  0.7885 -0.5130
  190POPC   O3221891   1.924   4.417  10.454 -0.0850 -0.4056  0.0164
  190POPC   C3221892   1.937   4.643  10.350 -0.1521 -0.9370  0.0690
  190POPC   H2X21893   2.018   4.718  10.354 -1.4656  0.5342  0.1663
  190POPC   H2Y21894   1.841   4.689  10.383  1.3313  1.5110  1.1970
  190POPC   C2321895   2.475   4.602  10.344  0.1830 -0.1625 -0.7038
  190POPC   H3R21896   2.370   4.631  10.322  0.3919  0.2816 -1.1303
  190POPC   H3S21897   2.489   4.504  10.291 -1.3920 -1.4970  1.2074
  190POPC   C2421898   2.573   4.706  10.313 -0.0253 -0.5011  0.1921
  190POPC   H4R21899   2.679   4.673  10.309  0.0937 -0.1388  0.2738
  190POPC   H4S21900   2.564   4.776  10.399 -0.1287  1.7292 -1.5321
  190POPC   C2521901   2.540   4.779  10.186  0.3718 -1.1464 -0.5638
  190POPC   H5R21902   2.619   4.854  10.165 -0.9211  0.4342 -0.0273
  190POPC   H5S21903   2.446   4.835  10.206  1.3226  0.1447  0.5505
  190POPC   C2621904   2.513   4.687  10.067 -0.0407  0.1999 -0.0722
  190POPC   H6R21905   2.416   4.633  10.070  0.0680 -0.0454 -0.7629
  190POPC   H6S21906   2.595   4.612  10.065  1.2360  1.5418 -0.9358
  190POPC   C2721907   2.506   4.766   9.930 -0.1074 -0.2463 -0.0984
  190POPC   H7R21908   2.608   4.807   9.911  0.6945 -2.0854  0.0739
  190POPC   H7S21909   2.432   4.845   9.957 -1.2689 -1.8889  1.7828
  190POPC   C2821910   2.451   4.683   9.808 -0.0791  0.0428 -0.2057
  190POPC   H8R21911   2.382   4.612   9.858  1.9881 -0.0163  2.8865
  190POPC   H8S21912   2.536   4.614   9.787  0.4754 -0.8291  3.9585
  190POPC   C2921913   2.372   4.746   9.696  0.2158  0.5206  0.0668
  190POPC   H9121914   2.318   4.840   9.715  0.7006  0.6786  0.6992
  190POPC  C21021915   2.371   4.701   9.568 -0.3492  0.2573  0.4866
  190POPC  H10121916   2.305   4.748   9.494  0.2797 -0.1706 -0.3562
  190POPC  C21121917   2.450   4.579   9.522 -0.5514  0.4206  0.3049
  190POPC  H11R21918   2.400   4.498   9.580  0.6512  0.8131  1.9386
  190POPC  H11S21919   2.557   4.586   9.549 -0.1060 -1.3615 -0.8144
  190POPC  C21221920   2.441   4.540   9.371  0.3612  0.5140  0.1795
  190POPC  H12R21921   2.354   4.475   9.346  0.6086  0.4671 -0.5833
  190POPC  H12S21922   2.529   4.474   9.353 -0.7645 -0.7063 -1.0849
  190POPC  C21321923   2.457   4.653   9.275 -0.4538 -0.6213  0.0900
  190POPC  H13R21924   2.546   4.711   9.309 -1.0333 -0.5500  1.5550
  190POPC  H13S21925   2.368   4.717   9.292 -1.7621 -2.4502  0.4752
  190POPC  C21421926   2.469   4.609   9.125 -0.4749 -0.1532  0.0055
  190POPC  H14R21927   2.425   4.689   9.063 -2.3549 -0.3117  1.0466
  190POPC  H14S21928   2.405   4.518   9.120  2.0510 -2.0575 -0.0208
  190POPC  C21521929   2.613   4.576   9.072 -0.3041  0.0260 -0.3299
  190POPC  H15R21930   2.658   4.501   9.140  0.4268 -1.0053 -1.8998
  190POPC  H15S21931   2.674   4.668   9.082  1.5661 -1.1632 -0.2880
  190POPC  C21621932   2.613   4.505   8.934 -0.4763  0.3972  0.0631
  190POPC  H16R21933   2.519   4.532   8.882 -0.5846 -1.0708 -0.5454
  190POPC  H16S21934   2.605   4.396   8.956  0.2484  0.7428  2.3172
  190POPC  C21721935   2.718   4.540   8.832 -0.3106 -0.3249 -0.0754
  190POPC  H17R21936   2.816   4.506   8.872  0.9408  1.8076 -1.1644
  190POPC  H17S21937   2.717   4.651   8.826  0.7390 -0.3043  0.0549
  190POPC  C21821938   2.696   4.498   8.688 -0.1856 -0.4323  0.3985
  190POPC  H18R21939   2.791   4.520   8.635  0.1059 -0.9716  0.6903
  190POPC  H18S21940   2.613   4.553   8.639 -1.6165 -1.5544  1.4760
  190POPC  H18T21941   2.679   4.389   8.675  0.0763 -0.2044 -2.5497
  190POPC   C3321942   1.920   4.592  10.206 -0.0729  0.3762 -0.9166
  190POPC   H3X21943   1.812   4.567  10.195 -0.4364  1.9385 -1.0939
  190POPC   H3Y21944   1.979   4.501  10.186  1.6570  1.6448 -1.7886
  190POPC   C3421945   1.938   4.698  10.096  0.2069  0.3164 -0.3162
  190POPC   H4X21946   2.045   4.727  10.098  1.2573 -3.1384  0.1889
  190POPC   H4Y21947   1.882   4.787  10.131  1.8161  1.1363  0.2702
  190POPC   C3521948   1.889   4.651   9.956  0.3406 -0.0493  0.1603
  190POPC   H5X21949   1.909   4.733   9.884  1.2963 -1.0898 -0.8027
  190POPC   H5Y21950   1.779   4.635   9.949  0.0838  1.8759 -1.0041
  190POPC   C3621951   1.955   4.524   9.895  0.0069 -0.0931 -0.0099
  190POPC   H6X21952   1.919   4.436   9.951  0.9190 -1.1784 -1.0560
  190POPC   H6Y21953   2.063   4.551   9.900  0.7869 -2.9128 -0.1310
  190POPC   C3721954   1.913   4.492   9.751 -0.8855 -0.0507 -0.0308
  190POPC   H7X21955   1.805   4.514   9.742 -1.0223  0.4592  2.2537
  190POPC   H7Y21956   1.936   4.386   9.726 -1.7136 -0.3001  0.2575
  190POPC   C3821957   1.990   4.583   9.649  0.4259 -0.0744 -0.6669
  190POPC   H8X21958   2.100   4.572   9.664  0.6107  0.4185 -1.5974
  190POPC   H8Y21959   1.970   4.689   9.673 -1.4486 -0.1348 -1.7669
  190POPC   C3921960   1.954   4.542   9.505 -0.3185  0.0559  0.3892
  190POPC   H9X21961   1.847   4.564   9.483 -0.2971 -0.5738 -0.3607
  190POPC   H9Y21962   1.967   4.433   9.485  1.1324  0.2266  0.3280
  190POPC  C31021963   2.043   4.626   9.416 -0.6058 -0.4719  0.2947
  190POPC  H10X21964   2.147   4.589   9.422 -0.5404 -0.1566  1.4233
  190POPC  H10Y21965   2.048   4.732   9.449 -3.3102 -0.3388  0.5552
  190POPC  C31121966   1.995   4.604   9.269 -0.4292  0.3555  0.0723
  190POPC  H11X21967   1.893   4.643   9.252 -0.2937  0.2045 -1.2089
  190POPC  H11Y21968   1.988   4.494   9.254  3.3023  0.1885 -1.6180
  190POPC  C31221969   2.087   4.662   9.164 -0.5655 -0.3427 -1.4896
  190POPC  H12X21970   2.191   4.631   9.186 -0.9915  0.8875  3.5788
  190POPC  H12Y21971   2.088   4.773   9.176 -1.3953 -0.4422 -0.3248
  190POPC  C31321972   2.048   4.639   9.015 -0.0676 -0.1440 -0.7682
  190POPC  H13X21973   2.120   4.697   8.954 -2.3805 -0.9955 -4.6352
  190POPC  H13Y21974   1.946   4.679   8.998 -1.5097 -1.4304  3.3681
  190POPC  C31421975   2.035   4.493   8.965  0.1141 -0.3645  0.0218
  190POPC  H14X21976   2.112   4.442   9.027  0.6808  0.6210  0.1685
  190POPC  H14Y21977   2.053   4.483   8.855  1.5420 -0.2358  0.2193
  190POPC  C31521978   1.899   4.431   8.992  0.3733 -0.6799  0.3137
  190POPC  H15X21979   1.823   4.480   8.927  0.8822 -1.1823 -0.6874
  190POPC  H15Y21980   1.868   4.447   9.097  0.5319 -0.4027  0.3179
  190POPC  C31621981   1.886   4.274   8.965  0.4147 -0.4362 -0.5505
  190POPC  H16X21982   1.903   4.255   8.857  2.5244  1.1172 -0.5577
  190POPC  H16Y21983   1.779   4.254   8.985  0.4254  0.0705  0.0517
  190POPC  H16Z21984   1.933   4.198   9.030 -1.0984 -1.7073 -0.8866
  191POPC     N21985   1.438   0.556   6.026  0.5905  0.3457  0.2287
  191POPC   C1221986   1.565   0.596   6.099 -0.6741 -0.4362 -0.0478
  191POPC  H12A21987   1.543   0.680   6.164  0.2653 -0.5254  0.3923
  191POPC  H12B21988   1.640   0.636   6.033 -1.7503 -0.0384 -1.0777
  191POPC   C1321989   1.346   0.508   6.133 -0.8210  0.5094 -0.2049
  191POPC  H13A21990   1.303   0.587   6.191 -1.7646  0.1402 -0.3845
  191POPC  H13B21991   1.261   0.453   6.094  0.3848 -0.4045 -1.6711
  191POPC  H13C21992   1.398   0.440   6.200 -0.6655  1.1980  0.3853
  191POPC   C1421993   1.380   0.677   5.959  0.3114  0.4528 -0.0912
  191POPC  H14A21994   1.285   0.653   5.912 -0.0862  0.1741  0.8409
  191POPC  H14B21995   1.374   0.756   6.033 -2.2661  1.0595 -0.8376
  191POPC  H14C21996   1.443   0.712   5.879 -1.0800  0.1689 -1.3552
  191POPC   C1521997   1.464   0.448   5.928  0.3667 -0.1178 -0.4795
  191POPC  H15A21998   1.375   0.399   5.892  1.0734 -0.0061 -2.4515
  191POPC  H15B21999   1.528   0.382   5.985  2.8290  2.5900  0.0953
  191POPC  H15C22000   1.523   0.479   5.844  0.3425 -0.1347 -0.5030
  191POPC   C1122001   1.646   0.492   6.178  0.8090 -0.5812 -0.4355
  191POPC  H11A22002   1.580   0.446   6.254  1.9462  0.1456  1.0542
  191POPC  H11B22003   1.738   0.530   6.227  1.0824 -2.5545  0.6674
  191POPC     P22004   1.757   0.257   6.137  0.1661  0.0690  0.6059
  191POPC   O1322005   1.904   0.239   6.126 -0.3208 -0.1520 -0.0248
  191POPC   O1422006   1.676   0.161   6.058 -0.3654 -0.0462 -0.7345
  191POPC   O1222007   1.710   0.399   6.087  0.0650  0.7616  0.2480
  191POPC   O1122008   1.714   0.259   6.287 -0.3767 -0.2864 -0.0476
  191POPC    C122009   1.633   0.164   6.351  0.3653  0.6568 -0.1193
  191POPC    HA22010   1.704   0.117   6.423  0.5705 -0.6348 -1.1172
  191POPC    HB22011   1.607   0.075   6.289  1.6592  0.5091 -0.4890
  191POPC    C222012   1.512   0.225   6.427  0.5057 -0.3096 -0.2777
  191POPC    HS22013   1.429   0.255   6.360 -1.5192  1.1904  2.6724
  191POPC   O2122014   1.545   0.339   6.507  0.2337 -0.1346  0.4960
  191POPC   C2122015   1.445   0.411   6.552  0.3076 -0.2657  0.1023
  191POPC   O2222016   1.327   0.396   6.524 -0.5526 -0.0960 -0.0915
  191POPC   C2222017   1.497   0.510   6.651 -0.4518 -0.0271 -1.3043
  191POPC   H2R22018   1.518   0.612   6.611 -1.2919  1.8116  2.4679
  191POPC   H2S22019   1.594   0.477   6.693 -1.8104 -0.5259  1.7051
  191POPC    C322020   1.443   0.111   6.511 -0.1480 -0.0415  0.2160
  191POPC    HX22021   1.410   0.046   6.428  3.4584  1.7028 -2.8860
  191POPC    HY22022   1.359   0.159   6.566 -1.8131 -1.3340 -1.1000
  191POPC   O3122023   1.535   0.053   6.596 -0.2051  0.3585  0.0154
  191POPC   C3122024   1.478  -0.046   6.664 -0.2627 -0.0553 -0.2024
  191POPC   O3222025   1.361  -0.077   6.655  0.2602 -0.1565 -0.1426
  191POPC   C3222026   1.587  -0.119   6.750 -0.3574  0.0378 -0.1560
  191POPC   H2X22027   1.686  -0.075   6.725 -0.4325 -0.1372 -0.7739
  191POPC   H2Y22028   1.584  -0.223   6.709 -0.4626  0.3290 -0.9057
  191POPC   C2322029   1.409   0.525   6.772 -0.2321  0.3450  0.4431
  191POPC   H3R22030   1.373   0.431   6.818  0.7869  0.6427  1.9299
  191POPC   H3S22031   1.315   0.565   6.729 -1.6979 -1.5844  1.6486
  191POPC   C2422032   1.462   0.634   6.870  0.5028  0.7431  0.6398
  191POPC   H4R22033   1.377   0.682   6.922  1.2727  0.1535  2.5315
  191POPC   H4S22034   1.520   0.704   6.805  0.3720 -1.4780 -2.0928
  191POPC   C2522035   1.559   0.588   6.978 -0.0858 -0.4539 -0.0299
  191POPC   H5R22036   1.639   0.664   6.982 -1.2476  0.9775 -2.2631
  191POPC   H5S22037   1.598   0.489   6.944  1.2310  0.5076 -1.4607
  191POPC   C2622038   1.478   0.571   7.104  0.4951 -0.0439  0.1686
  191POPC   H6R22039   1.402   0.490   7.102 -0.7348  1.0916 -1.4186
  191POPC   H6S22040   1.414   0.660   7.121  1.1063  0.3733  0.3108
  191POPC   C2722041   1.566   0.545   7.224 -0.7998  0.1370 -0.1952
  191POPC   H7R22042   1.644   0.623   7.230 -0.5392  0.0121 -1.4970
  191POPC   H7S22043   1.618   0.449   7.202  0.3433  0.4966  0.8081
  191POPC   C2822044   1.481   0.527   7.348  0.4770  0.4253 -0.3275
  191POPC   H8R22045   1.546   0.478   7.425 -1.6081 -0.2772  1.0581
  191POPC   H8S22046   1.396   0.460   7.324 -1.4284  2.6122  0.0870
  191POPC   C2922047   1.438   0.653   7.415  0.5401 -0.2525  0.0549
  191POPC   H9122048   1.397   0.721   7.339 -3.5424 -1.8054  0.6067
  191POPC  C21022049   1.446   0.706   7.544 -0.3980  0.1732  0.4272
  191POPC  H10122050   1.411   0.810   7.558  1.0224  0.7809 -0.2906
  191POPC  C21122051   1.507   0.630   7.659  0.1510 -0.1074  0.5834
  191POPC  H11R22052   1.599   0.680   7.696  0.0291  0.8705 -0.3907
  191POPC  H11S22053   1.536   0.528   7.628 -0.0540  0.6494 -2.3489
  191POPC  C21222054   1.419   0.620   7.779 -0.1856  0.0383 -0.4526
  191POPC  H12R22055   1.468   0.558   7.857 -0.4323  0.2612 -0.1222
  191POPC  H12S22056   1.325   0.565   7.754  0.2319  0.1422 -2.4469
  191POPC  C21322057   1.397   0.761   7.850 -0.0506 -0.4220  0.3204
  191POPC  H13R22058   1.342   0.823   7.775  0.1360 -0.9498 -0.2615
  191POPC  H13S22059   1.491   0.809   7.882  0.4838 -0.2219 -1.4415
  191POPC  C21422060   1.304   0.743   7.974 -0.3278  0.1631  0.1937
  191POPC  H14R22061   1.226   0.671   7.940 -0.5221  0.0695  0.8238
  191POPC  H14S22062   1.252   0.840   7.995 -1.4001 -0.6967  1.7578
  191POPC  C21522063   1.377   0.703   8.103  0.2445  0.7700 -0.8908
  191POPC  H15R22064   1.416   0.795   8.153 -0.6927  0.6294  0.1288
  191POPC  H15S22065   1.457   0.632   8.072  1.0128  0.5472  1.3998
  191POPC  C21622066   1.288   0.625   8.209  0.0552  0.0359 -0.1425
  191POPC  H16R22067   1.253   0.525   8.176  1.0436 -0.4302  0.1962
  191POPC  H16S22068   1.195   0.681   8.233  0.3082  0.4091 -0.0231
  191POPC  C21722069   1.355   0.599   8.337  0.7671 -0.5848  0.3900
  191POPC  H17R22070   1.393   0.688   8.390 -2.6636  0.9089  0.6348
  191POPC  H17S22071   1.445   0.539   8.310  0.4575 -1.3354  0.9719
  191POPC  C21822072   1.267   0.510   8.427 -0.3909 -0.0309  0.1804
  191POPC  H18R22073   1.309   0.491   8.528 -0.2236 -1.1647 -0.0878
  191POPC  H18S22074   1.267   0.410   8.379  0.2650  1.4259 -3.1056
  191POPC  H18T22075   1.160   0.532   8.447 -0.4659 -1.7499  2.1128
  191POPC   C3322076   1.568  -0.121   6.906 -0.0241  0.0721 -0.1937
  191POPC   H3X22077   1.524  -0.027   6.946  2.6815  0.8392  1.2453
  191POPC   H3Y22078   1.661  -0.097   6.962 -0.0698 -1.3226  0.5093
  191POPC   C3422079   1.516  -0.253   6.970  0.1169  0.4238 -0.2718
  191POPC   H4X22080   1.597  -0.327   6.953 -0.6329 -0.7921  1.2555
  191POPC   H4Y22081   1.438  -0.284   6.898  0.2696  0.6122 -0.5179
  191POPC   C3522082   1.487  -0.245   7.113  0.5546 -0.6405  0.1125
  191POPC   H5X22083   1.436  -0.337   7.147 -0.6914 -0.2904 -0.7548
  191POPC   H5Y22084   1.418  -0.162   7.138 -0.2738 -0.5852 -2.1383
  191POPC   C3622085   1.617  -0.224   7.196 -0.2843 -0.4451 -0.4882
  191POPC   H6X22086   1.677  -0.140   7.156 -1.4744 -0.2622 -2.0038
  191POPC   H6Y22087   1.673  -0.318   7.177  1.0299  0.4608 -1.1824
  191POPC   C3722088   1.587  -0.207   7.349 -0.5964 -0.5928 -0.2483
  191POPC   H7X22089   1.542  -0.304   7.378  0.2996 -1.2465 -0.9749
  191POPC   H7Y22090   1.510  -0.129   7.369  1.7985  1.5851  1.1308
  191POPC   C3822091   1.712  -0.182   7.431  0.3148 -0.4060 -1.0757
  191POPC   H8X22092   1.749  -0.079   7.409 -2.4330  1.9011  3.4744
  191POPC   H8Y22093   1.790  -0.260   7.419  0.6317 -0.4900  1.1327
  191POPC   C3922094   1.681  -0.152   7.584 -0.0012  0.3014 -0.1179
  191POPC   H9X22095   1.616  -0.242   7.598 -0.4736  0.0094 -3.4061
  191POPC   H9Y22096   1.618  -0.061   7.586  0.7914  0.8540  1.1365
  191POPC  C31022097   1.793  -0.134   7.686 -0.4111 -0.0021 -0.4270
  191POPC  H10X22098   1.860  -0.051   7.656 -1.3370  0.3617 -1.5537
  191POPC  H10Y22099   1.850  -0.230   7.683  0.6356  0.5603  0.6194
  191POPC  C31122100   1.739  -0.087   7.823 -0.3974  0.6490 -0.6276
  191POPC  H11X22101   1.669  -0.167   7.857 -1.4661  2.0196  0.4925
  191POPC  H11Y22102   1.678   0.005   7.818  0.2972  1.1104 -0.6687
  191POPC  C31222103   1.860  -0.085   7.922 -0.7184 -0.8836 -0.3018
  191POPC  H12X22104   1.884   0.024   7.925 -0.0273 -1.0421  0.3329
  191POPC  H12Y22105   1.946  -0.144   7.884 -0.5442 -1.4211  0.8875
  191POPC  C31322106   1.828  -0.124   8.067  0.0424  0.3486  0.2504
  191POPC  H13X22107   1.741  -0.063   8.100  1.3867  1.7114  1.3780
  191POPC  H13Y22108   1.901  -0.090   8.143  2.2945 -1.0512 -1.1854
  191POPC  C31422109   1.821  -0.279   8.087 -0.1320  0.7616  0.1078
  191POPC  H14X22110   1.922  -0.324   8.100 -0.6523 -0.5725 -0.3493
  191POPC  H14Y22111   1.779  -0.325   7.996  0.7417  0.4399 -0.1471
  191POPC  C31522112   1.740  -0.323   8.207  0.1492 -0.4765 -0.3014
  191POPC  H15X22113   1.638  -0.284   8.184  1.3609  2.3038 -1.4415
  191POPC  H15Y22114   1.785  -0.278   8.298 -0.7374  1.2275 -0.6456
  191POPC  C31622115   1.736  -0.470   8.225 -0.2441  1.4387  0.5836
  191POPC  H16X22116   1.695  -0.521   8.136  0.6211  1.0920  0.3760
  191POPC  H16Y22117   1.667  -0.495   8.309  1.5782 -0.0913  1.6844
  191POPC  H16Z22118   1.837  -0.514   8.240 -0.8037 -0.4054 -0.8140
  192POPC     N22119   1.507   1.995   5.903 -0.3433  0.1196  0.1064
  192POPC   C1222120   1.439   2.054   6.026 -0.2040 -0.5018 -0.8694
  192POPC  H12A22121   1.442   2.162   6.023  2.4004 -0.2463  3.3182
  192POPC  H12B22122   1.500   2.024   6.109 -0.0182 -0.9559 -1.1639
  192POPC   C1322123   1.647   2.055   5.891 -0.5262  0.7944 -0.0246
  192POPC  H13A22124   1.649   2.163   5.884  2.4267  0.7304 -2.2317
  192POPC  H13B22125   1.713   2.035   5.974  0.8704  1.8220 -0.8322
  192POPC  H13C22126   1.702   2.021   5.804  0.5258 -1.4840  1.4584
  192POPC   C1422127   1.533   1.846   5.915 -0.0055  0.1624 -0.1646
  192POPC  H14A22128   1.568   1.808   5.820  2.2063 -0.8819  0.9889
  192POPC  H14B22129   1.607   1.818   5.988 -1.1935 -0.2720  0.9067
  192POPC  H14C22130   1.448   1.787   5.946 -1.0307  1.7793  0.2377
  192POPC   C1522131   1.436   2.021   5.781  0.7770 -0.5279 -0.4142
  192POPC  H15A22132   1.335   1.984   5.776  1.5262 -3.1272  1.5174
  192POPC  H15B22133   1.489   1.991   5.692  1.7781 -0.6668  0.2089
  192POPC  H15C22134   1.434   2.128   5.761  0.4556 -0.9519 -2.8980
  192POPC   C1122135   1.290   2.016   6.076  0.6172  1.0478  0.2951
  192POPC  H11A22136   1.216   2.058   6.004 -0.2541  0.5053  0.8515
  192POPC  H11B22137   1.268   2.068   6.172 -0.5080 -0.6844  1.0223
  192POPC     P22138   1.326   1.807   6.223  0.3804  0.2473  0.2127
  192POPC   O1322139   1.448   1.876   6.279  0.2007 -0.6057 -0.4541
  192POPC   O1422140   1.342   1.667   6.199 -0.4751  0.4334  0.3791
  192POPC   O1222141   1.276   1.870   6.084  0.3997 -0.0235  0.2959
  192POPC   O1122142   1.205   1.832   6.323  0.3152  0.1601  0.2001
  192POPC    C122143   1.069   1.859   6.273  0.3135 -0.5238 -0.1854
  192POPC    HA22144   1.027   1.778   6.210 -1.0712  0.1722 -0.1909
  192POPC    HB22145   1.066   1.950   6.209 -1.7390  0.6302  1.4569
  192POPC    C222146   0.958   1.869   6.389 -0.0382 -0.7712 -0.1067
  192POPC    HS22147   0.861   1.902   6.348  0.1327 -1.2072 -0.8841
  192POPC   O2122148   1.005   1.957   6.489  0.1169  0.5909 -0.3149
  192POPC   C2122149   1.022   2.086   6.452  0.1069  0.5499  0.8187
  192POPC   O2222150   0.991   2.126   6.340 -0.7943  0.1786 -0.2762
  192POPC   C2222151   1.086   2.174   6.552 -0.3174  0.2005  0.2356
  192POPC   H2R22152   1.025   2.265   6.570 -0.7516 -0.2142  0.8703
  192POPC   H2S22153   1.182   2.214   6.511  1.0415 -2.8929  0.1605
  192POPC    C322154   0.925   1.741   6.464 -0.3701  0.6651  0.0684
  192POPC    HX22155   1.018   1.681   6.474 -1.7243 -1.3208  1.5935
  192POPC    HY22156   0.860   1.672   6.405  1.3730 -2.9888  2.0306
  192POPC   O3122157   0.857   1.764   6.595 -0.3333  0.0398  0.0063
  192POPC   C3122158   0.927   1.732   6.698  0.2377 -0.1796 -0.6845
  192POPC   O3222159   1.047   1.710   6.703  0.2868  0.0219  0.2130
  192POPC   C3222160   0.836   1.731   6.817  0.5912 -0.2237 -0.4531
  192POPC   H2X22161   0.750   1.662   6.799  0.6224 -0.5327  0.5211
  192POPC   H2Y22162   0.792   1.833   6.818  1.1566  0.1860 -3.7807
  192POPC   C2322163   1.117   2.109   6.687  0.4590 -0.2356  0.1115
  192POPC   H3R22164   1.190   2.028   6.664  1.7850  0.8364  0.4222
  192POPC   H3S22165   1.030   2.066   6.742  0.2072  1.9511  1.5231
  192POPC   C2422166   1.183   2.207   6.789 -0.0715 -0.4479 -0.5869
  192POPC   H4R22167   1.121   2.299   6.799  0.9705  0.6178 -3.1538
  192POPC   H4S22168   1.277   2.242   6.741 -1.7886  1.3442 -2.8709
  192POPC   C2522169   1.206   2.137   6.933 -0.6118 -0.2594  0.3999
  192POPC   H5R22170   1.274   2.050   6.921 -0.3326  0.3074 -3.6036
  192POPC   H5S22171   1.117   2.096   6.987 -1.9366 -0.9476 -2.1460
  192POPC   C2622172   1.277   2.243   7.022 -0.0013 -0.1912  0.2716
  192POPC   H6R22173   1.204   2.326   7.031  2.6981  2.3301  0.4500
  192POPC   H6S22174   1.360   2.286   6.961 -1.9690  0.4687 -2.1139
  192POPC   C2722175   1.331   2.194   7.156  0.0532 -0.4477 -0.1668
  192POPC   H7R22176   1.380   2.282   7.203 -2.8264 -0.4467  3.3340
  192POPC   H7S22177   1.403   2.120   7.118  0.0564  0.3138 -1.7030
  192POPC   C2822178   1.237   2.131   7.259 -0.6115 -0.5883 -0.6785
  192POPC   H8R22179   1.302   2.071   7.326 -0.4471 -0.6112 -0.8578
  192POPC   H8S22180   1.159   2.065   7.215 -1.0843 -1.9509  1.9417
  192POPC   C2922181   1.164   2.245   7.326 -0.1294  0.6845 -0.5303
  192POPC   H9122182   1.099   2.297   7.255 -0.7037  0.3766 -0.2336
  192POPC  C21022183   1.180   2.292   7.455  0.3866  0.6044 -0.3455
  192POPC  H10122184   1.112   2.376   7.477  0.4847  0.9401 -1.2472
  192POPC  C21122185   1.269   2.244   7.568 -0.8437  0.1414 -0.0970
  192POPC  H11R22186   1.318   2.147   7.549  0.5851  0.7483  0.2958
  192POPC  H11S22187   1.210   2.237   7.662  2.2325  1.5544  2.1217
  192POPC  C21222188   1.390   2.335   7.588 -0.6533  0.0889  0.4552
  192POPC  H12R22189   1.360   2.441   7.574  0.9223  0.3789 -1.0162
  192POPC  H12S22190   1.458   2.313   7.503 -0.3977 -1.4075  1.0266
  192POPC  C21322191   1.474   2.317   7.718 -0.3281  1.1250 -0.5195
  192POPC  H13R22192   1.576   2.356   7.701 -0.4987  0.7555 -2.7854
  192POPC  H13S22193   1.480   2.206   7.717  1.4259  1.1998 -0.7378
  192POPC  C21422194   1.395   2.365   7.843 -0.6991 -0.1993 -0.3769
  192POPC  H14R22195   1.293   2.321   7.835 -0.2479 -1.0571 -1.6860
  192POPC  H14S22196   1.388   2.475   7.827 -0.8937 -0.0470  0.6569
  192POPC  C21522197   1.474   2.337   7.975  0.0621  0.5122 -0.0035
  192POPC  H15R22198   1.432   2.382   8.069  0.7527  0.7765  0.1835
  192POPC  H15S22199   1.577   2.377   7.966  1.0395 -0.9855  2.9471
  192POPC  C21622200   1.490   2.188   8.003  0.5088 -0.3121 -0.4586
  192POPC  H16R22201   1.566   2.182   8.084 -1.0683 -1.6611  1.0191
  192POPC  H16S22202   1.547   2.152   7.915 -1.9682  1.3671 -2.9070
  192POPC  C21722203   1.359   2.114   8.018 -0.4040  0.3323  0.0143
  192POPC  H17R22204   1.289   2.137   7.935 -0.6235  0.1382  0.1445
  192POPC  H17S22205   1.321   2.140   8.120  0.0868 -3.4648  1.3493
  192POPC  C21822206   1.385   1.963   8.011 -0.6791 -1.2765 -0.4563
  192POPC  H18R22207   1.433   1.948   7.911  0.8421 -0.5255  0.1336
  192POPC  H18S22208   1.292   1.904   7.999 -1.0443 -0.7832 -0.0270
  192POPC  H18T22209   1.456   1.935   8.091  0.4905  0.8246 -0.6800
  192POPC   C3322210   0.904   1.688   6.943 -0.4725  0.5524 -0.3174
  192POPC   H3X22211   0.960   1.775   6.983  1.3096 -0.5401 -0.2877
  192POPC   H3Y22212   0.965   1.600   6.914  0.8801  1.3476  0.0226
  192POPC   C3422213   0.809   1.643   7.056 -0.7413 -0.7628 -0.5936
  192POPC   H4X22214   0.719   1.586   7.024 -1.0288 -0.2353 -0.7472
  192POPC   H4Y22215   0.771   1.735   7.104 -1.4589  0.6944 -3.6770
  192POPC   C3522216   0.890   1.568   7.169  0.2256 -0.0661 -0.4410
  192POPC   H5X22217   0.996   1.601   7.168  0.3424 -0.3544  0.7416
  192POPC   H5Y22218   0.891   1.457   7.173  0.4874 -0.0351  0.5064
  192POPC   C3622219   0.836   1.612   7.305 -0.5105  0.3769 -0.2045
  192POPC   H6X22220   0.737   1.564   7.322  0.7594 -2.1357  0.7698
  192POPC   H6Y22221   0.826   1.720   7.327  1.9300  0.3930  1.2285
  192POPC   C3722222   0.920   1.557   7.423  0.0564  0.8900 -0.0142
  192POPC   H7X22223   1.026   1.589   7.416 -0.4359  2.1584 -3.4136
  192POPC   H7Y22224   0.924   1.448   7.401 -2.0973  0.9057 -0.6694
  192POPC   C3822225   0.861   1.569   7.563 -0.2417 -0.5381  0.2857
  192POPC   H8X22226   0.915   1.490   7.619  1.1263 -1.0117 -1.5962
  192POPC   H8Y22227   0.753   1.549   7.572  0.0742 -1.9733  1.1570
  192POPC   C3922228   0.902   1.704   7.626 -0.1346 -0.0970 -0.2850
  192POPC   H9X22229   0.848   1.783   7.570 -0.8664  0.8436  1.6713
  192POPC   H9Y22230   1.011   1.719   7.607 -0.4644  1.0209 -1.4780
  192POPC  C31022231   0.882   1.713   7.777  0.2316 -0.3323  0.3785
  192POPC  H10X22232   0.779   1.680   7.801  0.0280  0.2678  0.3413
  192POPC  H10Y22233   0.892   1.816   7.819  0.9229 -0.6927  1.1307
  192POPC  C31122234   0.979   1.636   7.867  0.4542 -0.1756  0.3443
  192POPC  H11X22235   1.082   1.640   7.825 -0.1989 -1.0248 -1.4445
  192POPC  H11Y22236   0.943   1.531   7.863  0.0448  0.0189 -2.0127
  192POPC  C31222237   0.980   1.690   8.004 -0.0004 -0.1174 -0.1904
  192POPC  H12X22238   0.896   1.659   8.069  2.3270 -0.2418  3.0125
  192POPC  H12Y22239   0.990   1.800   8.014  1.5710 -0.1409 -1.0454
  192POPC  C31322240   1.096   1.634   8.082 -0.4646 -0.1514 -0.2368
  192POPC  H13X22241   1.187   1.657   8.024 -0.5251  2.3041  0.5264
  192POPC  H13Y22242   1.085   1.524   8.097  2.1385 -0.3694  0.5631
  192POPC  C31422243   1.105   1.691   8.228  0.0789  0.1323 -0.3334
  192POPC  H14X22244   1.151   1.792   8.229  0.0820  0.1300  0.3275
  192POPC  H14Y22245   1.181   1.635   8.289 -1.8160 -0.2450  1.8378
  192POPC  C31522246   0.978   1.700   8.313  0.8485  0.1095  0.1571
  192POPC  H15X22247   0.925   1.602   8.312 -2.6266  1.8488 -0.7419
  192POPC  H15Y22248   0.904   1.771   8.271  0.6114  0.4002  1.0501
  192POPC  C31622249   1.002   1.738   8.455  0.0293 -0.5124 -0.3287
  192POPC  H16X22250   1.023   1.847   8.456 -0.1455 -0.4842  0.1033
  192POPC  H16Y22251   1.084   1.685   8.508  1.4532  2.2684  0.4772
  192POPC  H16Z22252   0.909   1.717   8.511  0.1494 -2.4825 -0.7961
  193SOD    SOD22253   5.660   1.080   4.077 -0.4532 -0.4176 -0.5652
  194SOD    SOD22254   0.651   5.997   1.942 -0.4237  0.0728  0.1188
  195SOD    SOD22255   0.380   1.251  12.524 -0.2706 -0.0308 -0.1032
  196SOD    SOD22256   2.974   5.187  16.278  0.4824 -0.3027 -0.3023
  197SOD    SOD22257   4.670   2.152  14.034  0.2313  0.1149  0.2472
  198SOD    SOD22258   4.861   6.382   4.444 -0.0715 -0.4027  0.0311
  199SOD    SOD22259   1.640   5.046   2.453 -0.1236 -0.2412  0.5398
  200SOD    SOD22260   2.593   6.123   6.308  0.0521 -0.1792  0.3273
  201SOD    SOD22261   0.342   2.547   2.027  0.3132 -0.5859  0.2507
  202SOD    SOD22262   5.350   2.758   3.777 -0.2264 -0.2345  0.0137
  203SOD    SOD22263   1.467   0.027  11.204  0.3223 -0.2255 -0.3252
  204SOD    SOD22264   1.907   0.956  15.640  0.3419  0.0116  0.4860
  205SOD    SOD22265   0.367   4.523  11.796  0.3081 -0.1561 -0.5550
  206SOD    SOD22266   5.556   3.645  16.683  0.5514  0.5159  0.2384
  207SOD    SOD22267   0.000   2.006   5.127 -0.1737 -0.6560  0.5462
  208SOD    SOD22268   5.178   0.654   0.083  0.4358 -0.2722  0.2011
  209SOD    SOD22269   4.336   4.713   6.250 -0.1660 -0.1422 -0.3307
  210SOD    SOD22270   1.520   5.963  15.128  0.4717 -0.5008 -0.0082
  211SOD    SOD22271   5.991   3.621  14.386 -0.1313 -0.0885  0.3516
  212SOD    SOD22272   1.529   4.637   3.381 -0.1454 -0.0533  0.1439
  213SOD    SOD22273   3.151   6.251  15.099 -0.5088 -0.1601  0.0114
  214SOD    SOD22274   6.089   4.600   3.676 -0.2835 -0.1623  0.0364
  215SOD    SOD22275   4.932   1.606   4.250 -0.3802  0.3776 -0.0100
  216SOD    SOD22276   3.591   3.156  16.748 -0.5342 -0.1243 -0.3771
  217SOD    SOD22277   4.251   0.062  11.839 -0.1627 -0.3443 -0.0505
  218SOD    SOD22278   3.130   2.159   4.579  0.3691 -0.0476  0.2300
  219SOD    SOD22279   2.657   0.170  13.911 -0.2613 -0.0114  0.5347
  220SOD    SOD22280   5.912   0.392  11.667 -0.0973  0.5277 -0.2089
  221SOD    SOD22281   6.092   5.357   6.154  0.6370  0.2869 -0.2078
  222SOD    SOD22282   1.350   1.238   4.773 -0.2858  0.3290  0.3544
  223SOD    SOD22283   3.191   6.407   3.617  0.5815  0.0058  0.2396
  224SOD    SOD22284   3.389   0.015   1.425  0.0135  0.1324  0.7206
  225SOD    SOD22285   3.536   5.909   2.267  0.0216  0.5171  0.0256
  226SOD    SOD22286   3.415   0.912  11.104 -0.0415  0.8346 -0.3447
  227SOD    SOD22287   5.186   6.222  10.686  0.1940  0.6384  0.1577
  228SOD    SOD22288   1.709   4.576   5.204 -0.3053 -0.1404  0.1925
  229SOD    SOD22289   5.040   1.486  10.854  0.4120 -0.2478 -0.0608
  230SOD    SOD22290   2.490   4.504   0.847 -0.1088  0.3436 -0.4860
  231SOD    SOD22291   3.326   0.124  11.474 -0.3084  0.0133  0.2934
  232SOD    SOD22292   0.740   5.614  12.705  0.0448 -0.2618  0.5391
  233SOD    SOD22293   1.917   2.177  13.267  0.5309 -0.2815  0.2309
  234SOD    SOD22294   2.281   1.374  16.635  0.2500 -0.1565  0.0210
  235SOD    SOD22295   4.265   0.386   6.093 -0.2129  0.4827 -0.0878
  236SOD    SOD22296   4.405   3.498   2.490  0.0492  0.2254 -0.0912
  237SOD    SOD22297   3.575   1.222  15.499 -0.5858 -0.1765 -0.0909
  238SOD    SOD22298   1.200   3.413   1.200 -0.1574  0.3826 -0.1306
  239SOD    SOD22299   2.564   6.524   5.952 -0.0038  0.2479 -0.4920
  240SOD    SOD22300   2.599   5.729  12.654 -0.3529 -0.0331  0.0096
  241SOD    SOD22301   4.026   5.380   5.545  0.0179 -0.0400 -0.3483
  242SOD    SOD22302   0.906   1.632   3.476  0.3911  0.0175  0.2506
  243SOD    SOD22303   3.411   6.194  11.353  0.1264 -0.4393  0.2564
  244SOD    SOD22304   1.228   0.021   3.195 -0.2099  0.3150 -0.3308
  245SOD    SOD22305   5.672   6.068  15.449 -0.0689 -0.4319  0.2145
  246SOD    SOD22306   1.458   4.901   5.216 -0.4084  0.0123  0.0669
  247SOD    SOD22307   3.338   1.063  12.555  0.0015 -0.3920  0.1385
  248SOD    SOD22308   6.642   3.256  11.432  0.1007  0.6614 -0.2368
  249SOD    SOD22309   6.190   4.668   1.359 -0.0827 -0.1871 -0.2282
  250SOD    SOD22310   3.120   1.323   1.399 -0.1528 -0.0650  0.5769
  251SOD    SOD22311   6.695   5.962   0.067  0.3027  0.5160  0.6536
  252SOD    SOD22312   0.387   6.025  16.232  0.2103  0.7779 -0.3804
  253SOD    SOD22313   5.421   3.018   0.266 -0.0787  0.0516 -0.2492
  254SOD    SOD22314   3.107   4.806   3.447 -0.5563  0.3659 -0.1493
  255SOD    SOD22315   3.323   2.747  10.805 -0.1050 -0.5174 -0.0544
  256SOD    SOD22316   6.316   6.640  10.743  0.4490 -0.1605 -0.2513
  257SOD    SOD22317   0.397   3.182  15.184  0.4049  0.1597  0.1179
  258SOD    SOD22318   0.381   5.727   5.349  0.2963  0.0068 -0.4147
  259SOD    SOD22319   0.230   1.539  11.905  0.1150  0.7539  0.1419
  260SOD    SOD22320   5.731   0.884   5.954 -0.3549  0.1184  0.0320
  261SOD    SOD22321   6.537   4.358   0.833 -0.1962 -0.2540 -0.2245
  262SOD    SOD22322   4.609   2.695   6.215 -0.2997 -0.1570  0.0783
  263SOD    SOD22323   6.233   4.647  15.487  0.5450 -0.2051 -0.0215
  264SOD    SOD22324   6.775   6.698   2.489  0.1755 -0.1160  0.2281
  265SOD    SOD22325   4.723   2.880   4.711 -0.1728 -0.2356 -0.0265
  266SOD    SOD22326   2.250   1.506   0.943  0.3077  0.1127 -0.3998
  267SOD    SOD22327   5.396   3.981  11.720  0.0345  0.4433  0.0076
  268SOD    SOD22328   3.415   1.250   4.788 -0.1912  0.0912  0.0647
  269SOD    SOD22329   4.752   3.109  13.638 -0.0571  0.4864  0.1444
  270CLA    CLA22330   1.727   5.072   0.834 -0.3391 -0.1095 -0.6071
  271CLA    CLA22331   2.707   6.464  16.888 -0.2853 -0.4519  0.3433
  272CLA    CLA22332   3.825   1.049  13.253 -0.0249 -0.2434 -0.3098
  273CLA    CLA22333   4.408   2.688  16.813  0.3854  0.0484 -0.2255
  274CLA    CLA22334   1.229   2.773  14.801 -0.5299 -0.2070  0.0826
  275CLA    CLA22335   3.510   0.737  14.781  0.0385 -0.0007 -0.3725
  276CLA    CLA22336   3.463   0.811   4.620 -0.3418 -0.0523 -0.0412
  277CLA    CLA22337   5.107   1.491   3.081  0.3609 -0.2186  0.1483
  278CLA    CLA22338   0.412   4.768  12.262  0.6979 -0.2063 -0.3041
  279CLA    CLA22339   6.091   6.244  14.651  0.3142  0.1895  0.0943
  280CLA    CLA22340   0.161   6.126   0.978  0.2563  0.4924 -0.0366
  281CLA    CLA22341   3.165   5.535  15.670  0.3411 -0.0550 -0.0098
  282CLA    CLA22342   5.143   0.460  16.582  0.1622  0.2608 -0.0636
  283CLA    CLA22343   6.680   3.305   1.236  0.1068  0.3080  0.5269
  284CLA    CLA22344   3.870   5.668   3.013  0.1549 -0.0131  0.1164
  285CLA    CLA22345   2.760   1.359  12.453  0.1740  0.3966  0.0470
  286CLA    CLA22346   6.716   5.949  16.627 -0.0500  0.1005 -0.1952
  287CLA    CLA22347   1.301   1.425  13.935  0.1148 -0.0637  0.0583
  288CLA    CLA22348   4.863   1.100   1.949 -0.1374  0.1450  0.0389
  289CLA    CLA22349   2.882   0.426   5.737 -0.0951 -0.0392 -0.0438
  290CLA    CLA22350   2.573   6.564   3.040  0.1438 -0.3326 -0.0689
  291CLA    CLA22351   4.456   6.160  15.892 -0.1602 -0.0873  0.2197
  292CLA    CLA22352   6.600   0.986   3.879  0.1239  0.3234  0.0528
  293CLA    CLA22353   4.079   3.280   3.283 -0.1724  0.4340  0.3761
  294CLA    CLA22354   0.244   4.660   0.933 -0.5911 -0.0242 -0.8304
  295CLA    CLA22355   1.379   1.320   4.514 -0.5435 -0.2598  0.1492
  296CLA    CLA22356   6.428   6.701   1.696  0.2813  0.0410  0.1355
  297CLA    CLA22357   1.969   3.743  12.160  0.3437  0.4288 -0.0245
  298CLA    CLA22358   4.513   5.901   0.216  0.5457  0.0972 -0.1154
  299CLA    CLA22359   5.723   4.711   5.279  0.1518  0.1570 -0.3916
  300CLA    CLA22360   0.467   6.750   2.171 -0.0050 -0.0340 -0.1095
  301CLA    CLA22361   0.527   4.830  14.036 -0.3447 -0.2934  0.3497
  302CLA    CLA22362   4.178   5.832  11.874 -0.2528 -0.3809 -0.3779
  303CLA    CLA22363   2.592   4.188   1.957 -0.0883  0.2773  0.3113
  304CLA    CLA22364   4.931   6.628   3.237  0.1758  0.0492  0.0639
  305CLA    CLA22365   6.054   3.657   1.630  0.4110 -0.3254  0.4919
  306CLA    CLA22366   0.013   5.485   2.629  0.4782  0.0814  0.1225
  307CLA    CLA22367   6.463   3.239   0.519 -0.1326  0.4889  0.1129
  308CLA    CLA22368   2.331   5.139   1.498  0.0418 -0.3138  0.6543
  309CLA    CLA22369   3.330   3.353   0.704 -0.0298 -0.3037  0.2218
  310CLA    CLA22370   6.080   4.062  13.647  0.0361 -0.1568  0.1063
  311CLA    CLA22371   0.466   0.658   4.542 -0.0488  0.0067  0.0087
  312CLA    CLA22372   3.654   3.435  11.150  0.3603  0.2851  0.0470
  313CLA    CLA22373   1.799   3.628  16.853  0.3101 -0.0279  0.3679
  314CLA    CLA22374   0.156   3.756  15.449 -0.2114  0.1611  0.0762
  315CLA    CLA22375   5.657   5.220   2.721  0.7399  0.1337 -0.2967
  316CLA    CLA22376   0.334   1.617  13.335 -0.2061  0.5008 -0.2337
  317CLA    CLA22377   3.674   1.001   0.754 -0.2116  0.1613  0.2615
  318CLA    CLA22378   1.227   0.644   0.272  0.5843  0.0479  0.3087
  319CLA    CLA22379   2.956   2.087  15.858  0.2848 -0.0870  0.0035
  320CLA    CLA22380   5.446   6.060   4.757  0.1765 -0.4147 -0.3832
  321CLA    CLA22381   3.329   3.651  16.280  0.1252  0.1993  0.0056
  322CLA    CLA22382   5.130   5.476   0.737  0.2509  0.2516  0.1609
  323TIP3   OH222383   2.167   1.623  11.428  0.3125  0.3795  0.8357
  323TIP3    H122384   2.149   1.637  11.521  0.9830  0.5544  0.9452
  323TIP3    H222385   2.138   1.704  11.386 -1.8050 -0.4182  0.6098
  324TIP3   OH222386   0.750   6.244   0.370  0.6638  0.2031 -0.2779
  324TIP3    H122387   0.845   6.255   0.380  0.6151 -0.9473  1.7393
  324TIP3    H222388   0.741   6.183   0.297  1.3151  2.4266 -2.3704
  325TIP3   OH222389   2.425   6.000   0.396  0.5507  0.1701 -0.1986
  325TIP3    H122390   2.335   6.011   0.365  0.1774  0.4812  0.9536
  325TIP3    H222391   2.455   6.089   0.413  0.0316 -0.0442  2.2159
  326TIP3   OH222392   1.831   4.956  11.537  0.6381  0.2532 -0.1691
  326TIP3    H122393   1.745   4.931  11.571 -0.4940  0.8509 -2.3579
  326TIP3    H222394   1.833   4.917  11.449  2.1594  1.1655 -0.5658
  327TIP3   OH222395   6.705   0.842   5.899  0.1907 -0.1961 -0.1708
  327TIP3    H122396   6.658   0.760   5.914 -0.6201 -0.1909 -2.3240
  327TIP3    H222397   6.694   0.859   5.805  0.3634  2.3554  0.2036
  328TIP3   OH222398   2.107   5.678   1.527  0.1609  0.2070  0.4981
  328TIP3    H122399   2.072   5.666   1.439 -0.2512  1.9182  0.3900
  328TIP3    H222400   2.066   5.609   1.579  0.2971 -0.7246 -0.6053
  329TIP3   OH222401   5.566   4.792  13.547  0.2457  0.3311  0.3207
  329TIP3    H122402   5.541   4.883  13.560  0.7285  0.5385 -0.1632
  329TIP3    H222403   5.662   4.793  13.547  0.2573 -0.1045 -0.1321
  330TIP3   OH222404   2.772   5.280   3.607 -0.0062  0.3763 -0.1505
  330TIP3    H122405   2.820   5.291   3.525  0.3630  0.0912  0.0242
  330TIP3    H222406   2.796   5.192   3.637 -1.0544  0.0203 -0.3335
  331TIP3   OH222407   0.056   0.376   1.880 -0.1724  0.1762 -0.3460
  331TIP3    H122408  -0.001   0.325   1.822  0.3394 -1.2098  0.3429
  331TIP3    H222409   0.121   0.314   1.910  0.0768  1.0898  1.0594
  332TIP3   OH222410   3.307   6.179  11.115 -0.4355  0.1207 -0.3741
  332TIP3    H122411   3.225   6.146  11.077  0.2684 -1.3243 -0.6850
  332TIP3    H222412   3.375   6.147  11.056  0.5312 -0.5464  1.0469
  333TIP3   OH222413   1.551   2.277  12.389  0.0981 -0.1223  0.0761
  333TIP3    H122414   1.509   2.231  12.317 -0.2229 -0.3789  0.4245
  333TIP3    H222415   1.644   2.276  12.367  0.0152 -0.3210 -0.2628
  334TIP3   OH222416   1.069   4.719   5.253  0.0177 -0.7018 -0.0572
  334TIP3    H122417   1.091   4.660   5.181 -2.4090 -1.4396 -0.2781
  334TIP3    H222418   1.099   4.672   5.332 -0.7403 -1.6771 -0.3305
  335TIP3   OH222419   1.564   5.920   4.862 -0.5388  0.1821  0.3039
  335TIP3    H122420   1.478   5.894   4.896 -0.8591 -0.4283 -0.9370
  335TIP3    H222421   1.546   5.953   4.774  0.7152 -1.7512 -0.7141
  336TIP3   OH222422   5.540   4.420   1.477  0.0633  0.6630  0.2945
  336TIP3    H122423   5.604   4.484   1.446  0.1337  0.3046 -0.3130
  336TIP3    H222424   5.590   4.362   1.535 -0.4386  2.4307  2.6910
  337TIP3   OH222425   0.248   2.738  15.093  0.3228  0.4812  0.2130
  337TIP3    H122426   0.341   2.762  15.101  0.3563  0.2167  0.6597
  337TIP3    H222427   0.248   2.643  15.089  0.0984  0.4985 -0.2474
  338TIP3   OH222428   2.899   1.250   0.928  0.3962 -0.2441  0.3184
  338TIP3    H122429   2.962   1.313   0.961 -0.9603  1.3861 -0.0632
  338TIP3    H222430   2.872   1.285   0.843  0.0838 -1.6919 -0.2135
  339TIP3   OH222431   5.924   1.855  12.963 -0.1183  0.2978 -0.5123
  339TIP3    H122432   5.876   1.851  12.880  2.6882 -0.0123 -2.2734
  339TIP3    H222433   5.944   1.763  12.983 -1.3788  0.3100  0.9537
  340TIP3   OH222434   3.515   4.783   5.679  0.0203 -0.1476 -0.1846
  340TIP3    H122435   3.603   4.775   5.641  0.1227 -1.7472  0.3068
  340TIP3    H222436   3.515   4.869   5.721  1.0808  0.2106 -0.8701
  341TIP3   OH222437   2.161   4.631   4.142 -0.0529 -0.2812 -0.8036
  341TIP3    H122438   2.158   4.716   4.098 -1.7311 -0.1182 -0.4695
  341TIP3    H222439   2.070   4.602   4.142  0.2128 -1.2055  0.7568
  342TIP3   OH222440   0.484   5.608  14.382 -0.0093 -0.3991  0.2262
  342TIP3    H122441   0.414   5.670  14.401  0.0168 -0.4232  0.4030
  342TIP3    H222442   0.505   5.569  14.467 -1.3776 -2.0831 -0.1520
  343TIP3   OH222443   1.500   6.329   2.358 -0.2602  0.3862 -0.2635
  343TIP3    H122444   1.508   6.424   2.352 -0.0583  0.3351 -0.9658
  343TIP3    H222445   1.583   6.295   2.326 -0.2913 -0.0284  0.0782
  344TIP3   OH222446   6.066   5.219  17.089  0.0563 -0.6489 -0.2016
  344TIP3    H122447   6.012   5.212  17.010 -0.5870  1.4838 -0.0102
  344TIP3    H222448   6.004   5.222  17.161  0.3697  1.3363  0.0579
  345TIP3   OH222449   3.834   2.402   0.056 -0.1059  0.7008  0.2268
  345TIP3    H122450   3.843   2.331   0.120 -1.0908  0.7525  0.4472
  345TIP3    H222451   3.766   2.459   0.093 -0.6301  0.7751 -0.8174
  346TIP3   OH222452   1.591   1.296  12.592 -0.4230 -0.7086 -0.0763
  346TIP3    H122453   1.528   1.251  12.536 -0.6393 -0.4292 -0.0588
  346TIP3    H222454   1.540   1.363  12.637 -0.0855 -0.3750 -0.1808
  347TIP3   OH222455   5.123   2.023  17.215 -0.3745 -0.4543  0.0579
  347TIP3    H122456   5.085   2.082  17.281 -1.4217 -0.3870 -0.5893
  347TIP3    H222457   5.133   2.077  17.137  0.1815 -0.7209 -0.0586
  348TIP3   OH222458   5.871   1.014  16.207 -0.0460 -0.2751  0.0796
  348TIP3    H122459   5.852   0.955  16.280  0.0536 -0.2801  0.1007
  348TIP3    H222460   5.855   0.962  16.129  1.8107 -0.9065  0.0752
  349TIP3   OH222461   5.525   6.599   2.277 -0.7392 -0.2516 -0.0006
  349TIP3    H122462   5.465   6.671   2.260 -0.3102  0.0946 -0.0572
  349TIP3    H222463   5.537   6.598   2.372 -1.1919 -0.6171  0.0595
  350TIP3   OH222464   4.545   4.724   6.312 -0.4481 -0.2866 -0.0694
  350TIP3    H122465   4.583   4.662   6.249  0.7546 -0.8432  1.1652
  350TIP3    H222466   4.620   4.769   6.350 -1.2162  0.6816  0.3416
  351TIP3   OH222467   5.012   1.213  11.276  0.4995  0.2339 -0.2516
  351TIP3    H122468   5.093   1.165  11.295  1.6833  1.8245 -1.0360
  351TIP3    H222469   5.011   1.285  11.339 -1.2063 -0.7098  0.8587
  352TIP3   OH222470   4.668   4.797   5.015 -0.7091  0.1076  0.2477
  352TIP3    H122471   4.749   4.829   4.974 -2.2169  1.6323 -1.7619
  352TIP3    H222472   4.645   4.865   5.079 -0.2715 -0.4741  1.0373
  353TIP3   OH222473   4.825   3.342   5.107  0.0392  0.0794 -0.3248
  353TIP3    H122474   4.799   3.427   5.143  1.1206  0.4346 -0.3670
  353TIP3    H222475   4.920   3.348   5.098  0.2096 -1.3922  0.3181
  354TIP3   OH222476   5.331   4.521  11.509  0.1790  0.0306  0.0419
  354TIP3    H122477   5.381   4.452  11.467  1.5441 -0.0297  1.6732
  354TIP3    H222478   5.363   4.602  11.469 -0.0275 -0.1381 -0.4781
  355TIP3   OH222479   4.803   2.680   1.488  0.0396 -0.3740 -0.3294
  355TIP3    H122480   4.868   2.610   1.498  0.7755 -0.3256 -3.5518
  355TIP3    H222481   4.731   2.638   1.441 -0.2521  0.6218 -0.7962
  356TIP3   OH222482   6.011   5.247  14.741 -0.0516 -0.0738 -0.2095
  356TIP3    H122483   6.001   5.233  14.647  1.3640 -0.1941 -0.3714
  356TIP3    H222484   6.056   5.168  14.772 -0.3124  0.0596  0.5325
  357TIP3   OH222485   3.063   0.419   6.808 -0.1020  1.1569 -0.0245
  357TIP3    H122486   3.130   0.484   6.788  0.9016  0.7794  1.8733
  357TIP3    H222487   3.096   0.337   6.771  0.0038  1.1560  0.0747
  358TIP3   OH222488   6.711   2.447  12.499  0.2294  0.5553  0.2720
  358TIP3    H122489   6.785   2.409  12.451 -0.4484  1.3565 -1.4734
  358TIP3    H222490   6.728   2.542  12.497 -0.3976  0.6763  0.6125
  359TIP3   OH222491   3.260   0.602   6.698 -0.0717  0.2946  0.5215
  359TIP3    H122492   3.329   0.667   6.709 -0.0492  0.5342 -0.8759
  359TIP3    H222493   3.263   0.579   6.605 -0.4235 -1.3314  0.8838
  360TIP3   OH222494   1.574   6.402   6.180  0.1294  0.4505 -0.0619
  360TIP3    H122495   1.526   6.430   6.102 -0.7320 -1.3861 -0.2537
  360TIP3    H222496   1.600   6.483   6.223 -1.7132  1.5332 -0.8544
  361TIP3   OH222497   4.925   3.022  13.996 -0.2494  0.2743 -0.2204
  361TIP3    H122498   5.013   2.985  13.990 -0.5627 -0.7042  0.8495
  361TIP3    H222499   4.927   3.098  13.938  0.8901 -0.5155 -1.2627
  362TIP3   OH222500   6.428   4.945  15.072  0.2214  0.8700  0.1374
  362TIP3    H122501   6.512   4.899  15.079  0.7702  1.7027 -0.7281
  362TIP3    H222502   6.363   4.878  15.091  1.0411 -0.0389 -0.1495
  363TIP3   OH222503   3.676   5.011   0.605 -0.4754  0.1817  0.3737
  363TIP3    H122504   3.770   5.023   0.589 -0.3311 -0.6564  0.5555
  363TIP3    H222505   3.672   4.952   0.680 -1.1444 -1.5801 -0.9870
  364TIP3   OH222506   3.540   0.224  11.932  0.2144  0.2815  0.2505
  364TIP3    H122507   3.594   0.223  12.011  2.5474 -0.2696 -1.2447
  364TIP3    H222508   3.593   0.270  11.867 -1.5069  0.4674 -1.1002
  365TIP3   OH222509   6.461   5.534   0.060 -0.7423  0.0821 -0.0295
  365TIP3    H122510   6.403   5.462   0.034  0.1749 -0.1699 -1.5470
  365TIP3    H222511   6.529   5.493   0.112 -0.6406 -0.0277 -0.2474
  366TIP3   OH222512   6.720   2.829  10.315 -0.2775  0.2405  0.0475
  366TIP3    H122513   6.697   2.814  10.407  0.4544 -0.1911  0.1773
  366TIP3    H222514   6.686   2.916  10.295  0.3352  0.7205  0.9980
  367TIP3   OH222515   5.842   0.635  11.688 -0.1779  0.7499 -0.0667
  367TIP3    H122516   5.746   0.632  11.693 -0.1844 -0.0305 -0.5343
  367TIP3    H222517   5.861   0.721  11.652 -0.7617  0.4383 -1.1531
  368TIP3   OH222518   5.784   3.982  14.687 -0.0060 -0.2096  0.0086
  368TIP3    H122519   5.795   4.066  14.733 -3.1611  2.3432 -3.2360
  368TIP3    H222520   5.750   3.923  14.753 -0.4990  1.9825  1.8534
  369TIP3   OH222521   0.443   6.144  15.187 -0.1738  0.1844  0.0152
  369TIP3    H122522   0.405   6.061  15.217 -0.1219 -0.3915 -1.4588
  369TIP3    H222523   0.532   6.143  15.221 -0.5164  0.1694  0.9571
  370TIP3   OH222524   4.010   2.922  11.948 -0.3628 -0.0479  0.1181
  370TIP3    H122525   4.033   3.015  11.952 -1.0109  0.2817 -2.2221
  370TIP3    H222526   3.917   2.921  11.929 -0.2605 -1.1693 -0.4111
  371TIP3   OH222527   4.466   4.277   2.874 -0.3238 -0.3572  0.1764
  371TIP3    H122528   4.451   4.234   2.958 -3.1053 -2.2171 -1.0923
  371TIP3    H222529   4.501   4.363   2.896  0.1151 -1.1943  3.1458
  372TIP3   OH222530   1.762   0.823  16.161 -0.1647 -0.1125  0.0170
  372TIP3    H122531   1.853   0.835  16.133  0.3222  0.3513  1.6578
  372TIP3    H222532   1.745   0.730  16.149  0.4753 -0.1782 -0.4450
  373TIP3   OH222533   3.393   6.501   5.171 -0.0723 -0.0053 -0.0550
  373TIP3    H122534   3.442   6.537   5.097  0.8899 -2.3463 -0.6332
  373TIP3    H222535   3.446   6.524   5.247  1.3766 -1.4522 -0.5603
  374TIP3   OH222536   3.515   2.463  15.974  0.1155 -0.0421  0.3342
  374TIP3    H122537   3.423   2.458  15.997 -0.3978  2.7887 -0.7003
  374TIP3    H222538   3.535   2.556  15.972  2.3626 -0.4480 -1.8093
  375TIP3   OH222539   3.496   1.447  15.045  0.5315 -0.4589 -0.4524
  375TIP3    H122540   3.535   1.377  15.097  0.2085  0.4714  1.0830
  375TIP3    H222541   3.406   1.453  15.076  0.8448  1.3424  0.2058
  376TIP3   OH222542   5.651   4.543  12.191  0.1136  0.2482  0.3111
  376TIP3    H122543   5.582   4.511  12.132 -0.1655 -0.6692  1.1104
  376TIP3    H222544   5.693   4.614  12.142 -1.0807  0.5013 -0.3885
  377TIP3   OH222545   0.112   3.841  15.153 -0.7317 -0.1943 -0.0487
  377TIP3    H122546   0.141   3.801  15.235 -0.9965  0.0601  0.1716
  377TIP3    H222547   0.113   3.935  15.170 -3.6497 -0.2083  0.6669
  378TIP3   OH222548   4.493   4.995  14.754 -0.2357  0.0253 -0.1723
  378TIP3    H122549   4.472   4.954  14.838  0.8217  1.8136  1.0241
  378TIP3    H222550   4.513   4.921  14.696  0.0060 -1.2207  1.4105
  379TIP3   OH222551   0.133   2.371   6.461 -0.6982 -0.3156  0.0438
  379TIP3    H122552   0.076   2.413   6.396 -0.1421 -0.6114 -0.6435
  379TIP3    H222553   0.089   2.288   6.481 -1.1234 -0.0071  0.4273
  380TIP3   OH222554   2.775   3.207  12.803  0.1435 -0.2500  0.6378
  380TIP3    H122555   2.833   3.254  12.863  1.9538 -0.3528 -0.9118
  380TIP3    H222556   2.723   3.275  12.761  0.7890  0.1087  0.4028
  381TIP3   OH222557   4.551   3.981  16.414 -0.0805 -0.3252  0.1881
  381TIP3    H122558   4.566   3.913  16.479  1.1104 -0.9369 -0.6837
  381TIP3    H222559   4.628   4.038  16.420  1.0887 -1.5217 -1.9763
  382TIP3   OH222560   2.594   5.130  14.131 -0.3122 -0.1214 -0.2414
  382TIP3    H122561   2.679   5.173  14.126 -1.1922  1.7165 -0.3164
  382TIP3    H222562   2.539   5.178  14.069 -1.5864 -0.8438  0.2896
  383TIP3   OH222563   5.039   2.398  16.464 -0.4355  0.2467 -0.0207
  383TIP3    H122564   4.962   2.392  16.407 -0.6898  0.0413  0.3386
  383TIP3    H222565   5.019   2.469  16.524 -0.0199  0.6913 -0.3966
  384TIP3   OH222566   5.080   5.863  17.210 -0.3659 -0.3265 -0.9289
  384TIP3    H122567   5.072   5.956  17.232  1.1621 -0.1985 -0.8391
  384TIP3    H222568   5.000   5.824  17.244 -0.5074  0.7667  0.0604
  385TIP3   OH222569   6.658   1.502   5.009 -0.9388  0.5526  0.6185
  385TIP3    H122570   6.702   1.417   4.998 -2.5758 -0.2513 -0.0567
  385TIP3    H222571   6.628   1.501   5.100 -1.3591  0.1872  0.4812
  386TIP3   OH222572   0.076   6.392   0.239  0.2068  0.0052  0.4545
  386TIP3    H122573   0.126   6.473   0.246  2.0264 -0.9938 -0.2128
  386TIP3    H222574   0.138   6.329   0.202 -1.4522 -1.4319 -0.0085
  387TIP3   OH222575   3.449   6.203   0.921 -0.2533  0.0535  0.3744
  387TIP3    H122576   3.500   6.174   0.846 -0.8819  0.7061 -0.3224
  387TIP3    H222577   3.473   6.144   0.992 -0.0787 -0.9271 -0.4928
  388TIP3   OH222578   2.267   3.029   2.665 -0.3120 -0.6972 -0.0658
  388TIP3    H122579   2.267   3.062   2.755 -2.0635 -1.1316  0.1236
  388TIP3    H222580   2.189   3.068   2.625  0.3502 -0.6547 -1.3566
  389TIP3   OH222581   2.003   5.207  15.007 -0.1963  0.3727 -0.5943
  389TIP3    H122582   1.924   5.154  14.999 -1.0981  1.7638 -1.0133
  389TIP3    H222583   1.985   5.286  14.957  1.7323  0.4207 -1.2942
  390TIP3   OH222584   0.486   5.192  11.256  0.4774  0.2077  0.5117
  390TIP3    H122585   0.432   5.188  11.178  1.4356 -0.1890 -0.1607
  390TIP3    H222586   0.576   5.195  11.223  0.9279 -0.4530  1.5917
  391TIP3   OH222587   6.300   1.163  14.032 -0.7299  0.4482  0.4639
  391TIP3    H122588   6.268   1.248  14.002 -0.0482 -0.0067 -1.7478
  391TIP3    H222589   6.253   1.100  13.977  0.1291 -0.5012  0.7927
  392TIP3   OH222590   1.684   3.547  11.255  0.3139  0.1005 -0.2209
  392TIP3    H122591   1.720   3.614  11.197  1.6170 -0.0496  0.3779
  392TIP3    H222592   1.694   3.583  11.343 -0.0180 -0.4168  0.0364
  393TIP3   OH222593   0.876   5.029  16.761 -0.0976  0.1215 -0.1864
  393TIP3    H122594   0.939   5.017  16.832 -1.0643  0.3142  0.7308
  393TIP3    H222595   0.798   5.066  16.803 -0.4446  0.9423 -1.4642
  394TIP3   OH222596   6.246   2.637   1.952 -0.1488  0.8230 -0.1771
  394TIP3    H122597   6.307   2.708   1.935  0.5179 -0.0565 -1.5968
  394TIP3    H222598   6.160   2.676   1.941  0.1946  1.5387 -0.3635
  395TIP3   OH222599   1.940   1.505   5.126 -0.1093  0.1078 -0.0997
  395TIP3    H122600   1.971   1.421   5.161 -0.4021 -0.0955 -0.3229
  395TIP3    H222601   1.845   1.494   5.117  0.0219 -0.0170 -1.4261
  396TIP3   OH222602   2.408   4.818  12.538  0.0647 -0.3124  0.2678
  396TIP3    H122603   2.321   4.791  12.507 -0.1152 -0.3869  0.8336
  396TIP3    H222604   2.463   4.813  12.460 -0.9657  2.1914 -0.7398
  397TIP3   OH222605   6.111   2.383   2.334  0.1761 -0.1606 -0.3661
  397TIP3    H122606   6.137   2.291   2.323 -2.3617 -1.4140  2.6364
  397TIP3    H222607   6.125   2.401   2.427 -1.2989  1.8388 -0.4740
  398TIP3   OH222608   1.225   6.315  16.321 -0.0603  0.1829  0.1804
  398TIP3    H122609   1.217   6.329  16.227 -0.6132  0.1130  0.2104
  398TIP3    H222610   1.265   6.228  16.329  0.1031  0.2411  0.0122
  399TIP3   OH222611   1.067   5.363  12.468  0.7662  0.4697 -0.3722
  399TIP3    H122612   1.020   5.428  12.520  1.4346 -0.6425  1.7465
  399TIP3    H222613   0.998   5.304  12.436  0.4542  0.4010  0.4056
  400TIP3   OH222614   6.552   0.502  16.264  0.0206 -0.5248  0.5798
  400TIP3    H122615   6.540   0.428  16.205 -0.7266 -0.7042  0.9437
  400TIP3    H222616   6.602   0.566  16.214 -0.8078 -0.5753 -0.3370
  401TIP3   OH222617   0.419   2.195   0.315 -0.2891 -0.1480 -0.1754
  401TIP3    H122618   0.359   2.266   0.338  0.9009  0.6658  0.5333
  401TIP3    H222619   0.393   2.170   0.226 -0.3666  1.6004 -0.7025
  402TIP3   OH222620   0.945   3.804   5.880 -0.0751  0.0697 -0.3240
  402TIP3    H122621   0.878   3.813   5.948  0.1871 -0.3443 -0.0051
  402TIP3    H222622   0.969   3.711   5.883  0.6017  0.2417 -0.3564
  403TIP3   OH222623   5.241   2.350  15.231 -0.1370  0.2299  0.1635
  403TIP3    H122624   5.204   2.262  15.230 -1.2218  0.5944 -2.9860
  403TIP3    H222625   5.336   2.336  15.228 -0.2792 -0.8203  0.1439
  404TIP3   OH222626   1.835   4.066  11.702  0.0237  0.4549 -0.1348
  404TIP3    H122627   1.771   3.995  11.691  0.3044  0.2186 -0.2812
  404TIP3    H222628   1.916   4.021  11.728  0.2542  0.7033 -0.4095
  405TIP3   OH222629   5.051   2.313   5.097  1.3975 -0.7056 -0.5177
  405TIP3    H122630   4.973   2.307   5.152  1.8996  0.8449  0.4189
  405TIP3    H222631   5.087   2.224   5.096  0.6378 -1.0373  0.5527
  406TIP3   OH222632   0.156   0.910   4.912 -0.2640 -0.2276  0.0088
  406TIP3    H122633   0.229   0.849   4.914  0.1224  0.2399  0.9979
  406TIP3    H222634   0.158   0.948   4.824  0.5823 -0.3425 -0.0233
  407TIP3   OH222635   0.158   5.325  13.304 -0.1566  0.4935 -0.1707
  407TIP3    H122636   0.209   5.328  13.386 -0.1130  0.1940 -0.1867
  407TIP3    H222637   0.210   5.375  13.242 -0.1801  0.7059 -0.0191
  408TIP3   OH222638   2.335   2.823   5.289  0.1354  0.6647 -0.6427
  408TIP3    H122639   2.249   2.841   5.326  0.1626  2.0798 -1.1917
  408TIP3    H222640   2.368   2.748   5.339 -1.2155  0.3885 -0.1266
  409TIP3   OH222641   4.126   3.955  14.488 -0.1172 -0.2541  0.1026
  409TIP3    H122642   4.141   3.923  14.577 -0.7852  0.5245  0.5122
  409TIP3    H222643   4.205   4.004  14.467  0.6960 -1.7001 -0.3360
  410TIP3   OH222644   2.436   1.605  15.440  0.1889 -0.1087  0.3779
  410TIP3    H122645   2.367   1.609  15.374 -0.5975  1.3366  1.2493
  410TIP3    H222646   2.517   1.602  15.390 -0.4653 -1.6633 -0.6615
  411TIP3   OH222647   5.208   6.138   0.988  0.2154 -0.6315 -0.6001
  411TIP3    H122648   5.166   6.200   0.928  0.9309  1.5411  0.9958
  411TIP3    H222649   5.297   6.131   0.956  1.0391  1.7125  0.9108
  412TIP3   OH222650   3.718   4.449   3.829 -0.5673  0.2015  0.3479
  412TIP3    H122651   3.808   4.473   3.807  0.0032 -0.4627  1.8460
  412TIP3    H222652   3.696   4.505   3.904 -1.2488  0.0340  0.2797
  413TIP3   OH222653   0.348   3.760   5.193 -0.2267 -0.0020 -0.3850
  413TIP3    H122654   0.422   3.816   5.174  0.7944 -0.4687  1.8677
  413TIP3    H222655   0.385   3.672   5.199 -0.6584 -0.1022  1.8875
  414TIP3   OH222656   3.964   5.819   5.521  0.4652 -0.2868  0.2131
  414TIP3    H122657   3.980   5.871   5.442  0.7181  0.5019  0.7719
  414TIP3    H222658   3.933   5.883   5.585  0.0488 -0.9595  0.6850
  415TIP3   OH222659   4.050   5.125  12.970 -0.0993  0.0080  0.1066
  415TIP3    H122660   4.019   5.035  12.976 -0.6152  0.2097  0.5164
  415TIP3    H222661   3.973   5.179  12.988  0.2307  0.5315 -0.0151
  416TIP3   OH222662   3.118   0.214   2.594  0.6181 -0.2057  0.3950
  416TIP3    H122663   3.042   0.176   2.550  0.5933 -0.6188  0.7903
  416TIP3    H222664   3.140   0.151   2.662  2.7171 -1.2660 -1.1419
  417TIP3   OH222665   5.853   6.400  11.844  0.2251 -0.5695  0.5339
  417TIP3    H122666   5.910   6.339  11.890 -0.9466 -0.6841  1.8836
  417TIP3    H222667   5.816   6.348  11.772  0.1785 -1.1053  0.9354
  418TIP3   OH222668   5.373   2.899   4.326 -0.4683  0.4617  0.6858
  418TIP3    H122669   5.414   2.812   4.331  0.4277  0.6748 -1.7698
  418TIP3    H222670   5.435   2.957   4.371  1.7460  0.6471 -2.3133
  419TIP3   OH222671   4.984   4.573  16.182 -0.6577  0.0926 -0.3343
  419TIP3    H122672   4.897   4.534  16.184 -0.7322  0.2319  1.8486
  419TIP3    H222673   4.980   4.638  16.112 -1.8250 -0.9009 -1.2257
  420TIP3   OH222674   4.958   4.822   5.291 -0.4595 -0.5784  0.4302
  420TIP3    H122675   4.995   4.909   5.300 -0.3032 -0.7596  1.7464
  420TIP3    H222676   4.876   4.825   5.340  0.1237 -1.4877  1.5058
  421TIP3   OH222677   6.370   2.417  14.441 -0.2870  0.5930  0.4129
  421TIP3    H122678   6.446   2.379  14.485  0.5096 -0.5823 -1.8194
  421TIP3    H222679   6.307   2.345  14.436 -0.8056  1.0281  0.5774
  422TIP3   OH222680   4.150   4.720   1.863 -0.3738 -0.4829 -0.1321
  422TIP3    H122681   4.149   4.815   1.865  2.2472 -0.3642 -0.4906
  422TIP3    H222682   4.091   4.697   1.791 -0.4791  0.8998 -0.5147
  423TIP3   OH222683   3.568   4.813   3.159  0.0397 -0.4914 -0.3813
  423TIP3    H122684   3.580   4.899   3.200 -0.2677 -0.3154 -0.6441
  423TIP3    H222685   3.504   4.769   3.215  0.7356 -0.8293  0.1535
  424TIP3   OH222686   6.471   3.738  12.558 -0.2403 -0.3463 -0.4504
  424TIP3    H122687   6.499   3.700  12.475  1.6233 -0.1675  0.0571
  424TIP3    H222688   6.433   3.823  12.534  0.9799  0.0429 -1.0721
  425TIP3   OH222689   3.143   1.155   1.551 -0.0743  0.1057  0.5172
  425TIP3    H122690   3.204   1.132   1.621  0.3132 -0.2597  0.0631
  425TIP3    H222691   3.068   1.096   1.566  0.4309 -0.6663  0.0391
  426TIP3   OH222692   5.782   6.166  15.241  0.1276 -0.3583 -0.4482
  426TIP3    H122693   5.747   6.127  15.161  0.1030 -1.7605  0.2184
  426TIP3    H222694   5.867   6.202  15.215  0.8474 -2.2292 -0.7749
  427TIP3   OH222695   0.512   5.306  13.353  0.1058  0.1694 -0.1557
  427TIP3    H122696   0.457   5.326  13.277 -0.1181  2.9016  0.6173
  427TIP3    H222697   0.593   5.271  13.316 -1.0539 -1.3006 -1.4522
  428TIP3   OH222698   6.408   0.226   0.197  0.4893 -0.0569  0.7344
  428TIP3    H122699   6.389   0.244   0.289  2.0265 -0.5690  1.1874
  428TIP3    H222700   6.398   0.131   0.190 -2.6923  0.2599 -0.4289
  429TIP3   OH222701   5.646   2.484   3.272  0.2209  0.4948  0.3196
  429TIP3    H122702   5.662   2.558   3.330 -0.6633  1.0396 -0.1032
  429TIP3    H222703   5.669   2.516   3.185 -0.6518  0.4535  0.0660
  430TIP3   OH222704   1.049   1.113  13.997  0.1850  0.3265  0.1019
  430TIP3    H122705   1.000   1.175  13.944 -1.0743 -0.8810 -0.2141
  430TIP3    H222706   0.996   1.101  14.076  1.6627  1.5247  1.3667
  431TIP3   OH222707   0.118   4.398   1.667 -0.3203  0.0707  0.0241
  431TIP3    H122708   0.032   4.440   1.675  0.1227  0.8899  0.6222
  431TIP3    H222709   0.147   4.385   1.757  0.5124  0.5122 -0.1685
  432TIP3   OH222710   6.302   6.770   0.864  0.0344  0.1879  0.0256
  432TIP3    H122711   6.334   6.860   0.869 -0.4374  0.3505  0.1495
  432TIP3    H222712   6.333   6.739   0.779  3.3800 -0.7808  1.4466
  433TIP3   OH222713   2.931   3.212  12.041 -0.2307 -0.5613  0.0641
  433TIP3    H122714   2.939   3.128  12.086  0.5042 -0.8192 -0.5274
  433TIP3    H222715   2.873   3.264  12.097  0.5149 -0.9353  1.2143
  434TIP3   OH222716   2.408   5.831  13.248 -0.0849 -0.5104  0.3376
  434TIP3    H122717   2.370   5.917  13.233  0.6155 -0.1735  0.4705
  434TIP3    H222718   2.481   5.846  13.308  2.9743 -0.4458 -3.0278
  435TIP3   OH222719   1.440   3.219  15.290  0.1972  0.4505  0.0877
  435TIP3    H122720   1.491   3.268  15.354  1.4595 -1.4395  0.6050
  435TIP3    H222721   1.494   3.219  15.211 -0.0701  0.4001 -0.0966
  436TIP3   OH222722   4.263   0.520  12.491  0.0792 -0.0820  0.7965
  436TIP3    H122723   4.182   0.524  12.542  0.3204  1.4749  1.1211
  436TIP3    H222724   4.235   0.525  12.400 -0.2278 -0.3734  0.8737
  437TIP3   OH222725   0.753   3.231   4.469 -0.0855 -0.2551  0.1597
  437TIP3    H122726   0.784   3.310   4.513  0.5366  0.3557 -1.3337
  437TIP3    H222727   0.704   3.184   4.537  3.2759 -0.8196  2.4686
  438TIP3   OH222728   5.859   4.149   6.588 -0.4622  0.5150 -0.0016
  438TIP3    H122729   5.944   4.168   6.548 -0.1727 -0.8373 -0.0727
  438TIP3    H222730   5.795   4.175   6.522 -0.1627  2.1735  0.3096
  439TIP3   OH222731   3.635   4.032   1.580 -0.0613 -0.3045  0.7784
  439TIP3    H122732   3.616   4.120   1.613 -0.3660 -0.4935  1.1115
  439TIP3    H222733   3.730   4.025   1.585 -0.1178 -0.4411  1.9253
  440TIP3   OH222734   0.151   1.548  12.349 -0.4455 -0.4595 -0.2448
  440TIP3    H122735   0.235   1.594  12.347 -1.8101  2.4113  1.8429
  440TIP3    H222736   0.090   1.605  12.303 -1.9496 -0.7036  1.3167
  441TIP3   OH222737   0.232   1.533  12.871 -0.0364 -0.2136  0.3303
  441TIP3    H122738   0.203   1.624  12.882  1.1264  0.0640  1.3579
  441TIP3    H222739   0.312   1.527  12.924  0.8156 -1.4058 -1.0348
  442TIP3   OH222740   4.330   5.217   1.749  0.1938  0.1260 -0.1169
  442TIP3    H122741   4.263   5.234   1.683  1.2839 -0.7591 -1.5492
  442TIP3    H222742   4.363   5.303   1.773 -0.2239  0.4695 -0.7457
  443TIP3   OH222743   4.334   6.655  16.449  0.1938 -0.3653  0.2441
  443TIP3    H122744   4.320   6.588  16.381 -1.0712  0.4545 -0.3507
  443TIP3    H222745   4.299   6.616  16.529 -2.7249  0.3744 -0.5564
  444TIP3   OH222746   1.322   2.594   1.352  0.5010 -0.2204 -0.5707
  444TIP3    H122747   1.288   2.665   1.407  3.1393  1.4397 -0.9094
  444TIP3    H222748   1.378   2.543   1.410 -0.0818 -1.0772 -0.7407
  445TIP3   OH222749   5.399   5.140   6.604 -0.5110 -0.1320 -0.1457
  445TIP3    H122750   5.310   5.139   6.569  0.0138 -1.5377 -1.5521
  445TIP3    H222751   5.449   5.192   6.541  0.0106 -0.8797 -0.3699
  446TIP3   OH222752   5.519   4.237  14.852 -0.6948 -0.1464 -0.1456
  446TIP3    H122753   5.615   4.243  14.850 -0.6812 -0.3068 -0.0595
  446TIP3    H222754   5.496   4.252  14.944 -0.5540 -2.6002  0.3864
  447TIP3   OH222755   6.258   1.821  12.746  0.5601  0.5073  0.7932
  447TIP3    H122756   6.351   1.820  12.722  0.5993 -2.0602  0.7407
  447TIP3    H222757   6.252   1.886  12.815  2.0033  2.1301 -0.5002
  448TIP3   OH222758   5.200   0.031  11.730 -0.0113  0.0918 -0.6771
  448TIP3    H122759   5.189   0.009  11.637 -1.0487 -0.8243 -0.3518
  448TIP3    H222760   5.118   0.072  11.755  0.3230  0.4793 -0.1925
  449TIP3   OH222761   2.983   3.571   1.420 -0.1392 -0.4749 -0.0873
  449TIP3    H122762   2.920   3.614   1.479 -1.2040 -0.4849 -1.1825
  449TIP3    H222763   2.937   3.564   1.337  0.9062 -1.5573 -0.5996
  450TIP3   OH222764   4.620   4.315   3.898 -0.2406  0.0306 -0.2299
  450TIP3    H122765   4.644   4.407   3.883 -1.3183  0.5028  0.7385
  450TIP3    H222766   4.524   4.316   3.900 -0.2659 -0.6263  2.3326
  451TIP3   OH222767   2.102   1.051   3.004 -0.0564 -0.2540 -0.3498
  451TIP3    H122768   2.174   1.110   3.027 -1.3918  0.9922  0.8116
  451TIP3    H222769   2.130   0.965   3.036  1.6021 -0.1621 -1.4110
  452TIP3   OH222770   4.519   3.525  12.505  0.6755  0.2138  0.2633
  452TIP3    H122771   4.426   3.506  12.509  0.5746  0.9079  1.9234
  452TIP3    H222772   4.561   3.440  12.492 -0.1552 -0.1354 -0.1867
  453TIP3   OH222773   2.677   4.189   0.515  0.3254  0.0866 -0.2146
  453TIP3    H122774   2.660   4.096   0.528 -2.8718  0.6097  0.0524
  453TIP3    H222775   2.675   4.201   0.420  0.5023 -0.0658 -0.2383
  454TIP3   OH222776   1.934   2.974   2.304  0.6162  0.1205 -0.2123
  454TIP3    H122777   1.899   2.932   2.382 -0.4538 -0.7296 -1.1145
  454TIP3    H222778   2.029   2.974   2.317  0.5020 -0.7070  0.7393
  455TIP3   OH222779   2.218   0.912   1.264  0.1212  0.1536 -0.4870
  455TIP3    H122780   2.199   0.832   1.314  1.7523  1.0678  1.7486
  455TIP3    H222781   2.299   0.893   1.218  0.4516  0.4638 -0.0408
  456TIP3   OH222782   5.445   5.765  11.528  0.0516 -0.1406  0.0046
  456TIP3    H122783   5.530   5.748  11.488 -0.1500 -2.1240  0.2905
  456TIP3    H222784   5.410   5.840  11.480  1.9271  0.6827 -0.1422
  457TIP3   OH222785   0.172   1.890  12.465 -0.3837 -0.0597  0.1388
  457TIP3    H122786   0.108   1.947  12.507 -0.7502 -0.4085  0.0652
  457TIP3    H222787   0.134   1.870  12.379 -0.1688 -0.2498  0.0864
  458TIP3   OH222788   4.664   6.289  15.305  0.4972 -0.2941  0.0201
  458TIP3    H122789   4.653   6.379  15.335  1.1720  0.3284 -1.4679
  458TIP3    H222790   4.755   6.268  15.325  0.4248 -0.5420  0.0955
  459TIP3   OH222791   1.008   6.359   1.981  0.0452  0.1323 -0.2781
  459TIP3    H122792   1.068   6.284   1.974 -1.2599 -0.8821 -1.2769
  459TIP3    H222793   1.044   6.424   1.921  0.6791 -0.0702 -0.1299
  460TIP3   OH222794   1.039   0.339  11.426 -0.2540 -0.5053 -0.4576
  460TIP3    H122795   0.997   0.266  11.380 -3.8988  0.5578  0.8089
  460TIP3    H222796   0.993   0.343  11.510  0.6607  2.4897  0.0015
  461TIP3   OH222797   5.254   5.879   2.316 -0.4609 -0.1511 -0.1251
  461TIP3    H122798   5.343   5.909   2.335 -0.6556  2.5173 -2.7417
  461TIP3    H222799   5.264   5.786   2.298  1.7617 -0.0112  0.0614
  462TIP3   OH222800   0.045   5.209  16.038 -0.2458 -0.2152 -0.1897
  462TIP3    H122801   0.077   5.156  15.965  0.8369  1.0686 -0.6969
  462TIP3    H222802   0.052   5.300  16.007  0.6700  0.4013  1.6493
  463TIP3   OH222803   1.663   3.588  10.759 -0.1351 -0.3805 -0.8441
  463TIP3    H122804   1.570   3.608  10.766  0.0025 -0.3482  1.5579
  463TIP3    H222805   1.668   3.493  10.765  0.0426 -0.3138  0.2800
  464TIP3   OH222806   0.381   0.861   5.261 -0.5258 -0.2079  0.1900
  464TIP3    H122807   0.433   0.847   5.340 -1.3111 -0.2244  0.7113
  464TIP3    H222808   0.300   0.813   5.276 -0.6167 -0.3589 -0.7052
  465TIP3   OH222809   5.071   6.203   5.498  0.0940  0.3627 -0.3432
  465TIP3    H122810   5.058   6.281   5.551 -0.5328  0.9691 -1.3742
  465TIP3    H222811   5.164   6.182   5.509  0.2260  1.1386  0.0807
  466TIP3   OH222812   0.508   5.049   1.334  0.3398 -0.2928 -0.5852
  466TIP3    H122813   0.600   5.030   1.319  0.5060 -0.0102  0.0515
  466TIP3    H222814   0.507   5.102   1.413 -0.3455 -0.0133 -0.7759
  467TIP3   OH222815   4.582   6.238   4.169 -0.0593  0.2603  0.1756
  467TIP3    H122816   4.568   6.164   4.228  0.7719  0.0291  0.0858
  467TIP3    H222817   4.509   6.297   4.188 -0.1836 -0.1286  0.9376
  468TIP3   OH222818   5.301   4.637   0.572  0.5876 -0.1965 -0.5602
  468TIP3    H122819   5.296   4.695   0.496  0.3710 -0.5619 -0.8330
  468TIP3    H222820   5.222   4.655   0.622  0.2413 -0.6416 -0.9349
  469TIP3   OH222821   3.364   4.138  15.237  0.1509 -0.3877 -0.2275
  469TIP3    H122822   3.449   4.098  15.254 -0.2134 -0.2524  2.2279
  469TIP3    H222823   3.376   4.230  15.260 -0.8065 -0.4918  0.7703
  470TIP3   OH222824   0.388   3.697   4.555 -0.2676  0.2332  0.2269
  470TIP3    H122825   0.386   3.626   4.492 -1.2204  0.2074  0.2677
  470TIP3    H222826   0.346   3.661   4.633  1.4286  0.0733  1.1037
  471TIP3   OH222827   0.194   2.313   1.221 -0.1588 -0.2573  0.5457
  471TIP3    H122828   0.177   2.406   1.205 -0.9639 -0.7313 -1.7457
  471TIP3    H222829   0.114   2.269   1.193 -0.3636 -1.6030  2.9573
  472TIP3   OH222830   3.612   0.893   5.290 -0.1341  0.0034  0.0093
  472TIP3    H122831   3.698   0.930   5.312 -0.3989  0.8243 -0.2903
  472TIP3    H222832   3.550   0.949   5.337 -0.4691 -1.1997  1.0487
  473TIP3   OH222833   2.594   4.644   5.235 -0.3491  0.4567  0.8638
  473TIP3    H122834   2.533   4.646   5.309 -0.7439  1.8108  0.5177
  473TIP3    H222835   2.607   4.551   5.218 -2.6013  0.1287  0.7049
  474TIP3   OH222836   4.226   1.412   4.084 -0.2571 -0.2826 -0.5225
  474TIP3    H122837   4.317   1.417   4.114 -0.2074  0.4568 -0.7916
  474TIP3    H222838   4.182   1.360   4.152  0.1439  0.2264  0.1411
  475TIP3   OH222839   1.910   2.111  14.471 -0.3378  0.2472  0.2284
  475TIP3    H122840   1.957   2.057  14.408 -2.3999 -1.4021 -0.0266
  475TIP3    H222841   1.924   2.201  14.441 -0.1984 -0.4170 -1.8478
  476TIP3   OH222842   4.890   4.127   0.713  0.2568 -0.2366 -0.0248
  476TIP3    H122843   4.907   4.069   0.788 -0.0324 -1.6609 -1.0067
  476TIP3    H222844   4.806   4.168   0.732  0.7992  0.4212  1.0145
  477TIP3   OH222845   3.513   2.607  15.146 -0.1263 -0.0583 -0.2484
  477TIP3    H122846   3.508   2.537  15.211  1.3958 -0.9500 -1.0303
  477TIP3    H222847   3.436   2.662  15.163 -0.3356 -0.8618  1.5840
  478TIP3   OH222848   0.639   1.199   5.628 -0.4591 -0.3761 -0.1968
  478TIP3    H122849   0.664   1.147   5.705  2.1159  1.1262  0.1094
  478TIP3    H222850   0.557   1.242   5.653 -0.0148 -0.4210  1.4848
  479TIP3   OH222851   5.553   4.495  13.342  0.3233 -0.4383  0.0809
  479TIP3    H122852   5.535   4.583  13.307 -1.1215 -0.1552  1.4128
  479TIP3    H222853   5.615   4.510  13.413  0.2021 -0.5192  0.2035
  480TIP3   OH222854   3.541   5.550   0.519 -0.2152 -0.0471 -0.4099
  480TIP3    H122855   3.566   5.464   0.553 -1.1195 -0.2463 -0.2118
  480TIP3    H222856   3.469   5.577   0.576  1.9298  2.1846  1.4556
  481TIP3   OH222857   5.041   6.125  14.084  0.2936 -0.2066 -0.1386
  481TIP3    H122858   4.982   6.173  14.026  1.5260 -2.5457 -3.6070
  481TIP3    H222859   4.997   6.041  14.099 -0.4915  0.6583  3.4455
  482TIP3   OH222860   5.650   3.410   5.237  0.2614 -0.0381 -0.4082
  482TIP3    H122861   5.723   3.405   5.298  0.6589  0.3190 -0.8380
  482TIP3    H222862   5.676   3.354   5.164  0.1881  0.2254 -0.6405
  483TIP3   OH222863   0.294   1.149  13.766  0.7068 -0.3349 -0.0383
  483TIP3    H122864   0.300   1.118  13.676 -0.8171 -1.7808  0.3096
  483TIP3    H222865   0.351   1.091  13.816  1.4820  0.4092 -0.0332
  484TIP3   OH222866   4.410   5.619  11.148 -0.4784 -0.1516  0.8124
  484TIP3    H122867   4.325   5.627  11.104  0.7495  1.1867 -1.5304
  484TIP3    H222868   4.428   5.525  11.148 -1.7551 -0.4094  0.9334
  485TIP3   OH222869   4.884   6.040   5.623  0.0726 -0.2586 -0.1750
  485TIP3    H122870   4.927   5.990   5.693 -0.4745 -0.0976  0.2850
  485TIP3    H222871   4.952   6.100   5.592  0.0445  0.3541  0.9004
  486TIP3   OH222872   4.499   2.094  12.128  0.2692 -0.2904 -0.2330
  486TIP3    H122873   4.542   2.009  12.122  1.3032  0.0243  1.7644
  486TIP3    H222874   4.406   2.073  12.137  0.6239 -1.3249  1.5267
  487TIP3   OH222875   5.865   0.538  13.599 -0.3931  0.3996  0.1759
  487TIP3    H122876   5.824   0.624  13.593 -1.4423 -0.0523  0.5489
  487TIP3    H222877   5.953   0.551  13.566 -0.2624  1.7966  0.9894
  488TIP3   OH222878   0.607   1.846   0.643  0.2958 -0.2043 -0.2296
  488TIP3    H122879   0.564   1.930   0.661 -1.8492 -0.8870 -1.7469
  488TIP3    H222880   0.543   1.780   0.667  0.0059 -1.2663 -3.3905
  489TIP3   OH222881   5.852   2.584  13.299 -0.5531 -0.1866  0.0413
  489TIP3    H122882   5.866   2.644  13.226 -2.1315  1.5862  1.0905
  489TIP3    H222883   5.757   2.573  13.302 -0.3382 -2.3601  0.2204
  490TIP3   OH222884   1.538   4.450  15.419  0.3234 -0.3056 -0.7232
  490TIP3    H122885   1.586   4.523  15.380 -1.1012  0.5641 -0.9112
  490TIP3    H222886   1.600   4.412  15.482  0.6881  1.8930  0.3368
  491TIP3   OH222887   6.276   6.613   5.644 -0.1387  0.3650  0.3919
  491TIP3    H122888   6.220   6.632   5.569  0.7739 -0.6679 -0.5773
  491TIP3    H222889   6.215   6.593   5.715 -1.0146  1.7391  0.0541
  492TIP3   OH222890   3.447   3.864   0.074 -0.4885  0.4782  0.5651
  492TIP3    H122891   3.426   3.806   0.147  2.9345 -1.0734  0.5327
  492TIP3    H222892   3.497   3.935   0.114  0.9057 -0.0799 -0.1164
  493TIP3   OH222893   1.279   1.771   3.452 -0.6263 -0.0599 -0.0497
  493TIP3    H122894   1.199   1.779   3.505 -0.2157 -1.4550  0.8350
  493TIP3    H222895   1.248   1.781   3.362 -1.6690  0.2886  0.3260
  494TIP3   OH222896   3.927   4.195  10.957  0.2881 -0.2496 -0.1959
  494TIP3    H122897   3.979   4.268  10.922 -0.3873  0.5805  0.4879
  494TIP3    H222898   3.852   4.191  10.898  0.5321 -0.6802 -0.4826
  495TIP3   OH222899   4.451   6.008  14.255 -0.0998  0.2926  0.0430
  495TIP3    H122900   4.400   5.938  14.213 -0.3890  0.7128 -0.3115
  495TIP3    H222901   4.529   6.016  14.200  0.8207 -0.9662  1.0801
  496TIP3   OH222902   2.840   1.034   1.264 -0.2022  0.0449  1.0754
  496TIP3    H122903   2.753   1.012   1.295 -1.0422  0.3403 -0.9360
  496TIP3    H222904   2.884   0.950   1.254 -1.2195 -0.3487 -0.4723
  497TIP3   OH222905   5.479   6.513   3.124 -0.1935  0.6837 -0.4422
  497TIP3    H122906   5.393   6.532   3.160 -0.2589 -0.6285  0.1267
  497TIP3    H222907   5.474   6.422   3.094  1.2237  0.3181  0.3191
  498TIP3   OH222908   6.750   1.656  12.663  0.0145  0.1409  0.0914
  498TIP3    H122909   6.792   1.571  12.670  2.6280  1.2441 -0.8566
  498TIP3    H222910   6.817   1.718  12.692 -2.2819  1.8443  2.1872
  499TIP3   OH222911   6.637   0.630  13.566  0.4903 -0.5740  0.1998
  499TIP3    H122912   6.717   0.679  13.548  0.0277 -0.0181 -0.4055
  499TIP3    H222913   6.645   0.604  13.657  0.1407  1.8570  1.0117
  500TIP3   OH222914   2.675   5.288  12.735  0.1732 -0.0612  0.0491
  500TIP3    H122915   2.619   5.227  12.687 -1.7774  0.9445  0.9154
  500TIP3    H222916   2.643   5.282  12.826  0.0096  2.1001  0.1770
  501TIP3   OH222917   2.996   0.649   0.898 -0.4244  1.1510  0.0947
  501TIP3    H122918   2.979   0.630   0.806  1.8320 -1.4563  0.0902
  501TIP3    H222919   3.092   0.645   0.906 -0.6237 -0.1095  2.7780
  502TIP3   OH222920   1.228   5.854  11.862 -0.4578 -0.3522 -0.5216
  502TIP3    H122921   1.243   5.775  11.914 -0.0848  0.7221  1.0661
  502TIP3    H222922   1.310   5.867  11.813 -1.0901 -1.8042 -2.0514
  503TIP3   OH222923   5.958   3.674   2.733  0.1705  0.2591  0.1851
  503TIP3    H122924   5.974   3.598   2.789 -0.3270 -0.1024 -0.1563
  503TIP3    H222925   5.923   3.637   2.652  1.8873  0.6780 -0.8021
  504TIP3   OH222926   3.642   2.732   2.611 -0.1440 -0.1059 -0.2221
  504TIP3    H122927   3.691   2.776   2.680 -1.6826  0.3812  0.6037
  504TIP3    H222928   3.576   2.796   2.584 -1.2173 -1.2284 -0.3348
  505TIP3   OH222929   2.008   4.103  14.301 -0.0519  0.5153 -0.1575
  505TIP3    H122930   1.968   4.128  14.384 -0.3855 -0.1555 -0.1033
  505TIP3    H222931   2.031   4.186  14.259 -1.9947  0.9707 -0.4287
  506TIP3   OH222932   3.680   1.325   0.813  0.3690 -0.3863 -0.8110
  506TIP3    H122933   3.672   1.324   0.909 -1.0128 -1.8028 -0.8981
  506TIP3    H222934   3.687   1.233   0.789 -1.1642 -0.1884 -2.1774
  507TIP3   OH222935   5.336   1.340   3.421 -0.5661  0.0791  0.1572
  507TIP3    H122936   5.330   1.349   3.326 -0.5112  1.4236  0.2693
  507TIP3    H222937   5.401   1.406   3.448  0.0038 -0.8017  1.0536
  508TIP3   OH222938   4.959   2.812   2.880  0.3386 -0.0725  0.0881
  508TIP3    H122939   4.965   2.836   2.787  1.0542 -1.6135 -0.3002
  508TIP3    H222940   4.980   2.719   2.881 -0.5610 -0.2791  1.7058
  509TIP3   OH222941   4.236   4.940  15.295  0.3622 -0.2688  0.0772
  509TIP3    H122942   4.241   4.990  15.377 -1.2336 -0.0744  0.0849
  509TIP3    H222943   4.259   4.851  15.321 -0.6585 -0.3226  0.8642
  510TIP3   OH222944   3.526   0.130  11.021 -0.4664 -0.2101  0.2556
  510TIP3    H122945   3.593   0.086  10.969 -1.5745  0.3819 -1.8136
  510TIP3    H222946   3.574   0.195  11.072  0.6981 -0.8477  0.0072
  511TIP3   OH222947   0.621   0.570  15.230 -0.2176 -0.2715  0.6805
  511TIP3    H122948   0.615   0.627  15.307  0.3741  0.9437 -0.1384
  511TIP3    H222949   0.558   0.500  15.247 -4.2792  2.8232 -0.1221
  512TIP3   OH222950   5.213   3.118  15.979  0.2014  0.1637  0.2538
  512TIP3    H122951   5.177   3.030  15.972 -0.7890  0.7034 -3.3086
  512TIP3    H222952   5.149   3.167  16.031 -0.6759 -0.5544 -0.1350
  513TIP3   OH222953   5.025   2.236  13.670  0.5774  0.5813  0.3277
  513TIP3    H122954   4.978   2.319  13.671 -0.4830  0.1494 -3.0828
  513TIP3    H222955   5.089   2.245  13.600  0.1155 -1.6075 -0.4538
  514TIP3   OH222956   0.080   0.171  11.549 -0.3583  0.2341  0.5751
  514TIP3    H122957  -0.014   0.152  11.546 -0.0160 -1.5920 -2.0626
  514TIP3    H222958   0.088   0.259  11.511 -0.9144 -0.3439 -0.9698
  515TIP3   OH222959   0.178   4.246   6.304  0.0490  0.2444 -0.0956
  515TIP3    H122960   0.129   4.227   6.384 -0.8910 -1.9872 -1.1117
  515TIP3    H222961   0.121   4.304   6.254  0.3890  1.1761  0.5633
  516TIP3   OH222962   6.743   3.903  12.795  0.4748  0.1445  0.1008
  516TIP3    H122963   6.702   3.821  12.822 -2.9666  1.7831  0.4818
  516TIP3    H222964   6.748   3.898  12.700 -2.0980  0.3461 -0.1245
  517TIP3   OH222965   1.045   2.981   4.448 -0.4532  0.0070 -0.4676
  517TIP3    H122966   1.030   2.966   4.355 -0.3366  0.0297 -0.4904
  517TIP3    H222967   1.137   3.008   4.453 -0.9932  1.9940 -0.5861
  518TIP3   OH222968   4.521   0.833   2.683 -0.3998  0.4318 -0.0515
  518TIP3    H122969   4.560   0.804   2.601  1.2685 -0.1618  0.9157
  518TIP3    H222970   4.432   0.861   2.659  0.0700  0.3171 -2.0404
  519TIP3   OH222971   1.304   2.719   5.091 -0.0855 -0.1270  0.0293
  519TIP3    H122972   1.362   2.645   5.075 -0.8376 -1.1775  1.8766
  519TIP3    H222973   1.275   2.708   5.181 -0.6198  2.1631  0.2128
  520TIP3   OH222974   4.173   3.864   4.110 -0.0755  0.5402  0.4961
  520TIP3    H122975   4.228   3.817   4.047  0.0758  0.6353  0.5551
  520TIP3    H222976   4.144   3.942   4.062 -0.3875  0.3499  0.3739
  521TIP3   OH222977   2.310   1.566  12.095  0.1640 -0.6917  0.3452
  521TIP3    H122978   2.391   1.594  12.052 -0.1567 -0.6789 -0.2628
  521TIP3    H222979   2.339   1.524  12.176  0.7257  0.2119  0.6273
  522TIP3   OH222980   3.797   6.084  11.851 -0.1983  0.1058 -0.0107
  522TIP3    H122981   3.771   6.038  11.931  0.7489  0.0856  0.2932
  522TIP3    H222982   3.879   6.128  11.873  0.8008 -0.9800 -1.3261
  523TIP3   OH222983   6.186   2.319  11.791  0.4366 -0.1535 -0.0696
  523TIP3    H122984   6.107   2.333  11.843  0.6064 -0.0008  0.1499
  523TIP3    H222985   6.247   2.386  11.821  1.0278 -0.9311  0.5220
  524TIP3   OH222986   3.551   4.082  11.896  0.3980 -0.4278  0.3645
  524TIP3    H122987   3.523   4.131  11.819  2.8504  1.0341  0.2949
  524TIP3    H222988   3.474   4.079  11.952 -1.3150 -1.1073 -1.8842
  525TIP3   OH222989   5.257   2.596   0.839 -0.2014  0.3380  0.2261
  525TIP3    H122990   5.197   2.577   0.911  0.2946  2.5522  1.2818
  525TIP3    H222991   5.221   2.547   0.765 -1.5671 -0.8111  1.5799
  526TIP3   OH222992   1.490   2.410  16.685 -0.0447  0.1162 -0.0298
  526TIP3    H122993   1.520   2.430  16.596  2.1546  1.1618  0.8588
  526TIP3    H222994   1.556   2.450  16.741 -0.4278 -2.0127  2.0763
  527TIP3   OH222995   1.527   3.553  15.064 -0.0283 -0.3108  0.1954
  527TIP3    H122996   1.594   3.558  15.133 -1.6850 -1.6252  2.0283
  527TIP3    H222997   1.572   3.514  14.989  1.9131  1.4085  0.3632
  528TIP3   OH222998   6.421   6.244   1.890 -0.4834  0.1695 -0.2859
  528TIP3    H122999   6.513   6.244   1.865 -0.3051 -0.1495  0.3765
  528TIP3    H223000   6.378   6.296   1.821  0.4287  1.7688  0.3071
  529TIP3   OH223001   0.360   4.213   2.910 -0.4229 -0.4178  0.2631
  529TIP3    H123002   0.352   4.177   2.822 -2.4924  2.2842 -0.8116
  529TIP3    H223003   0.401   4.299   2.898 -1.9123  0.5617  1.7179
  530TIP3   OH223004   3.402   2.614   1.680  0.3697  0.4662 -0.1203
  530TIP3    H123005   3.378   2.673   1.752  1.2441  1.7779 -0.8593
  530TIP3    H223006   3.330   2.552   1.675 -0.0418  0.7751  1.4345
  531TIP3   OH223007   1.147   2.104   5.018 -0.3841 -0.3163  0.1132
  531TIP3    H123008   1.208   2.104   5.092 -1.1217 -0.2517  0.7377
  531TIP3    H223009   1.103   2.019   5.023  0.0836 -0.6128 -0.6999
  532TIP3   OH223010   5.686   2.216   1.516  0.1322  0.5668  0.1455
  532TIP3    H123011   5.641   2.138   1.483 -0.3704  0.4704  1.0092
  532TIP3    H223012   5.616   2.278   1.534  0.4772  0.9782  0.0752
  533TIP3   OH223013   1.580   2.780   1.424  0.2233  0.5315  0.3224
  533TIP3    H123014   1.550   2.802   1.336 -0.6714  0.0724  0.5059
  533TIP3    H223015   1.663   2.828   1.433  0.2493  0.7127 -0.7020
  534TIP3   OH223016   2.773   2.261  13.229  0.4994  0.3839  0.1121
  534TIP3    H123017   2.758   2.166  13.222  1.2021  0.1696  1.2694
  534TIP3    H223018   2.769   2.292  13.138  0.4794 -0.7933 -0.3105
  535TIP3   OH223019   3.431   5.824   1.504  0.1273 -0.4306 -0.4222
  535TIP3    H123020   3.361   5.781   1.553 -0.9260  1.0301 -0.5644
  535TIP3    H223021   3.390   5.850   1.421  1.5406 -1.7714 -1.6135
  536TIP3   OH223022   5.285   4.274  10.929  0.4871 -0.1338 -0.3371
  536TIP3    H123023   5.252   4.338  10.992  0.4000 -1.0387  0.5616
  536TIP3    H223024   5.212   4.213  10.917  0.5473 -0.0500 -1.2364
  537TIP3   OH223025   4.176   2.270   0.742 -0.1610  0.5725  0.5886
  537TIP3    H123026   4.252   2.212   0.750 -0.7046 -0.3389 -0.5933
  537TIP3    H223027   4.198   2.328   0.669 -1.2088 -0.7065 -0.7867
  538TIP3   OH223028   2.889   2.659  16.882  0.0917 -0.5666  0.3894
  538TIP3    H123029   2.974   2.699  16.864 -0.3411 -0.0927 -0.6595
  538TIP3    H223030   2.865   2.615  16.801 -0.7438 -0.5393  0.6119
  539TIP3   OH223031   4.214   4.409  16.112  0.3358  0.3451  0.5949
  539TIP3    H123032   4.259   4.431  16.194  1.3387  0.6509 -0.0079
  539TIP3    H223033   4.169   4.327  16.129  0.5575  0.3989  1.4481
  540TIP3   OH223034   3.152   1.651  12.692  0.1813  0.4774 -0.2570
  540TIP3    H123035   3.155   1.555  12.701  1.3863  0.3614 -1.6202
  540TIP3    H223036   3.240   1.675  12.663  0.0359  2.0737  0.5379
  541TIP3   OH223037   6.731   1.112   2.415  0.0638  0.1757  0.4599
  541TIP3    H123038   6.705   1.022   2.435 -0.6780  0.6117  1.5589
  541TIP3    H223039   6.680   1.134   2.337 -1.0636  0.1959  1.1789
  542TIP3   OH223040   5.994   3.133   5.113  0.4246  0.1299 -0.1720
  542TIP3    H123041   6.051   3.078   5.059 -0.2559 -0.3490 -0.4085
  542TIP3    H223042   6.017   3.223   5.089  0.7248 -0.0691 -0.6304
  543TIP3   OH223043   1.843   3.088   5.551 -0.5275 -0.5762 -0.1818
  543TIP3    H123044   1.903   3.099   5.624  0.0373 -1.5822 -0.4750
  543TIP3    H223045   1.792   3.169   5.549  1.2791  0.6118 -0.3622
  544TIP3   OH223046   1.816   3.253   1.707 -0.3292 -0.3286  0.0434
  544TIP3    H123047   1.843   3.280   1.794 -0.4308 -2.2433  0.7301
  544TIP3    H223048   1.879   3.184   1.682 -0.5652 -0.1270 -1.2035
  545TIP3   OH223049   6.570   3.950  11.784  0.4415  0.3256 -0.4571
  545TIP3    H123050   6.514   3.882  11.822 -0.2513  1.4255  0.5464
  545TIP3    H223051   6.520   3.984  11.710  0.0898  0.8137  0.0006
  546TIP3   OH223052   6.604   4.074  16.354  0.1683  0.1830  0.0785
  546TIP3    H123053   6.662   4.150  16.349  1.9862 -1.0735  0.9157
  546TIP3    H223054   6.630   4.019  16.281 -1.5026  0.5421 -0.8465
  547TIP3   OH223055   0.215   3.305   2.545 -0.2412  0.9800 -0.3361
  547TIP3    H123056   0.133   3.354   2.547 -0.1578  1.2255  3.1022
  547TIP3    H223057   0.193   3.221   2.584  0.4148 -0.4827 -2.8910
  548TIP3   OH223058   0.097   1.600  14.931 -0.6712 -0.4241 -0.4005
  548TIP3    H123059   0.141   1.529  14.882  0.4757 -0.4041  0.5577
  548TIP3    H223060   0.065   1.557  15.010 -0.7425 -0.0466 -0.2264
  549TIP3   OH223061   4.989   2.876   2.606  0.0371 -0.0163 -0.3208
  549TIP3    H123062   4.931   2.951   2.597  0.1925 -0.0061 -1.3789
  549TIP3    H223063   4.945   2.805   2.558 -0.4204 -0.7974  1.1956
  550TIP3   OH223064   6.401   6.595  14.582 -0.0942 -0.0256 -0.0380
  550TIP3    H123065   6.474   6.657  14.574 -0.6494  0.6318 -0.0347
  550TIP3    H223066   6.422   6.525  14.520  2.0005 -1.3359  1.9636
  551TIP3   OH223067   1.031   4.218  10.908 -0.5203 -0.3888 -0.5542
  551TIP3    H123068   1.029   4.152  10.977 -0.0539 -0.1763 -0.3302
  551TIP3    H223069   1.002   4.171  10.829  0.4346 -1.0436 -0.5344
  552TIP3   OH223070   2.457   5.606  13.620 -0.1331 -0.2442  0.1928
  552TIP3    H123071   2.485   5.522  13.585  0.9028  0.0860  0.1801
  552TIP3    H223072   2.368   5.618  13.586  0.5828 -0.2451 -1.8018
  553TIP3   OH223073   5.430   5.045  16.282  0.4016  0.3233 -0.1938
  553TIP3    H123074   5.401   5.043  16.190  0.6911  1.4862 -0.3223
  553TIP3    H223075   5.496   4.976  16.287 -1.6135 -1.7293 -0.1318
  554TIP3   OH223076   2.868   2.100   1.342  0.3558 -0.4434  0.7732
  554TIP3    H123077   2.855   2.046   1.264  2.0425  0.2766 -0.0500
  554TIP3    H223078   2.872   2.189   1.309 -0.4735  0.0215  1.8897
  555TIP3   OH223079   4.389   3.814  11.262 -0.1531  0.1631  0.1947
  555TIP3    H123080   4.309   3.860  11.289 -0.6763 -1.1897  1.0293
  555TIP3    H223081   4.362   3.763  11.186  0.0796  0.1507  0.1196
  556TIP3   OH223082   1.340   3.957  16.343 -0.0352 -0.0709  0.3234
  556TIP3    H123083   1.425   4.001  16.341  1.4440 -2.6309  1.5822
  556TIP3    H223084   1.290   4.005  16.409  0.7348  0.9425  0.1919
  557TIP3   OH223085   1.966   4.032  12.595  0.1008 -0.6852 -0.9111
  557TIP3    H123086   1.973   4.120  12.558 -0.6541 -0.9918 -1.8474
  557TIP3    H223087   1.902   4.040  12.666  0.3413 -0.3979 -0.7285
  558TIP3   OH223088   1.377   5.603  14.794 -0.3407 -0.2780 -0.5083
  558TIP3    H123089   1.424   5.550  14.729 -0.6640 -0.0486 -0.9331
  558TIP3    H223090   1.344   5.678  14.744  0.7315  0.7120  0.2220
  559TIP3   OH223091   5.453   6.731   5.377  0.0327 -0.1923 -0.5217
  559TIP3    H123092   5.498   6.811   5.406 -0.1418 -0.6137  0.9522
  559TIP3    H223093   5.501   6.704   5.298 -0.4525  1.8430 -1.5855
  560TIP3   OH223094   3.115   6.447   0.786 -0.2713 -0.1154  0.0192
  560TIP3    H123095   3.054   6.492   0.727  0.5545 -1.2416 -1.7562
  560TIP3    H223096   3.196   6.498   0.780 -0.3576  0.1004  0.6505
  561TIP3   OH223097   6.111   0.306  12.735 -0.6548 -0.0906 -0.6041
  561TIP3    H123098   6.123   0.340  12.824  0.8981 -2.0423  0.0298
  561TIP3    H223099   6.017   0.291  12.727 -0.6731 -1.5523  1.4567
  562TIP3   OH223100   4.774   0.189   4.664  0.1402 -0.6747 -0.1271
  562TIP3    H123101   4.861   0.211   4.698  0.3684 -1.4420 -0.2069
  562TIP3    H223102   4.714   0.234   4.723  0.5906  1.5491 -1.2309
  563TIP3   OH223103   4.318   6.021  11.677  0.2638 -0.6973 -0.1127
  563TIP3    H123104   4.259   6.088  11.710  1.2705 -1.2362  3.1739
  563TIP3    H223105   4.294   5.942  11.726  0.8303 -2.0755 -1.9588
  564TIP3   OH223106   6.251   5.241   5.220  0.1246  0.3741  0.3110
  564TIP3    H123107   6.310   5.265   5.149  0.4931 -1.1395  0.0563
  564TIP3    H223108   6.164   5.244   5.182  0.3435 -0.7558 -0.3387
  565TIP3   OH223109   4.759   4.843   3.832 -0.3682 -0.1287  0.2190
  565TIP3    H123110   4.816   4.785   3.882  2.2587  0.8594 -1.4594
  565TIP3    H223111   4.810   4.922   3.819 -1.1114 -0.0657 -3.4118
  566TIP3   OH223112   2.041   1.327  12.588 -1.2742 -0.3073  0.1465
  566TIP3    H123113   2.081   1.343  12.503  0.8737  0.5533  1.2491
  566TIP3    H223114   1.987   1.405  12.604 -0.8967 -0.0078 -0.0155
  567TIP3   OH223115   1.377   4.131  15.549  0.0019  0.6656  0.3827
  567TIP3    H123116   1.464   4.098  15.529 -0.1019 -0.4263  1.5459
  567TIP3    H223117   1.349   4.178  15.471  1.0662 -0.1855 -0.5313
  568TIP3   OH223118   2.063   6.021  10.326  0.3929 -0.0751 -0.4477
  568TIP3    H123119   2.154   6.020  10.355 -0.0808 -1.5512  1.1575
  568TIP3    H223120   2.051   5.937  10.281 -0.5211 -0.5752  0.6616
  569TIP3   OH223121   6.176   2.378   5.861 -0.2086  0.0239  0.1523
  569TIP3    H123122   6.125   2.430   5.923  0.7935  0.6043  0.5059
  569TIP3    H223123   6.212   2.441   5.799  0.5886 -0.2911  0.2767
  570TIP3   OH223124   5.351   0.742  15.452  0.6284  0.2595 -0.6366
  570TIP3    H123125   5.362   0.796  15.531 -3.4069 -0.3969  0.5976
  570TIP3    H223126   5.419   0.675  15.460  2.8791  2.4691  0.1023
  571TIP3   OH223127   2.353   6.342  16.279  0.0554  0.0792  0.8633
  571TIP3    H123128   2.268   6.309  16.251  0.3909  0.3769 -0.5975
  571TIP3    H223129   2.335   6.429  16.315 -0.3029  0.0277  0.8072
  572TIP3   OH223130   0.680   3.108  12.304  0.0718 -0.0701 -0.9173
  572TIP3    H123131   0.663   3.111  12.210 -0.1435  1.1583 -0.8473
  572TIP3    H223132   0.765   3.065  12.312 -0.7506 -1.9153 -1.5420
  573TIP3   OH223133   2.324   2.126   6.008  0.0197 -0.2418 -0.4671
  573TIP3    H123134   2.318   2.220   6.024  2.0073 -0.2034  0.3567
  573TIP3    H223135   2.386   2.118   5.935 -0.4791 -0.9026 -0.8310
  574TIP3   OH223136   0.881   1.392   0.556  0.0179 -0.1538  0.7928
  574TIP3    H123137   0.819   1.452   0.514  0.2287  0.3419  1.1631
  574TIP3    H223138   0.939   1.450   0.606  1.7318 -0.4661 -0.7316
  575TIP3   OH223139   0.629   6.064   2.474  0.2038  0.1039 -0.2072
  575TIP3    H123140   0.621   6.153   2.509 -3.6338 -0.5195  0.9832
  575TIP3    H223141   0.702   6.026   2.522  0.8267  2.0834  0.5108
  576TIP3   OH223142   5.171   1.926   0.863 -0.4121 -0.2314  0.1570
  576TIP3    H123143   5.116   1.876   0.803  1.6341 -0.9319 -1.2441
  576TIP3    H223144   5.246   1.953   0.810  0.4702  0.9299  1.9034
  577TIP3   OH223145   0.035   3.296  16.060 -0.0469  0.3154 -0.4031
  577TIP3    H123146   0.030   3.345  15.978 -0.9028 -0.3966 -0.8037
  577TIP3    H223147  -0.057   3.287  16.087  0.2760  1.4979  1.2378
  578TIP3   OH223148   5.080   5.937   5.848  0.4925 -0.2159  0.2549
  578TIP3    H123149   5.130   5.989   5.911 -0.1157  0.0384  0.5352
  578TIP3    H223150   5.145   5.879   5.809  1.2586  0.9873 -0.3214
  579TIP3   OH223151   3.811   5.192   2.115 -0.6562  0.2770  0.1922
  579TIP3    H123152   3.787   5.225   2.028  1.7560  0.5683 -0.4554
  579TIP3    H223153   3.869   5.118   2.097  0.0793  0.4931  1.5322
  580TIP3   OH223154   3.919   4.556   6.385  0.6639  0.4967  0.1360
  580TIP3    H123155   3.859   4.569   6.311  1.9625 -1.4492 -1.3555
  580TIP3    H223156   3.864   4.518   6.454 -0.1429  0.2801 -0.6020
  581TIP3   OH223157   0.824   6.721   1.079  0.0887 -0.2271 -0.2645
  581TIP3    H123158   0.882   6.728   1.155 -0.1466  0.1953 -0.1225
  581TIP3    H223159   0.736   6.732   1.115 -0.0819 -0.8845 -0.4779
  582TIP3   OH223160   6.269   6.515  15.654  0.2484 -0.0359 -0.0730
  582TIP3    H123161   6.209   6.558  15.594 -2.0117 -1.9072  0.6778
  582TIP3    H223162   6.328   6.465  15.597  0.7902  1.3753 -0.8050
  583TIP3   OH223163   2.555   1.763  16.569  0.6168  1.0246 -0.7599
  583TIP3    H123164   2.508   1.753  16.487  0.5038  0.3355 -0.6147
  583TIP3    H223165   2.553   1.677  16.609  2.4833  0.8255 -1.0013
  584TIP3   OH223166   5.213   5.680  14.886 -0.7808  0.1556  0.2905
  584TIP3    H123167   5.254   5.746  14.829 -1.4271  1.0732  0.8589
  584TIP3    H223168   5.158   5.628  14.827 -0.3732  0.2073 -0.1444
  585TIP3   OH223169   5.390   4.629   1.937 -0.0100  0.0403  0.3739
  585TIP3    H123170   5.472   4.635   1.888 -1.4476 -0.5772 -2.3074
  585TIP3    H223171   5.373   4.719   1.967  1.0156  0.4153 -0.1397
  586TIP3   OH223172   2.212   3.617   2.602  0.2765 -0.4462  0.2468
  586TIP3    H123173   2.299   3.623   2.562  1.1557  0.3180  2.1334
  586TIP3    H223174   2.180   3.707   2.604 -0.7836 -0.7782 -0.8326
  587TIP3   OH223175   1.123   4.749   6.058  0.2303  0.3122  0.1742
  587TIP3    H123176   1.054   4.688   6.032  0.2482 -0.5565  2.0082
  587TIP3    H223177   1.195   4.693   6.088  1.4155  1.2119 -0.8807
  588TIP3   OH223178   6.622   3.437   4.511  0.3838  0.5634  0.4261
  588TIP3    H123179   6.692   3.484   4.467  0.7666 -1.1867 -0.9450
  588TIP3    H223180   6.639   3.345   4.493 -1.1671 -0.0446  1.7413
  589TIP3   OH223181   2.932   3.063   1.117  0.3731  0.1926  0.3553
  589TIP3    H123182   2.883   3.121   1.060  0.3616  1.2953  1.4511
  589TIP3    H223183   2.884   2.980   1.115 -0.5141  0.7141  0.0214
  590TIP3   OH223184   1.125   4.348   2.587 -0.4711  0.0340  0.5236
  590TIP3    H123185   1.189   4.277   2.581 -0.3239  0.2631 -0.8616
  590TIP3    H223186   1.118   4.366   2.681  1.2060 -0.2400  0.7282
  591TIP3   OH223187   0.062   1.617  11.711 -0.0813  0.2689  0.4777
  591TIP3    H123188   0.008   1.696  11.707 -0.3624  0.0664  0.1891
  591TIP3    H223189   0.012   1.552  11.661  1.2462  0.5641 -1.3329
  592TIP3   OH223190   0.760   1.737   1.362  0.4156  0.3712 -0.3959
  592TIP3    H123191   0.752   1.726   1.457  0.1123 -0.2127 -0.4821
  592TIP3    H223192   0.836   1.794   1.350  1.3741 -0.7407  0.1536
  593TIP3   OH223193   2.140   0.813  11.179 -0.0442  0.1269 -0.5523
  593TIP3    H123194   2.108   0.770  11.100  0.1151 -1.6105  0.2628
  593TIP3    H223195   2.158   0.740  11.239 -0.1512  1.3983  1.0734
  594TIP3   OH223196   3.186   1.239   4.699  0.5873  0.2968  0.0621
  594TIP3    H123197   3.096   1.246   4.732  0.8913  1.5789  0.6925
  594TIP3    H223198   3.197   1.146   4.681 -0.9990  0.1635 -0.4231
  595TIP3   OH223199   0.411   6.751  15.609  0.0928  0.1235  0.1450
  595TIP3    H123200   0.370   6.834  15.582 -0.3288 -0.4906 -1.1838
  595TIP3    H223201   0.348   6.684  15.584  1.8057 -0.8454 -1.8223
  596TIP3   OH223202   1.272   1.202   2.362 -0.1385  0.0916 -0.2084
  596TIP3    H123203   1.187   1.159   2.351  0.6414 -1.6319  0.1638
  596TIP3    H223204   1.279   1.260   2.287 -0.9302 -0.9985 -1.1678
  597TIP3   OH223205   4.929   1.016  11.545 -0.4792  0.7951 -0.1576
  597TIP3    H123206   5.005   1.044  11.597 -0.8689 -0.2941  1.0745
  597TIP3    H223207   4.939   0.921  11.537  0.6043  1.0693 -3.8743
  598TIP3   OH223208   1.617   6.696  14.969 -0.1032 -0.2944 -0.1395
  598TIP3    H123209   1.609   6.635  15.042 -0.4628 -0.4546 -0.3102
  598TIP3    H223210   1.528   6.725  14.953  0.0766  0.3504 -0.0006
  599TIP3   OH223211   4.166   2.979   1.396  0.1606 -0.1083 -0.1805
  599TIP3    H123212   4.258   2.999   1.376  0.7061 -0.3859  1.8580
  599TIP3    H223213   4.118   3.012   1.320  1.9112  0.2814 -1.1818
  600TIP3   OH223214   1.708   4.507   4.786 -0.2111 -0.2920  0.6144
  600TIP3    H123215   1.716   4.418   4.752 -0.0179  0.3051 -0.9544
  600TIP3    H223216   1.693   4.562   4.709 -0.2018  1.0575  1.5342
  601TIP3   OH223217   4.454   4.494  11.325  0.1782  0.1211 -0.0899
  601TIP3    H123218   4.462   4.489  11.230  0.6244  1.5533 -0.1498
  601TIP3    H223219   4.468   4.404  11.355 -1.2757 -0.6020 -1.4371
  602TIP3   OH223220   6.005   4.674   0.131  0.4522 -0.1646  0.4063
  602TIP3    H123221   5.914   4.689   0.157  0.0834 -0.4128 -0.7109
  602TIP3    H223222   6.024   4.741   0.066  0.9507 -0.3550  0.3456
  603TIP3   OH223223   3.742   3.068  15.322  0.1568  0.3673 -0.6059
  603TIP3    H123224   3.733   2.988  15.270 -0.6926 -0.6716  1.0204
  603TIP3    H223225   3.679   3.129  15.284 -2.1154 -1.1452  0.4652
  604TIP3   OH223226   2.443   5.888   1.573 -0.4801 -0.1530  0.6133
  604TIP3    H123227   2.450   5.910   1.481 -0.3945  2.7576  1.2130
  604TIP3    H223228   2.461   5.794   1.578  2.8449  0.2140 -1.9248
  605TIP3   OH223229   2.471   2.718  13.223 -0.4947  0.0851  0.4873
  605TIP3    H123230   2.476   2.686  13.133 -0.2772  0.3328  0.4110
  605TIP3    H223231   2.527   2.658  13.273 -1.8983 -1.0782  0.7632
  606TIP3   OH223232   4.826   0.199   0.581  0.2209  0.4107  0.2920
  606TIP3    H123233   4.918   0.174   0.580  1.0925  3.3364  0.1709
  606TIP3    H223234   4.810   0.231   0.670 -0.7088 -0.0525  0.3100
  607TIP3   OH223235   1.878   2.919  12.114  0.1052 -0.3493 -0.4695
  607TIP3    H123236   1.958   2.914  12.168 -0.5645  0.8593  0.7011
  607TIP3    H223237   1.808   2.895  12.175 -0.6113  0.4529 -0.9629
  608TIP3   OH223238   6.050   1.032   0.086  0.5505 -0.2068 -0.7829
  608TIP3    H123239   6.086   1.019  -0.001  2.2176  0.1366 -0.1843
  608TIP3    H223240   5.956   1.015   0.076  0.8069 -0.8283 -2.4830
  609TIP3   OH223241   2.156   2.672  16.475  0.4966  0.3761  0.1449
  609TIP3    H123242   2.093   2.671  16.548  0.9878  1.1685  0.6040
  609TIP3    H223243   2.213   2.597  16.492  0.5489  0.4976  0.5359
  610TIP3   OH223244   6.202   4.582   3.876 -0.2008 -0.0303  0.5015
  610TIP3    H123245   6.162   4.558   3.960  1.1321 -2.0765  0.6120
  610TIP3    H223246   6.289   4.541   3.878  0.5826  1.4281 -1.1335
  611TIP3   OH223247   5.487   5.803   1.999  0.2287  0.1861 -0.1783
  611TIP3    H123248   5.398   5.816   2.030 -0.2324  2.7763 -2.2532
  611TIP3    H223249   5.477   5.764   1.912  1.3858 -3.5472  1.1297
  612TIP3   OH223250   3.807   0.538   2.830 -0.3231  0.3617 -0.3724
  612TIP3    H123251   3.726   0.491   2.811 -0.1407  0.5109 -1.6122
  612TIP3    H223252   3.859   0.530   2.750  1.1504 -0.2529  0.5815
  613TIP3   OH223253   2.755   1.712   1.968  0.0690  0.4994 -0.4201
  613TIP3    H123254   2.670   1.678   1.940 -0.5366  1.2205  0.4783
  613TIP3    H223255   2.744   1.730   2.061  0.9886  1.2627 -0.4393
  614TIP3   OH223256   1.717   2.346  13.127  0.5085 -0.1619 -0.2313
  614TIP3    H123257   1.773   2.415  13.092 -0.9264  0.3483 -1.6254
  614TIP3    H223258   1.698   2.375  13.217  1.7450  0.0744 -0.0241
  615TIP3   OH223259   3.512   2.476  11.830  0.3018 -0.2132 -0.2688
  615TIP3    H123260   3.488   2.556  11.876  2.1611  0.0255  0.3951
  615TIP3    H223261   3.600   2.494  11.797  0.3011 -1.5871 -1.0659
  616TIP3   OH223262   2.694   4.423  15.672  0.0345 -0.1579  0.2835
  616TIP3    H123263   2.679   4.496  15.613 -0.8280  0.1429  0.8511
  616TIP3    H223264   2.780   4.441  15.711  0.2702  0.0269 -0.3090
  617TIP3   OH223265   2.989   5.120  14.529  0.1982 -0.4600 -0.2250
  617TIP3    H123266   2.902   5.159  14.517  0.1270 -0.0620  1.4047
  617TIP3    H223267   2.973   5.040  14.579  0.6723 -0.9994 -0.9068
  618TIP3   OH223268   0.061   3.347  11.341 -0.5155  0.0683  0.2920
  618TIP3    H123269   0.141   3.295  11.346 -1.1519 -0.8635  1.4351
  618TIP3    H223270   0.091   3.435  11.321  1.0043  0.1733  2.6222
  619TIP3   OH223271   3.245   4.526  16.966 -0.2099  0.3742  0.1805
  619TIP3    H123272   3.232   4.438  16.928 -0.5158 -0.1933  1.5417
  619TIP3    H223273   3.335   4.548  16.942  0.5254 -1.1260  1.3629
  620TIP3   OH223274   6.213   1.625  13.191 -0.4035 -0.0662  0.1779
  620TIP3    H123275   6.252   1.691  13.134 -1.2236 -0.4186 -0.8257
  620TIP3    H223276   6.191   1.553  13.132  1.0729 -1.5506  1.3357
  621TIP3   OH223277   0.432   1.094   1.284  0.1698 -0.5991 -0.6173
  621TIP3    H123278   0.421   1.142   1.202  1.0210 -1.3505 -1.1940
  621TIP3    H223279   0.505   1.035   1.268  0.0546 -1.0934  0.5369
  622TIP3   OH223280   2.966   6.127  14.500 -0.9142 -0.6980 -0.1185
  622TIP3    H123281   3.039   6.085  14.454 -1.9428 -2.9158  0.1290
  622TIP3    H223282   2.989   6.219  14.502  0.3860 -0.8661 -2.8210
  623TIP3   OH223283   5.682   2.706  11.231  0.1342 -0.3089  0.5861
  623TIP3    H123284   5.748   2.638  11.217  0.9728  0.9795 -2.4281
  623TIP3    H223285   5.607   2.658  11.269  1.4150 -2.5077  0.5234
  624TIP3   OH223286   6.161   5.098   4.344 -0.0385  0.0584 -0.1688
  624TIP3    H123287   6.104   5.042   4.292 -1.1705  0.9297  0.0963
  624TIP3    H223288   6.131   5.088   4.434  1.1029 -0.4864  0.1697
  625TIP3   OH223289   4.310   3.388  12.369 -0.3085  0.3834  0.2083
  625TIP3    H123290   4.244   3.448  12.335 -1.4094 -1.0568 -0.2824
  625TIP3    H223291   4.281   3.302  12.341  0.2034 -0.6182  2.4889
  626TIP3   OH223292   1.853   3.786  17.117 -0.3817 -0.0136 -0.9771
  626TIP3    H123293   1.941   3.824  17.117 -0.4613  0.1744 -1.2070
  626TIP3    H223294   1.857   3.716  17.052 -0.1510 -0.5985 -0.3341
  627TIP3   OH223295   2.565   0.180  16.958  0.6713  0.1050 -0.5297
  627TIP3    H123296   2.591   0.245  16.892  0.1019  1.0247  0.1181
  627TIP3    H223297   2.623   0.197  17.032  1.7585 -1.3616 -0.9981
  628TIP3   OH223298   5.618   0.863   5.725  0.1712  0.5470  0.0122
  628TIP3    H123299   5.647   0.788   5.673 -0.1060  0.3019  0.2070
  628TIP3    H223300   5.539   0.893   5.681  0.6543  1.1430 -0.4523
  629TIP3   OH223301   0.290   6.519   1.999 -0.5005  0.7071  0.7713
  629TIP3    H123302   0.362   6.576   2.027  0.5448  0.1980 -0.7705
  629TIP3    H223303   0.231   6.578   1.953  0.0063  0.7538  0.1743
  630TIP3   OH223304   2.894   4.633  16.479 -0.1871 -0.1089 -0.3782
  630TIP3    H123305   2.954   4.688  16.530 -0.1943 -0.1515 -0.3234
  630TIP3    H223306   2.934   4.546  16.483 -0.4122 -0.2012 -0.0844
  631TIP3   OH223307   3.105   1.803  12.383  0.2084  0.2550  0.2322
  631TIP3    H123308   3.085   1.710  12.394  1.1831 -0.2231 -1.6159
  631TIP3    H223309   3.167   1.806  12.311 -0.0671  2.3851  0.0091
  632TIP3   OH223310   1.971   2.379  14.400 -0.3149  0.1043 -0.3246
  632TIP3    H123311   2.065   2.397  14.391 -0.1126 -0.8476 -0.3248
  632TIP3    H223312   1.947   2.341  14.316 -1.0510  1.6874 -0.8575
  633TIP3   OH223313   2.973   2.979  15.122 -0.1110  0.6211  0.0438
  633TIP3    H123314   2.969   2.908  15.187 -1.4530  0.6647  0.0445
  633TIP3    H223315   2.941   2.940  15.041  0.3597  0.8968 -0.2772
  634TIP3   OH223316   0.425   3.914   2.813  0.0690  0.2923  0.2845
  634TIP3    H123317   0.520   3.925   2.810  0.3944 -2.2108 -0.6715
  634TIP3    H223318   0.395   3.940   2.726 -0.0074  0.0856  0.2502
  635TIP3   OH223319   5.889   6.442   0.027  0.4307 -0.0408  0.1019
  635TIP3    H123320   5.920   6.407   0.111 -1.0206 -0.7849  0.3620
  635TIP3    H223321   5.968   6.468  -0.019  1.3211 -0.5014  1.3160
  636TIP3   OH223322   2.891   2.057  15.313  0.1279 -0.1942 -0.4937
  636TIP3    H123323   2.844   2.001  15.251 -0.6421  0.2771 -0.3351
  636TIP3    H223324   2.876   2.016  15.399  2.0650 -1.4596 -0.6916
  637TIP3   OH223325   6.689   6.751  14.234  0.3045 -0.5538 -0.7587
  637TIP3    H123326   6.752   6.722  14.168  1.7278  1.7486 -0.5215
  637TIP3    H223327   6.691   6.847  14.228 -2.7566 -0.3800 -0.3017
  638TIP3   OH223328   1.252   2.456   3.871 -0.0303  0.0064  0.1272
  638TIP3    H123329   1.316   2.425   3.934 -0.8107  1.6582  1.8437
  638TIP3    H223330   1.192   2.383   3.858  1.4766 -1.1422 -0.5777
  639TIP3   OH223331   1.771   2.817   6.012  0.6266  0.5943  0.5345
  639TIP3    H123332   1.713   2.764   6.067 -0.9276  1.5706 -0.0870
  639TIP3    H223333   1.856   2.773   6.017  0.7823  1.0036  4.2499
  640TIP3   OH223334   5.718   0.741  13.467 -0.1474  0.2550  0.3080
  640TIP3    H123335   5.665   0.789  13.530  0.0801  0.1302  0.5980
  640TIP3    H223336   5.774   0.807  13.426 -0.8329  0.4579 -0.3175
  641TIP3   OH223337   1.501   3.862  11.823  0.1236  0.3015  0.4877
  641TIP3    H123338   1.527   3.950  11.852  2.8462 -1.1350  3.0786
  641TIP3    H223339   1.550   3.848  11.742 -1.2011  1.4759 -0.5758
  642TIP3   OH223340   2.560   0.336  15.891  0.0845  0.4583 -0.4509
  642TIP3    H123341   2.548   0.332  15.986 -1.0653 -0.3140 -0.6085
  642TIP3    H223342   2.484   0.386  15.860 -0.8654 -1.3378 -1.1593
  643TIP3   OH223343   4.560   6.530  15.469  0.2124 -0.1305 -0.1336
  643TIP3    H123344   4.523   6.601  15.521  0.4183  0.0220 -0.1937
  643TIP3    H223345   4.491   6.506  15.408  0.4790  0.6876 -0.7796
  644TIP3   OH223346   2.081   1.720  14.774 -0.2071  0.2213  0.3091
  644TIP3    H123347   2.149   1.771  14.730  0.8049 -0.8275  0.6004
  644TIP3    H223348   2.039   1.782  14.833  0.0130  1.0685 -0.4092
  645TIP3   OH223349   2.749   3.799  15.413 -0.0405 -0.0199  0.2677
  645TIP3    H123350   2.815   3.808  15.345  0.3487 -0.1105  0.6280
  645TIP3    H223351   2.799   3.791  15.494 -0.4891 -0.3579  0.5159
  646TIP3   OH223352   4.659   2.682  14.494  0.1515 -0.1910  0.3380
  646TIP3    H123353   4.709   2.689  14.412  0.5497 -0.4439  0.5534
  646TIP3    H223354   4.706   2.615  14.544 -1.0142 -1.1955  0.1207
  647TIP3   OH223355   5.595   2.471   4.024  0.5373  0.0317  0.7582
  647TIP3    H123356   5.534   2.476   4.098 -0.7079  0.6194 -0.2609
  647TIP3    H223357   5.661   2.538   4.042 -0.2333  0.7542  0.9376
  648TIP3   OH223358   4.500   0.940  12.496  0.3329 -0.1910  0.5987
  648TIP3    H123359   4.466   1.026  12.470 -0.5779 -0.5025  0.7207
  648TIP3    H223360   4.497   0.888  12.416 -1.9583 -0.9865  1.1101
  649TIP3   OH223361   3.970   5.851  15.885  0.3595  0.0909  0.8748
  649TIP3    H123362   4.002   5.932  15.846  1.1811 -0.2350  0.8658
  649TIP3    H223363   3.998   5.856  15.977  0.0855 -0.0121  0.9648
  650TIP3   OH223364   5.830   1.830   5.540 -0.2395 -0.1176  0.3577
  650TIP3    H123365   5.794   1.894   5.479 -0.3351  1.0143  1.5624
  650TIP3    H223366   5.790   1.747   5.515 -1.0387  0.5055 -0.4770
  651TIP3   OH223367   2.500   1.237   2.305  0.0584 -0.1825  0.0590
  651TIP3    H123368   2.473   1.146   2.315  0.8414 -1.1600 -4.4206
  651TIP3    H223369   2.418   1.285   2.288 -0.1406 -0.4952  0.1353
  652TIP3   OH223370   5.846   5.500   4.825  0.3046  0.0198 -0.0220
  652TIP3    H123371   5.861   5.586   4.787 -0.1780 -0.0418 -0.3557
  652TIP3    H223372   5.865   5.438   4.755  1.0241 -0.1643  0.3303
  653TIP3   OH223373   6.253   5.723  17.205 -0.0655 -0.2403  0.4985
  653TIP3    H123374   6.330   5.666  17.209 -0.0273 -0.2448 -0.2067
  653TIP3    H223375   6.270   5.791  17.271  0.4236 -0.3793  0.5211
  654TIP3   OH223376   3.561   5.909  12.832 -0.1887 -0.0579 -0.1787
  654TIP3    H123377   3.467   5.892  12.832 -0.1523 -0.3567 -1.2704
  654TIP3    H223378   3.572   5.987  12.778  0.2060 -0.1113 -0.1834
  655TIP3   OH223379   3.813   4.746  13.645  0.0496  0.3562  0.1842
  655TIP3    H123380   3.865   4.754  13.725  0.0948  1.7483  0.0421
  655TIP3    H223381   3.836   4.824  13.594 -1.4442  0.4985 -0.3112
  656TIP3   OH223382   5.063   6.574  14.519 -0.0257  0.1396  0.5661
  656TIP3    H123383   5.064   6.635  14.445 -3.0833 -0.5868 -0.2261
  656TIP3    H223384   5.061   6.630  14.596 -2.1035  1.1312 -0.1223
  657TIP3   OH223385   6.064   0.776  16.387  0.0990 -0.3060 -0.3496
  657TIP3    H123386   5.988   0.741  16.340  0.8950 -1.3092 -0.9366
  657TIP3    H223387   6.139   0.732  16.347  0.9256 -0.0268  0.8366
  658TIP3   OH223388   3.950   4.199   1.024 -0.9693 -0.3498  0.0446
  658TIP3    H123389   3.905   4.127   1.067 -0.9723 -0.8858 -0.8313
  658TIP3    H223390   3.891   4.225   0.953 -0.2320 -0.5942 -0.6745
  659TIP3   OH223391   4.609   0.552   1.454  0.4585  0.4072  0.0257
  659TIP3    H123392   4.602   0.462   1.485 -0.9189  0.2210 -0.7472
  659TIP3    H223393   4.593   0.606   1.532 -0.1549 -0.0331  0.2095
  660TIP3   OH223394   0.768   2.015   0.509 -0.0948  0.5065 -0.2345
  660TIP3    H123395   0.719   1.946   0.553 -1.9483  0.7318 -1.8449
  660TIP3    H223396   0.850   1.973   0.482 -0.5145 -0.6060  0.1905
  661TIP3   OH223397   3.631   6.749   1.825  0.2029 -0.1639  0.5897
  661TIP3    H123398   3.537   6.750   1.844  0.2335  1.8391  0.8481
  661TIP3    H223399   3.639   6.701   1.743 -1.0722 -0.2059  0.4747
  662TIP3   OH223400   5.303   3.748   2.846 -0.2957  0.1461 -0.0695
  662TIP3    H123401   5.252   3.725   2.769  0.1310 -0.6329 -0.1263
  662TIP3    H223402   5.258   3.824   2.882  0.0794  1.1777 -1.6561
  663TIP3   OH223403   3.213   1.572  14.809 -0.0745  0.0503 -0.2279
  663TIP3    H123404   3.306   1.549  14.799 -0.0044 -0.2503  0.9997
  663TIP3    H223405   3.208   1.663  14.778  0.8342  0.4098  0.6202
  664TIP3   OH223406   0.950   1.778  15.823  0.5143 -0.6352  0.3886
  664TIP3    H123407   0.869   1.761  15.776 -0.8250 -0.3376  2.4173
  664TIP3    H223408   0.935   1.863  15.866  1.6584 -0.8420  1.2596
  665TIP3   OH223409   3.498   1.960   0.730  0.0191  0.2754  0.2742
  665TIP3    H123410   3.560   1.911   0.676  0.5732  2.6447 -1.3983
  665TIP3    H223411   3.544   1.975   0.812  0.4463 -0.6066  0.2058
  666TIP3   OH223412   3.309   2.342  11.061 -0.0273  0.3403  0.1013
  666TIP3    H123413   3.222   2.324  11.025 -0.2736  0.5168  0.6008
  666TIP3    H223414   3.305   2.433  11.090 -0.2480 -0.1522  1.7288
  667TIP3   OH223415   1.865   2.893  13.617 -0.1931 -0.5710  0.3771
  667TIP3    H123416   1.819   2.959  13.566 -1.1464 -3.3230 -2.6861
  667TIP3    H223417   1.958   2.916  13.607 -0.5372  2.2646  2.5385
  668TIP3   OH223418   1.614   4.185   1.945  0.5249 -0.5441  0.5368
  668TIP3    H123419   1.549   4.161   1.879  0.7622 -0.4521  0.2680
  668TIP3    H223420   1.596   4.125   2.018  0.9248 -1.3578 -0.0127
  669TIP3   OH223421   5.488   4.875   0.875 -0.0218 -0.3403 -0.1887
  669TIP3    H123422   5.541   4.951   0.852 -1.1403  0.8099  0.9131
  669TIP3    H223423   5.513   4.808   0.811  0.7552  1.0397 -1.3795
  670TIP3   OH223424   1.595   4.836   5.406  0.5963  0.0325  0.0231
  670TIP3    H123425   1.547   4.853   5.487  0.8966 -1.2102  0.4920
  670TIP3    H223426   1.686   4.860   5.427  0.6553 -0.1933  0.0355
  671TIP3   OH223427   4.152   4.871  12.083  0.0013  0.6042  0.0850
  671TIP3    H123428   4.087   4.854  12.151 -0.0306 -1.5730 -0.4311
  671TIP3    H223429   4.113   4.940  12.030 -1.1497  0.4809  0.7291
  672TIP3   OH223430   5.180   2.899   6.535 -0.2686  0.4175  0.1628
  672TIP3    H123431   5.127   2.887   6.456 -0.5071  0.7463  0.2698
  672TIP3    H223432   5.126   2.863   6.606  0.5175 -1.1597  0.0059
  673TIP3   OH223433   3.524   6.174  14.303 -0.4332  0.3056  0.4703
  673TIP3    H123434   3.575   6.113  14.356  0.3329 -0.3998 -1.0102
  673TIP3    H223435   3.481   6.118  14.237  0.0439  1.3224 -0.7282
  674TIP3   OH223436   6.538   4.331  15.747 -0.2137 -0.2925 -0.3564
  674TIP3    H123437   6.470   4.371  15.802 -0.3045 -0.9213 -0.0056
  674TIP3    H223438   6.620   4.352  15.791 -0.2095  0.0606 -0.5251
  675TIP3   OH223439   6.053   2.065   4.634 -0.2156 -0.1018 -0.2643
  675TIP3    H123440   6.082   2.092   4.721 -3.5205  0.9040  0.6751
  675TIP3    H223441   6.103   2.120   4.574  0.5941  0.7187  1.1208
  676TIP3   OH223442   2.364   2.342  16.812  0.1936  0.0152  0.3430
  676TIP3    H123443   2.348   2.371  16.722  1.4166  1.7341  0.6272
  676TIP3    H223444   2.307   2.266  16.823  0.0571 -0.2757 -1.8901
  677TIP3   OH223445   4.965   3.016   2.333 -0.8241 -0.0923  0.2980
  677TIP3    H123446   4.990   2.935   2.377 -1.8846 -1.6504 -1.7843
  677TIP3    H223447   4.871   3.025   2.348 -0.6181  1.1197  1.0238
  678TIP3   OH223448   2.156   4.156   6.348  0.2747 -0.1778  1.0376
  678TIP3    H123449   2.108   4.097   6.405  0.2982 -0.1157  1.1224
  678TIP3    H223450   2.122   4.243   6.368  1.3333  0.0283  2.0425
  679TIP3   OH223451   6.654   0.728   1.924 -0.2341 -0.3422 -0.4773
  679TIP3    H123452   6.559   0.720   1.930 -0.5843  2.3988 -1.1812
  679TIP3    H223453   6.681   0.768   2.007  0.5156 -2.1982  0.2286
  680TIP3   OH223454   1.201   5.328  17.016 -0.0606  0.5051 -0.6846
  680TIP3    H123455   1.222   5.339  16.924 -0.2730 -0.2832 -0.8380
  680TIP3    H223456   1.184   5.234  17.026 -2.1585  0.8721 -0.3002
  681TIP3   OH223457   0.636   3.759  13.170  0.2788 -0.3441 -0.2703
  681TIP3    H123458   0.718   3.800  13.143  0.9692 -2.6160 -1.9106
  681TIP3    H223459   0.568   3.805  13.120  0.3370  2.0220  1.6127
  682TIP3   OH223460   1.401   4.655   5.867  0.1728 -0.8471  0.5987
  682TIP3    H123461   1.463   4.637   5.797  0.6438  1.4418  0.3593
  682TIP3    H223462   1.354   4.572   5.879 -0.2210 -1.2427 -2.6909
  683TIP3   OH223463   2.827   0.434   3.001  0.4141 -0.0962  0.2554
  683TIP3    H123464   2.844   0.517   3.045 -0.1729  0.0611  0.1895
  683TIP3    H223465   2.910   0.386   3.008  1.3094  1.1668 -1.2262
  684TIP3   OH223466   4.684   2.434   1.768 -0.0508 -0.4732 -0.0132
  684TIP3    H123467   4.616   2.497   1.745 -0.6200 -1.2889 -0.5991
  684TIP3    H223468   4.672   2.362   1.707  2.5361  0.1433 -1.4045
  685TIP3   OH223469   0.516   5.541   3.363 -0.2495  0.2417 -0.1062
  685TIP3    H123470   0.521   5.463   3.418 -1.5659  0.8535  0.9560
  685TIP3    H223471   0.433   5.583   3.388 -0.0585  1.4551 -1.3567
  686TIP3   OH223472   5.869   6.225  12.472  0.1069 -0.1778 -0.5685
  686TIP3    H123473   5.946   6.283  12.474 -0.8236  1.0982 -0.3127
  686TIP3    H223474   5.867   6.185  12.558 -0.0394  0.5119 -0.2465
  687TIP3   OH223475   5.198   2.185  13.868  0.2775  0.0985  0.2147
  687TIP3    H123476   5.120   2.185  13.812 -0.0019  3.0664  0.4804
  687TIP3    H223477   5.271   2.170  13.807 -0.2844 -0.4024 -0.3570
  688TIP3   OH223478   4.727   4.510   5.259 -0.1136  0.3200 -0.2479
  688TIP3    H123479   4.642   4.465   5.254 -1.4852  2.7916 -1.0094
  688TIP3    H223480   4.744   4.517   5.353 -1.1075  0.3400 -0.0512
  689TIP3   OH223481   3.733   2.092   0.989 -0.1704  0.0142  0.4832
  689TIP3    H123482   3.817   2.088   0.944 -1.0545  1.0944 -1.3832
  689TIP3    H223483   3.736   2.175   1.038 -0.5321  0.5734 -0.4284
  690TIP3   OH223484   6.064   2.406  17.098  0.2691 -0.1686  0.1350
  690TIP3    H123485   6.070   2.479  17.160  0.0222 -1.9148  2.3594
  690TIP3    H223486   6.155   2.375  17.089 -0.0215 -1.9014  2.2875
  691TIP3   OH223487   6.616   1.197   2.819 -0.2053 -0.2618  0.2406
  691TIP3    H123488   6.705   1.167   2.836  1.4056  3.7270 -0.0745
  691TIP3    H223489   6.584   1.227   2.904 -0.7921 -0.6063  0.1457
  692TIP3   OH223490   3.212   4.971   5.016  0.1129 -0.1351  0.5447
  692TIP3    H123491   3.230   4.944   4.926 -1.1455 -1.4729  0.6540
  692TIP3    H223492   3.147   4.908   5.048  1.7375 -0.7797  2.9408
  693TIP3   OH223493   4.872   1.503  10.486  0.6088 -0.2263 -0.1651
  693TIP3    H123494   4.911   1.416  10.490 -2.0333 -1.5047 -0.0320
  693TIP3    H223495   4.804   1.495  10.419 -1.1864  1.0454  1.4095
  694TIP3   OH223496   1.322   6.153   5.946 -0.0386  0.0115 -0.1068
  694TIP3    H123497   1.294   6.193   6.028 -1.4517  1.3670 -1.2015
  694TIP3    H223498   1.321   6.059   5.964  0.4306  0.2961  1.6229
  695TIP3   OH223499   1.258   4.923   2.166 -0.0689 -0.5343 -0.3474
  695TIP3    H123500   1.248   5.018   2.180  0.4132 -0.7008  1.3270
  695TIP3    H223501   1.172   4.894   2.137 -0.8534  0.0979  1.2366
  696TIP3   OH223502   0.122   5.802  14.376 -0.7188  0.3609 -0.5292
  696TIP3    H123503   0.159   5.716  14.395 -0.6678  0.4697 -0.1323
  696TIP3    H223504   0.027   5.786  14.370 -0.6452  0.1336 -1.2756
  697TIP3   OH223505   1.957   4.891  16.835 -0.0948  0.2874  0.1858
  697TIP3    H123506   1.909   4.847  16.765 -1.7129 -1.3876  2.1843
  697TIP3    H223507   1.897   4.960  16.865 -0.1558 -0.0860  0.9599
  698TIP3   OH223508   3.951   4.639  15.459 -0.2475 -0.2154 -0.0733
  698TIP3    H123509   4.030   4.631  15.405  0.3471  1.2067  0.5513
  698TIP3    H223510   3.928   4.732  15.456 -2.0461 -0.6187 -0.4141
  699TIP3   OH223511   4.174   3.996  16.467  0.1567  0.6293 -0.3777
  699TIP3    H123512   4.127   3.930  16.417  0.8612  0.3673 -0.6994
  699TIP3    H223513   4.251   3.950  16.501 -0.6574  0.5795  1.5757
  700TIP3   OH223514   4.173   2.124  11.292  0.9828 -0.2739  0.6355
  700TIP3    H123515   4.084   2.156  11.307 -0.2615 -2.5165 -1.1328
  700TIP3    H223516   4.221   2.148  11.371 -1.6568 -0.4806  2.4590
  701TIP3   OH223517   2.979   5.146  16.935 -0.3741 -0.2101 -0.0222
  701TIP3    H123518   2.896   5.119  16.896 -0.7149 -1.3066  1.3696
  701TIP3    H223519   3.027   5.065  16.948  0.6763  0.3586 -0.2447
  702TIP3   OH223520   5.340   6.534  15.798 -0.6853 -0.3377  0.4462
  702TIP3    H123521   5.299   6.464  15.848 -0.1001 -2.7766 -2.2264
  702TIP3    H223522   5.303   6.526  15.710 -0.0759  2.3240 -0.1545
  703TIP3   OH223523   5.283   2.050   4.325 -0.2226  0.0344 -0.0460
  703TIP3    H123524   5.212   2.086   4.378  0.1606 -0.3181  0.7251
  703TIP3    H223525   5.359   2.051   4.383 -0.1157 -1.6781 -0.0998
  704TIP3   OH223526   0.310   3.139  16.015 -0.0280 -0.3371  0.0601
  704TIP3    H123527   0.339   3.188  15.938  0.1127  0.9276  0.9008
  704TIP3    H223528   0.224   3.175  16.036 -0.5690 -1.4478 -0.1396
  705TIP3   OH223529   0.461   6.233  16.297 -0.3097 -0.0775  0.0466
  705TIP3    H123530   0.520   6.283  16.241  2.7213 -0.9012  2.2430
  705TIP3    H223531   0.453   6.286  16.377  2.1276 -2.3983  1.9958
  706TIP3   OH223532   3.840   0.925  13.942 -0.1543 -0.3055  0.5831
  706TIP3    H123533   3.774   0.866  13.904 -0.3217 -1.3452  2.3881
  706TIP3    H223534   3.847   0.996  13.879 -0.8674 -1.6316 -1.0688
  707TIP3   OH223535   4.200   4.303   0.212  0.6515 -0.1519  0.0479
  707TIP3    H123536   4.210   4.208   0.201  2.3574  0.1954 -2.1309
  707TIP3    H223537   4.133   4.328   0.148  0.0582  0.1246  0.7554
  708TIP3   OH223538   4.912   5.903   0.476 -0.1008 -0.2452  0.0373
  708TIP3    H123539   4.935   5.959   0.550 -0.3484  0.3903 -0.3632
  708TIP3    H223540   4.919   5.814   0.511  2.2615 -0.0824  0.1632
  709TIP3   OH223541   3.977   2.664   3.760  0.3184  0.1354  0.2565
  709TIP3    H123542   3.952   2.757   3.757 -0.0794  0.0296  0.1588
  709TIP3    H223543   3.992   2.646   3.853  1.1747  0.4933  0.1988
  710TIP3   OH223544   3.137   1.874   3.127  0.1917  0.6327  0.4309
  710TIP3    H123545   3.226   1.882   3.095  0.6730  0.7705  1.7177
  710TIP3    H223546   3.087   1.940   3.080  0.8850  0.9021  0.0720
  711TIP3   OH223547   0.496   6.510  13.834  0.4043 -0.1209  0.2371
  711TIP3    H123548   0.546   6.559  13.768 -0.9549  0.3465 -0.4679
  711TIP3    H223549   0.547   6.430  13.846  0.0766 -0.8162 -2.3346
  712TIP3   OH223550   0.341   2.619   2.283  0.5508 -0.1470 -0.2688
  712TIP3    H123551   0.337   2.707   2.320  1.5303 -0.6084  1.0231
  712TIP3    H223552   0.264   2.575   2.319  1.4253 -0.5526  1.2098
  713TIP3   OH223553   0.921   0.333   4.837  0.1872 -0.1661  0.0035
  713TIP3    H123554   0.856   0.315   4.905  0.6801  2.4851  1.3061
  713TIP3    H223555   0.873   0.321   4.755 -1.6853  0.6248  0.9097
  714TIP3   OH223556   6.484   4.199   3.443 -0.8369  0.0611  0.1015
  714TIP3    H123557   6.408   4.181   3.387 -0.7768  0.2517 -0.0426
  714TIP3    H223558   6.515   4.113   3.470 -0.1016 -0.1024 -1.1793
  715TIP3   OH223559   4.927   1.116   2.435 -0.3678 -0.8887  0.2452
  715TIP3    H123560   4.930   1.146   2.344  0.5921  1.5256  0.9902
  715TIP3    H223561   4.905   1.023   2.429  1.7960 -1.3514 -2.5590
  716TIP3   OH223562   4.394   4.797   6.046  0.3487  0.3510  0.7218
  716TIP3    H123563   4.412   4.738   5.973 -0.4770  0.1466  0.6687
  716TIP3    H223564   4.347   4.870   6.006 -1.5492 -0.5105  1.2512
  717TIP3   OH223565   4.673   6.414  16.517  0.0765 -0.1247 -0.1894
  717TIP3    H123566   4.663   6.327  16.556 -0.6186 -0.2323 -0.5878
  717TIP3    H223567   4.650   6.401  16.425  0.7565  0.3211 -0.4275
  718TIP3   OH223568   4.327   3.561  16.786 -1.0253 -0.3161 -0.1478
  718TIP3    H123569   4.251   3.610  16.754 -0.0493  0.0201 -2.1189
  718TIP3    H223570   4.301   3.470  16.779 -2.0445 -0.1708  1.3846
  719TIP3   OH223571   1.198   6.471  13.263  0.1593  0.5105 -0.0446
  719TIP3    H123572   1.268   6.522  13.303 -1.2023  1.2951  1.4681
  719TIP3    H223573   1.195   6.501  13.172 -0.0781  2.5754  0.6003
  720TIP3   OH223574   3.954   6.424  17.108  0.1828  0.4196  0.0143
  720TIP3    H123575   4.002   6.487  17.055  0.3818  1.1393  1.0230
  720TIP3    H223576   3.866   6.422  17.070  0.3244  0.9091 -0.3491
  721TIP3   OH223577   0.676   5.179  11.941  0.0692  0.0931  0.2582
  721TIP3    H123578   0.653   5.136  11.859  2.8946 -1.1889  0.0559
  721TIP3    H223579   0.617   5.140  12.006 -0.7708 -0.3933 -0.7671
  722TIP3   OH223580   6.357   1.110   5.415 -0.8214  0.7196 -0.1339
  722TIP3    H123581   6.422   1.042   5.396 -2.0168 -1.0271  1.5839
  722TIP3    H223582   6.407   1.182   5.452  0.1749 -0.5179  0.9996
  723TIP3   OH223583   1.438   5.668  16.220 -0.0564 -0.1939 -0.0478
  723TIP3    H123584   1.378   5.593  16.215 -0.4816  0.2014 -3.1641
  723TIP3    H223585   1.518   5.631  16.257 -0.5563 -2.0206 -0.6272
  724TIP3   OH223586   3.176   0.690  14.660  0.3567  0.2625 -0.0594
  724TIP3    H123587   3.263   0.729  14.672 -0.1006  1.3317 -0.0898
  724TIP3    H223588   3.116   0.757  14.691 -0.4818 -0.3171 -0.4058
  725TIP3   OH223589   3.374   0.229  16.477  0.6643  0.1132 -0.1278
  725TIP3    H123590   3.445   0.281  16.437  1.6378 -0.6675  0.5303
  725TIP3    H223591   3.405   0.139  16.472 -0.8202 -0.3857 -0.8598
  726TIP3   OH223592   5.074   5.443   1.036 -0.2228  0.1571  0.1115
  726TIP3    H123593   5.071   5.427   0.942 -0.5478  0.5180  0.0618
  726TIP3    H223594   5.165   5.471   1.053  0.3687 -1.6480  0.1949
  727TIP3   OH223595   6.585   6.057  11.921 -0.8362 -0.3443  0.0841
  727TIP3    H123596   6.608   6.127  11.982  0.4620  0.0215 -0.7944
  727TIP3    H223597   6.498   6.082  11.887 -1.2127 -0.1453  1.1617
  728TIP3   OH223598   2.270   3.829   3.529 -0.0171  0.9955 -0.1215
  728TIP3    H123599   2.199   3.811   3.591  1.3646  1.4241  1.6732
  728TIP3    H223600   2.263   3.760   3.464 -1.1972  0.1788  0.8238
  729TIP3   OH223601   4.046   4.751  16.360 -0.0968  0.1426  0.1672
  729TIP3    H123602   4.003   4.829  16.396 -0.3031  0.6856 -1.1842
  729TIP3    H223603   4.043   4.687  16.431 -1.4259  0.8100  0.7596
  730TIP3   OH223604   6.731   6.634  11.650 -0.5952  0.1512 -0.4183
  730TIP3    H123605   6.687   6.710  11.688 -0.2318  0.2661 -0.2273
  730TIP3    H223606   6.733   6.652  11.556  1.4065  1.4125 -0.1890
  731TIP3   OH223607   3.747   0.317  11.456  0.3900 -0.1022  0.7057
  731TIP3    H123608   3.695   0.372  11.398 -0.0759 -3.0130 -1.8993
  731TIP3    H223609   3.829   0.365  11.467 -0.1018  1.2756 -1.1641
  732TIP3   OH223610   5.581   6.630  12.388 -0.3520 -0.1023 -0.0631
  732TIP3    H123611   5.561   6.686  12.313 -0.0507 -0.1600 -0.1879
  732TIP3    H223612   5.599   6.544  12.350 -1.7967 -0.5404  0.2051
  733TIP3   OH223613   5.163   1.839   2.140  0.4586 -0.0081 -0.0700
  733TIP3    H123614   5.093   1.829   2.076  0.0644  0.3771  0.2968
  733TIP3    H223615   5.120   1.835   2.225  0.7504  1.1010  0.1500
  734TIP3   OH223616   5.877   6.480  15.187 -0.7169 -0.9321  0.0485
  734TIP3    H123617   5.846   6.411  15.128  0.5548 -1.7636  0.2974
  734TIP3    H223618   5.966   6.499  15.156 -0.4149 -0.6422  1.0510
  735TIP3   OH223619   4.021   3.005  16.138  0.4740  0.5384  0.6834
  735TIP3    H123620   4.107   2.968  16.118  0.3774 -0.6689  2.3040
  735TIP3    H223621   3.959   2.942  16.101  0.2970  0.3796  1.2454
  736TIP3   OH223622   0.694   1.140   5.360 -0.1228  0.1377  0.0116
  736TIP3    H123623   0.785   1.158   5.333  0.3861  0.2125  1.6585
  736TIP3    H223624   0.696   1.147   5.456 -1.6458 -0.9241  0.1482
  737TIP3   OH223625   2.005   0.350  14.881 -0.1219 -0.0240 -0.0884
  737TIP3    H123626   2.059   0.361  14.802 -0.0070 -0.6279 -0.0987
  737TIP3    H223627   2.061   0.383  14.952 -0.2113  0.4881 -0.2497
  738TIP3   OH223628   3.316   3.967  14.384  0.0275 -0.0258  0.0019
  738TIP3    H123629   3.323   4.014  14.301  0.9424 -1.6501 -0.9111
  738TIP3    H223630   3.233   3.996  14.422 -0.3083  0.9142 -1.3750
  739TIP3   OH223631   4.928   4.382   6.601  0.1802  0.4317 -0.3163
  739TIP3    H123632   4.884   4.414   6.679 -1.4222  0.1462 -1.0642
  739TIP3    H223633   4.998   4.325   6.634 -1.1735 -0.5935  0.9021
  740TIP3   OH223634   1.034   3.018  17.222 -0.0639 -0.5689 -0.9245
  740TIP3    H123635   1.118   3.018  17.268  0.6108  0.3527 -2.1037
  740TIP3    H223636   1.058   3.017  17.129 -1.3734 -1.0768 -1.2653
  741TIP3   OH223637   6.346   1.818   3.875 -1.1598  0.2301  0.4161
  741TIP3    H123638   6.330   1.847   3.965  0.6186  0.7900  0.5893
  741TIP3    H223639   6.296   1.879   3.821  1.1434  2.6655  0.8675
  742TIP3   OH223640   0.434   0.676   0.188  0.0206 -0.0434 -0.3695
  742TIP3    H123641   0.448   0.582   0.198  0.9377  0.0627 -0.5552
  742TIP3    H223642   0.367   0.697   0.252  0.2279 -0.7238  0.0819
  743TIP3   OH223643   4.411   3.162  11.130  0.1383  0.1324  0.1817
  743TIP3    H123644   4.321   3.128  11.125 -0.0181 -0.2199  3.3003
  743TIP3    H223645   4.409   3.243  11.080 -1.1570 -1.2409 -2.1292
  744TIP3   OH223646   3.614   0.195   4.111  0.2850 -0.0370  0.5057
  744TIP3    H123647   3.700   0.178   4.074  0.0273 -0.5624  0.1311
  744TIP3    H223648   3.626   0.187   4.206  0.8565  0.8902  0.5211
  745TIP3   OH223649   2.437   5.001   0.608  0.0267  0.1083 -0.1704
  745TIP3    H123650   2.416   5.082   0.562 -0.7142  0.5049  0.8262
  745TIP3    H223651   2.390   4.933   0.560 -0.6731  0.5034 -0.0538
  746TIP3   OH223652   1.866   4.589   0.322 -0.4164 -0.4139  0.1229
  746TIP3    H123653   1.870   4.500   0.287 -0.5490  0.4256 -2.2577
  746TIP3    H223654   1.794   4.630   0.275  0.7568  1.4424 -0.1783
  747TIP3   OH223655   2.533   3.169   3.663  0.0382 -0.0064 -0.0201
  747TIP3    H123656   2.576   3.243   3.621  1.6528  0.2049  1.8274
  747TIP3    H223657   2.475   3.209   3.728  1.7884 -0.2613  1.8078
  748TIP3   OH223658   2.339   6.325  12.662 -0.0560 -0.6194  0.3251
  748TIP3    H123659   2.400   6.333  12.735  0.5614 -0.2991 -0.2222
  748TIP3    H223660   2.273   6.263  12.693  0.2031 -0.4992  1.1491
  749TIP3   OH223661   1.759   6.043   5.469  0.0338  0.0110  0.3891
  749TIP3    H123662   1.716   6.127   5.482 -1.2514 -0.4414 -0.7252
  749TIP3    H223663   1.841   6.065   5.424  0.4667  0.7825  1.5085
  750TIP3   OH223664   4.156   0.722   2.902 -0.2789  0.2157  0.1018
  750TIP3    H123665   4.215   0.710   2.977 -0.3176 -1.4558 -0.0945
  750TIP3    H223666   4.207   0.693   2.827 -0.7110  0.5949 -0.3443
  751TIP3   OH223667   0.129   5.486  16.627  0.1603  0.2453 -0.7099
  751TIP3    H123668   0.219   5.515  16.612  0.4491 -0.3861 -0.2564
  751TIP3    H223669   0.123   5.404  16.579  0.3334 -0.5347  0.5427
  752TIP3   OH223670   4.701   6.515   0.404  0.0314  0.3128 -0.1601
  752TIP3    H123671   4.763   6.468   0.348  1.2007  2.0085 -0.3626
  752TIP3    H223672   4.722   6.486   0.492 -1.1730 -1.6355 -0.4407
  753TIP3   OH223673   5.763   5.124  13.397  0.0955  0.0494  0.0586
  753TIP3    H123674   5.831   5.064  13.366 -1.6742 -0.1505 -4.1178
  753TIP3    H223675   5.804   5.210  13.391  1.7110 -0.3330  3.3248
  754TIP3   OH223676   5.502   0.666  14.333  0.1931  0.2021 -0.2510
  754TIP3    H123677   5.506   0.588  14.277 -0.6176 -0.1244  0.1312
  754TIP3    H223678   5.439   0.723  14.290 -1.4089 -0.5837  0.9447
  755TIP3   OH223679   5.296   6.613   0.588  0.0369 -0.2556 -0.2239
  755TIP3    H123680   5.336   6.602   0.674  0.6320  1.3389 -0.2786
  755TIP3    H223681   5.351   6.677   0.543 -0.6047 -0.6220 -1.5855
  756TIP3   OH223682   6.060   3.906   3.717  0.0789  0.6385 -0.3485
  756TIP3    H123683   5.980   3.919   3.767  0.6047  2.2712  0.1427
  756TIP3    H223684   6.040   3.834   3.658 -0.8100 -0.8751  1.6858
  757TIP3   OH223685   4.926   2.451   1.886  0.3618 -0.5050 -0.2700
  757TIP3    H123686   4.946   2.358   1.895 -1.7325 -0.8869  1.0995
  757TIP3    H223687   4.852   2.454   1.825  0.7479  0.3316 -0.7219
  758TIP3   OH223688   2.409   2.161  17.077  0.2339  0.1288 -0.4704
  758TIP3    H123689   2.325   2.167  17.033  0.4134 -0.7133 -0.9529
  758TIP3    H223690   2.390   2.122  17.162  0.1891 -0.5157 -0.7703
  759TIP3   OH223691   5.901   0.799  13.784  0.2330  0.0282 -0.5696
  759TIP3    H123692   5.952   0.720  13.771 -0.1562 -0.0522 -1.7735
  759TIP3    H223693   5.886   0.803  13.879  3.8628  0.9796  0.1018
  760TIP3   OH223694   4.380   0.327  12.691 -0.1581  0.8637 -0.0317
  760TIP3    H123695   4.371   0.422  12.678  0.8943  0.8331 -1.2087
  760TIP3    H223696   4.309   0.289  12.641 -1.6960  1.0522  1.8929
  761TIP3   OH223697   5.755   5.534   4.069 -0.0871  0.2899 -0.9064
  761TIP3    H123698   5.728   5.509   3.981  0.0490  0.3909 -0.9774
  761TIP3    H223699   5.694   5.604   4.094 -0.8085 -0.4722 -0.4972
  762TIP3   OH223700   3.322   3.399  12.367  0.5731  0.2831  0.1427
  762TIP3    H123701   3.309   3.311  12.330  0.6580  0.5449 -0.5402
  762TIP3    H223702   3.407   3.394  12.411  0.2962 -0.1444  0.6367
  763TIP3   OH223703   1.961   6.418  10.986  0.0469 -0.0092  0.5957
  763TIP3    H123704   1.982   6.504  10.949 -1.2401  0.1728  0.2717
  763TIP3    H223705   1.881   6.391  10.942 -0.4744 -0.6438  1.8849
  764TIP3   OH223706   2.737   1.391   5.581  0.2419  0.0915 -0.4897
  764TIP3    H123707   2.688   1.334   5.640  0.9764  1.0566  1.1354
  764TIP3    H223708   2.687   1.472   5.578 -0.2845 -0.2638 -1.9924
  765TIP3   OH223709   3.556   3.178  14.486  0.4799 -0.2125  0.0350
  765TIP3    H123710   3.649   3.163  14.469  0.2023 -1.5350 -0.3968
  765TIP3    H223711   3.523   3.093  14.516 -0.3993  0.4813  1.1151
  766TIP3   OH223712   6.579   4.234   2.437 -0.2885 -0.5349  0.2371
  766TIP3    H123713   6.639   4.292   2.484  0.8860 -1.4311 -0.1190
  766TIP3    H223714   6.521   4.200   2.506  1.0326 -1.3656  0.9821
  767TIP3   OH223715   4.612   6.461  14.266  0.1708 -0.0959  0.6722
  767TIP3    H123716   4.704   6.446  14.247  0.8046  1.6611  2.0198
  767TIP3    H223717   4.584   6.383  14.312  0.7317 -1.0083 -0.4799
  768TIP3   OH223718   3.902   3.732   6.311 -0.2387 -0.4081 -0.6410
  768TIP3    H123719   3.813   3.707   6.338 -0.0703 -0.3506 -0.0259
  768TIP3    H223720   3.889   3.788   6.235 -0.7035 -0.8628 -0.9079
  769TIP3   OH223721   4.477   3.786  12.833  0.5830  0.1179 -0.2337
  769TIP3    H123722   4.445   3.822  12.751  0.2879  0.1772 -0.0954
  769TIP3    H223723   4.502   3.863  12.885 -0.4184  0.1560  0.2132
  770TIP3   OH223724   0.447   0.351   4.728 -0.0365 -0.1074  0.1219
  770TIP3    H123725   0.473   0.432   4.683  3.1513  0.1150  2.0094
  770TIP3    H223726   0.463   0.282   4.663  1.4332  0.4561 -0.1640
  771TIP3   OH223727   5.457   2.036  16.162 -0.0828 -0.2063 -0.2012
  771TIP3    H123728   5.476   1.944  16.177  0.3733 -0.3646 -1.6001
  771TIP3    H223729   5.528   2.083  16.204  0.2228 -0.5400 -0.3430
  772TIP3   OH223730   0.227   3.961  16.055  0.1417  0.0300 -0.4152
  772TIP3    H123731   0.243   3.870  16.079 -1.1452 -0.8294 -2.5284
  772TIP3    H223732   0.285   4.012  16.112  1.0124 -2.0972  0.7014
  773TIP3   OH223733   3.583   1.874  11.941 -0.1138  0.2052 -0.2186
  773TIP3    H123734   3.632   1.952  11.967 -0.2046  0.0728  0.3572
  773TIP3    H223735   3.565   1.887  11.848  1.2611  0.1222 -0.5159
  774TIP3   OH223736   0.496   4.306  14.028 -0.4168 -0.0291  0.1044
  774TIP3    H123737   0.553   4.242  13.986  0.3340  0.2270  0.7219
  774TIP3    H223738   0.436   4.334  13.958 -0.6466 -1.2615 -0.2091
  775TIP3   OH223739   4.008   3.986  11.864 -0.8606 -0.6390  0.1265
  775TIP3    H123740   3.998   4.071  11.821 -1.8507 -0.8479 -0.0888
  775TIP3    H223741   4.101   3.966  11.857 -0.8939 -0.3842 -1.3807
  776TIP3   OH223742   5.733   5.499   3.073 -0.3810  0.2888  0.4763
  776TIP3    H123743   5.678   5.421   3.082  0.5284 -0.4425 -0.1291
  776TIP3    H223744   5.768   5.493   2.984 -0.9549  1.8340  0.1227
  777TIP3   OH223745   4.029   6.562   2.946 -0.4487 -0.5597 -0.2430
  777TIP3    H123746   4.058   6.610   3.024 -3.2350 -0.6558  0.9628
  777TIP3    H223747   4.004   6.631   2.884 -1.6621 -0.4367  0.3633
  778TIP3   OH223748   0.128   1.219   5.355  0.3348 -0.1084 -0.2095
  778TIP3    H123749   0.215   1.248   5.383 -0.3530 -0.5318  2.7710
  778TIP3    H223750   0.145   1.150   5.291  2.2028 -0.2050  0.3288
  779TIP3   OH223751   0.831   5.289   2.681 -0.1488  0.3989  0.0673
  779TIP3    H123752   0.791   5.375   2.666 -0.9658 -0.0798 -0.6233
  779TIP3    H223753   0.815   5.271   2.774 -1.3705  0.3234 -0.1418
  780TIP3   OH223754   5.955   6.070   0.906  0.6614 -0.9441  0.4509
  780TIP3    H123755   5.911   6.009   0.965 -1.7561  0.6908  0.4558
  780TIP3    H223756   5.947   6.155   0.950  1.4185 -0.1606 -0.8812
  781TIP3   OH223757   1.741   5.023  13.054 -0.1271  0.8968  0.1582
  781TIP3    H123758   1.790   5.103  13.070  3.6987 -0.7975 -1.7808
  781TIP3    H223759   1.714   5.029  12.962  1.5099 -0.5315 -0.4737
  782TIP3   OH223760   4.515   0.259  12.055  0.3999  0.9265 -0.2969
  782TIP3    H123761   4.431   0.232  12.016  0.8440  1.9511 -2.0823
  782TIP3    H223762   4.490   0.314  12.129 -0.4825 -2.1179  1.8167
  783TIP3   OH223763   6.141   3.968  16.540 -0.6571 -0.4088  0.5105
  783TIP3    H123764   6.217   4.023  16.521 -0.5733 -1.4389 -2.7301
  783TIP3    H223765   6.169   3.913  16.613  0.3304  1.6800  1.8095
  784TIP3   OH223766   3.438   4.376   0.580 -0.2445 -0.5239  0.0265
  784TIP3    H123767   3.370   4.443   0.585  0.9521  0.6951  0.7482
  784TIP3    H223768   3.466   4.376   0.488 -0.4390 -0.2108 -0.0333
  785TIP3   OH223769   0.473   3.914   1.422 -0.1881  0.1840 -0.6859
  785TIP3    H123770   0.514   3.875   1.499 -2.4325  0.4922  0.7691
  785TIP3    H223771   0.419   3.844   1.386  1.7156 -0.3215 -2.7632
  786TIP3   OH223772   4.163   4.812   0.324 -0.7025 -0.6152 -0.1288
  786TIP3    H123773   4.213   4.766   0.257 -0.7308  1.1081 -1.3726
  786TIP3    H223774   4.086   4.844   0.279  1.2389  4.2956 -0.5318
  787TIP3   OH223775   2.626   1.159   4.298  0.3659  0.2133  0.5230
  787TIP3    H123776   2.711   1.173   4.339 -0.0735  1.7128  1.0063
  787TIP3    H223777   2.563   1.195   4.361 -0.7496 -1.9684  0.7281
  788TIP3   OH223778   4.502   5.028   4.465 -0.1340  0.1206  0.5228
  788TIP3    H123779   4.441   5.024   4.391  0.5045  0.7394 -0.0468
  788TIP3    H223780   4.489   4.944   4.511 -0.2388 -0.4519 -0.5234
  789TIP3   OH223781   5.222   1.903   1.152 -0.1652  0.2301 -0.2323
  789TIP3    H123782   5.176   1.958   1.088 -0.6552  0.5350  0.3711
  789TIP3    H223783   5.279   1.848   1.099 -1.8504 -0.7819 -1.0874
  790TIP3   OH223784   1.274   2.456  15.493 -0.3471  0.2435 -0.0879
  790TIP3    H123785   1.232   2.472  15.409 -1.0857  0.7455  0.3663
  790TIP3    H223786   1.278   2.543  15.534 -1.8833 -0.2752  1.2564
  791TIP3   OH223787   0.944   5.794  14.118 -0.0615 -0.4076 -0.2039
  791TIP3    H123788   0.942   5.755  14.030  0.6716  0.7647 -0.7560
  791TIP3    H223789   0.895   5.876  14.109  1.0894  0.3301  0.1603
  792TIP3   OH223790   3.516   2.309   5.189 -0.1340 -0.0251 -0.0091
  792TIP3    H123791   3.556   2.265   5.114  0.8221  2.6337 -1.1880
  792TIP3    H223792   3.435   2.261   5.204  0.0826 -1.2226 -2.1683
  793TIP3   OH223793   3.876   5.475   0.619  0.0421 -0.2818 -0.5902
  793TIP3    H123794   3.957   5.525   0.627 -0.2701  0.0166  0.9785
  793TIP3    H223795   3.884   5.406   0.684 -1.6260  0.7505  0.8044
  794TIP3   OH223796   3.747   2.149   2.535  0.0679 -0.2417  0.7144
  794TIP3    H123797   3.778   2.141   2.445 -1.9458  1.5534 -0.2436
  794TIP3    H223798   3.825   2.173   2.585  1.1563 -0.8812 -0.6124
  795TIP3   OH223799   3.934   1.512   0.906  0.3897 -1.0118 -0.4436
  795TIP3    H123800   3.888   1.429   0.898 -0.4780 -0.5558 -0.3865
  795TIP3    H223801   3.908   1.562   0.829  1.1022 -0.8822 -0.6082
  796TIP3   OH223802   1.047   2.848  14.553  0.0368 -0.1455  0.2359
  796TIP3    H123803   1.003   2.770  14.520  0.8063  0.4021 -2.3317
  796TIP3    H223804   1.105   2.816  14.622 -0.6777 -1.6136  0.1936
  797TIP3   OH223805   3.291   2.897   1.563  0.7121  0.1883 -0.0581
  797TIP3    H123806   3.248   2.983   1.562  0.1793 -0.0866 -0.9713
  797TIP3    H223807   3.263   2.855   1.482  2.4022 -0.1536 -0.4919
  798TIP3   OH223808   1.477   3.338   4.682  0.4409  0.0388 -0.1057
  798TIP3    H123809   1.470   3.317   4.588 -1.0234 -1.6272  0.3325
  798TIP3    H223810   1.521   3.262   4.720  1.1952  0.7903  0.5557
  799TIP3   OH223811   0.789   0.446   0.932 -0.0027 -0.0008 -0.4425
  799TIP3    H123812   0.709   0.394   0.943 -1.0117  1.7114  0.6625
  799TIP3    H223813   0.763   0.519   0.876  0.3354  1.3960  1.1368
  800TIP3   OH223814   3.448   6.652  14.408 -0.1478 -0.2283 -0.1172
  800TIP3    H123815   3.517   6.605  14.454 -1.8735 -1.1860  1.6605
  800TIP3    H223816   3.420   6.592  14.339 -0.7584 -0.8666  0.6612
  801TIP3   OH223817   6.682   6.196  13.159 -0.6751 -0.1395 -0.0381
  801TIP3    H123818   6.669   6.122  13.099 -1.1616 -1.5262  1.6725
  801TIP3    H223819   6.736   6.258  13.110 -0.6239 -1.4332 -1.7067
  802TIP3   OH223820   2.155   5.286   2.547 -0.3879  0.5812 -0.0878
  802TIP3    H123821   2.147   5.196   2.516  0.1835  0.1562  0.9502
  802TIP3    H223822   2.246   5.310   2.527 -0.6839  1.1324 -0.8443
  803TIP3   OH223823   0.746   2.731  13.760 -0.2224  0.4590 -0.4469
  803TIP3    H123824   0.765   2.720  13.667  2.1791  2.4793 -0.3136
  803TIP3    H223825   0.787   2.655  13.802 -0.4802  0.0379 -0.9460
  804TIP3   OH223826   5.446   0.206  11.832 -0.8133 -0.2806 -0.3208
  804TIP3    H123827   5.509   0.141  11.803 -1.9355 -0.5586 -2.3182
  804TIP3    H223828   5.361   0.171  11.804 -1.7200  0.7873  0.9467
  805TIP3   OH223829   1.869   6.109   0.678 -0.1272 -0.0678  0.5733
  805TIP3    H123830   1.915   6.156   0.748 -0.1785  2.4116 -0.9081
  805TIP3    H223831   1.803   6.057   0.723  1.0528 -0.0556  2.4494
  806TIP3   OH223832   2.776   2.195   5.233  0.4249 -0.6188 -0.3338
  806TIP3    H123833   2.727   2.204   5.316  1.2721  4.0357 -0.0813
  806TIP3    H223834   2.710   2.166   5.170 -1.5769  0.8525  0.9482
  807TIP3   OH223835   5.805   1.592   2.666  0.2792  0.4432  0.9409
  807TIP3    H123836   5.719   1.554   2.687  0.1863  0.2770  0.2927
  807TIP3    H223837   5.825   1.649   2.740  0.1551 -0.4272  1.6672
  808TIP3   OH223838   2.596   3.715  14.959 -0.3726  0.4547  0.0568
  808TIP3    H123839   2.664   3.679  14.902 -1.4171 -1.7059  0.0588
  808TIP3    H223840   2.596   3.656  15.035 -1.3403  1.2188  0.6631
  809TIP3   OH223841   5.576   5.188   1.104 -0.5018 -0.0929  0.7550
  809TIP3    H123842   5.594   5.142   1.185  1.0554  0.4961  0.7725
  809TIP3    H223843   5.480   5.195   1.102 -0.6368 -1.1922  1.9090
  810TIP3   OH223844   2.101   3.570   4.659  0.1922  0.1696 -0.3287
  810TIP3    H123845   2.072   3.661   4.664  2.2726  0.8512  0.2834
  810TIP3    H223846   2.087   3.536   4.747 -1.3458 -0.3856 -0.7629
  811TIP3   OH223847   0.597   3.946  16.807 -0.6803 -0.1903  0.2503
  811TIP3    H123848   0.607   3.866  16.755 -0.3590 -0.6085  0.9358
  811TIP3    H223849   0.680   3.953  16.855 -0.5906  0.7160 -0.0131
  812TIP3   OH223850   4.649   4.856  12.413  0.2344  0.0785 -0.0049
  812TIP3    H123851   4.658   4.765  12.385 -0.5605 -0.5870  1.7514
  812TIP3    H223852   4.580   4.891  12.357 -1.6262 -1.3273  1.2836
  813TIP3   OH223853   5.949   1.162  12.902  0.0841 -0.2757 -0.2524
  813TIP3    H123854   5.870   1.205  12.870  0.1110  1.2091  1.4940
  813TIP3    H223855   5.918   1.103  12.970  0.5764  2.2150  2.3084
  814TIP3   OH223856   0.973   2.056  13.217 -0.0046  0.6668 -0.1025
  814TIP3    H123857   1.007   2.140  13.248  1.1922  0.6973 -1.3913
  814TIP3    H223858   0.970   2.066  13.122  0.1494 -0.7633 -0.2701
  815TIP3   OH223859   6.144   6.427  13.124 -0.2127  0.0168 -0.6630
  815TIP3    H123860   6.131   6.519  13.102  0.3003  0.0180 -0.9670
  815TIP3    H223861   6.067   6.403  13.176 -0.9566  0.2732 -1.6409
  816TIP3   OH223862   5.905   2.731   6.291 -0.1295  0.0309 -0.1678
  816TIP3    H123863   5.998   2.709   6.286 -0.1673  0.0244 -0.8947
  816TIP3    H223864   5.900   2.820   6.256 -0.5969 -0.5354 -1.6079
  817TIP3   OH223865   5.052   4.583   2.179  0.5618  0.0529 -0.1211
  817TIP3    H123866   5.025   4.620   2.096  0.7336 -0.0106 -0.2055
  817TIP3    H223867   5.114   4.513   2.156  0.7597  0.1646  0.0663
  818TIP3   OH223868   4.709   2.344   4.360 -0.6137  0.7296 -0.4014
  818TIP3    H123869   4.717   2.340   4.455  1.0776  0.3729 -0.5243
  818TIP3    H223870   4.681   2.256   4.334 -0.1089  0.5375 -0.3020
  819TIP3   OH223871   4.667   3.160  11.387  0.0378  0.0880 -0.2823
  819TIP3    H123872   4.689   3.210  11.466  0.1198  1.0106 -0.8724
  819TIP3    H223873   4.660   3.226  11.318 -4.4077 -0.0567 -0.2344
  820TIP3   OH223874   1.170   4.782   5.699 -0.3878  0.0580 -0.1421
  820TIP3    H123875   1.215   4.698   5.686  0.9967  0.5011  1.4265
  820TIP3    H223876   1.152   4.785   5.793 -0.9097  1.2959 -0.2586
  821TIP3   OH223877   6.425   3.039   3.419 -0.0832 -0.3438 -0.1651
  821TIP3    H123878   6.456   2.951   3.397  0.1413 -0.6230  1.1917
  821TIP3    H223879   6.364   3.026   3.492 -0.5497  0.5671 -0.3747
  822TIP3   OH223880   6.291   5.245   6.036 -0.1276 -0.1742  0.1365
  822TIP3    H123881   6.312   5.288   5.953 -1.9724 -1.6909 -1.2080
  822TIP3    H223882   6.232   5.173   6.012 -0.0041 -1.2426  2.6712
  823TIP3   OH223883   2.474   2.700  11.155  0.3385  0.0751 -0.0110
  823TIP3    H123884   2.505   2.637  11.091 -0.3626  0.8682 -1.1769
  823TIP3    H223885   2.513   2.783  11.128 -0.2866  0.4966  0.3324
  824TIP3   OH223886   6.581   0.397  16.004  0.1828  0.3202  0.3270
  824TIP3    H123887   6.618   0.485  16.013 -0.6510  0.7085  0.0553
  824TIP3    H223888   6.653   0.338  16.029  1.3055  1.0179 -1.0682
  825TIP3   OH223889   6.570   4.850   1.265  0.5206 -0.7571 -0.4663
  825TIP3    H123890   6.614   4.918   1.214 -0.4561 -0.9063 -1.5648
  825TIP3    H223891   6.641   4.806   1.313  1.1244  1.2533  0.5786
  826TIP3   OH223892   3.185   4.062  14.130  0.0664  0.2778 -0.4329
  826TIP3    H123893   3.143   4.138  14.169  2.4742  1.1480  0.6572
  826TIP3    H223894   3.118   4.023  14.074 -1.7360  2.2450  0.2495
  827TIP3   OH223895   1.439   2.113  13.258 -0.3295 -0.3436 -0.5338
  827TIP3    H123896   1.413   2.023  13.279  1.6362 -0.8722 -0.0858
  827TIP3    H223897   1.392   2.133  13.177 -0.3988 -2.0073 -0.9498
  828TIP3   OH223898   0.447   1.053  16.449  0.8414  0.2896  0.3264
  828TIP3    H123899   0.488   1.132  16.484 -0.8713  1.5791 -0.4089
  828TIP3    H223900   0.357   1.058  16.481  0.4291 -0.8066 -0.6210
  829TIP3   OH223901   5.710   4.247  13.313 -0.0856  0.1578  0.1657
  829TIP3    H123902   5.781   4.272  13.372 -1.2041  0.8527  1.2747
  829TIP3    H223903   5.650   4.321  13.316 -0.0084  0.3802 -2.1715
  830TIP3   OH223904   3.692   5.930  14.818 -0.5074  0.1120 -0.0431
  830TIP3    H123905   3.786   5.930  14.799 -0.3433  0.5369  0.7343
  830TIP3    H223906   3.686   5.961  14.908 -1.2542 -1.8572  0.6384
  831TIP3   OH223907   1.882   0.163  12.368  0.4676 -0.1137 -0.0366
  831TIP3    H123908   1.965   0.156  12.416  0.4395 -0.3707 -0.0227
  831TIP3    H223909   1.874   0.256  12.347 -0.0488  0.1856  1.3934
  832TIP3   OH223910   4.103   3.648   1.133 -0.6418  0.4590  0.2692
  832TIP3    H123911   4.164   3.577   1.112 -0.0686  0.9004  0.4044
  832TIP3    H223912   4.098   3.699   1.052 -1.4935 -0.0381 -0.0096
  833TIP3   OH223913   6.639   1.841  16.462  0.4028  0.3744 -0.6513
  833TIP3    H123914   6.677   1.891  16.389 -0.8596  0.6061 -1.1681
  833TIP3    H223915   6.561   1.800  16.425  0.2889 -0.3140  0.3249
  834TIP3   OH223916   3.368   3.317  11.140 -0.1501  0.1040 -0.1447
  834TIP3    H123917   3.319   3.399  11.136  0.0233  0.5088  3.5014
  834TIP3    H223918   3.460   3.343  11.139 -0.0486 -0.2367 -0.8354
  835TIP3   OH223919   3.319   0.934   5.578  0.7319 -0.0827  0.0733
  835TIP3    H123920   3.261   0.885   5.636  2.9502 -0.7525  1.8814
  835TIP3    H223921   3.263   0.960   5.505 -1.3471 -2.3999  0.6818
  836TIP3   OH223922   3.490   1.981  13.199 -0.1610 -0.0509  0.6604
  836TIP3    H123923   3.514   1.892  13.227  0.6248 -0.3975 -1.0249
  836TIP3    H223924   3.565   2.035  13.224  0.6820 -0.4167 -0.9614
  837TIP3   OH223925   5.967   0.285   0.288  0.0314 -1.1345  0.2195
  837TIP3    H123926   5.879   0.254   0.267 -0.2263  0.1789 -0.8327
  837TIP3    H223927   5.980   0.361   0.231  1.3430 -0.4932  1.2912
  838TIP3   OH223928   2.853   2.985  15.663 -0.2115 -0.1666  0.0648
  838TIP3    H123929   2.882   3.055  15.605  0.8822  1.1784  2.1047
  838TIP3    H223930   2.812   2.921  15.605  1.6763  0.6138 -2.2798
  839TIP3   OH223931   0.545   5.967   0.288  0.2520 -0.6328 -0.9015
  839TIP3    H123932   0.614   5.907   0.316  1.0238 -0.0270 -1.4658
  839TIP3    H223933   0.591   6.039   0.247 -0.6696  0.2900 -0.3675
  840TIP3   OH223934   0.364   4.228   5.042 -0.1685  0.0874 -0.0195
  840TIP3    H123935   0.383   4.242   5.135 -0.5346  2.7175 -0.2452
  840TIP3    H223936   0.276   4.265   5.031 -0.6564 -1.3449 -1.2026
  841TIP3   OH223937   5.835   1.990   1.057 -0.0834  0.2510 -0.6526
  841TIP3    H123938   5.786   2.068   1.033  0.8385  0.8049 -0.8041
  841TIP3    H223939   5.853   1.947   0.973 -0.5283 -0.0873 -0.5754
  842TIP3   OH223940   1.248   2.329   4.747 -0.4112 -0.5284 -0.1458
  842TIP3    H123941   1.234   2.331   4.841  1.8613 -1.3410  0.2731
  842TIP3    H223942   1.186   2.264   4.714  1.4763 -3.3114  1.4162
  843TIP3   OH223943   1.881   1.748  13.236  0.7726 -0.3622 -0.5055
  843TIP3    H123944   1.850   1.669  13.192 -1.1028 -0.0808  0.2200
  843TIP3    H223945   1.829   1.752  13.317  0.4989  1.8278 -0.7421
  844TIP3   OH223946   5.775   4.943   1.886 -0.0816  0.3866 -1.3463
  844TIP3    H123947   5.765   4.938   1.791  0.5522 -3.2356 -1.3737
  844TIP3    H223948   5.806   4.856   1.911  2.1345  1.9360  1.9426
  845TIP3   OH223949   0.352   0.888  11.340  0.0232  0.0141  0.1461
  845TIP3    H123950   0.350   0.939  11.421 -1.0612  1.3685 -0.6879
  845TIP3    H223951   0.391   0.947  11.276 -0.5364 -0.4744 -0.6677
  846TIP3   OH223952   1.638   0.663   0.222 -0.0064 -0.2080 -0.3086
  846TIP3    H123953   1.694   0.660   0.144 -0.4694 -2.1894 -0.6075
  846TIP3    H223954   1.549   0.670   0.187 -0.2446 -1.5097  0.0013
  847TIP3   OH223955   5.818   6.618  15.802 -0.1652 -0.1713 -0.5246
  847TIP3    H123956   5.870   6.685  15.757 -1.3664  0.1740 -1.4504
  847TIP3    H223957   5.809   6.651  15.892  0.8202 -0.0252 -0.4713
  848TIP3   OH223958   6.392   4.377   4.451  0.1023 -0.3046 -0.2222
  848TIP3    H123959   6.300   4.402   4.439  0.3533  2.1737  1.9561
  848TIP3    H223960   6.413   4.406   4.540  2.6729 -2.0008 -0.1628
  849TIP3   OH223961   0.648   5.637  12.908 -0.0500 -0.1289 -1.0379
  849TIP3    H123962   0.680   5.608  12.994 -0.7683  0.4084 -0.5673
  849TIP3    H223963   0.553   5.634  12.916 -0.1306 -1.0741 -2.1855
  850TIP3   OH223964   0.665   4.052   4.261 -0.0953 -0.0496 -0.3938
  850TIP3    H123965   0.760   4.064   4.258  0.1398 -0.5743  2.3162
  850TIP3    H223966   0.629   4.140   4.269  0.4326  0.0368  1.6423
  851TIP3   OH223967   2.039   5.078  16.314 -0.2519 -0.4402 -0.6592
  851TIP3    H123968   1.962   5.126  16.283 -0.2500 -0.6833 -1.0504
  851TIP3    H223969   2.029   5.075  16.409 -0.5684 -0.2073 -0.6848
  852TIP3   OH223970   0.128   3.108  13.754  0.3366 -0.4225  0.5299
  852TIP3    H123971   0.220   3.132  13.761  0.6770 -1.3638 -0.5020
  852TIP3    H223972   0.082   3.192  13.742  1.0289  0.0614  1.2076
  853TIP3   OH223973   3.106   6.115  16.969  0.5473 -0.4739  0.4098
  853TIP3    H123974   3.052   6.167  16.910  1.4521  0.8241  0.6678
  853TIP3    H223975   3.168   6.070  16.912 -0.2269 -1.2809  0.1880
  854TIP3   OH223976   3.043   4.442  10.684  0.0855 -0.4306 -0.2228
  854TIP3    H123977   3.079   4.423  10.771  1.0616 -2.1967 -0.9457
  854TIP3    H223978   2.948   4.434  10.695  0.2114 -0.9046  0.6337
  855TIP3   OH223979   5.248   4.164  15.212 -0.0461  0.1955  0.5181
  855TIP3    H123980   5.253   4.192  15.304 -1.7871  0.0286  0.7075
  855TIP3    H223981   5.264   4.244  15.162  0.6993  0.3335  0.9509
  856TIP3   OH223982   6.557   6.484  11.429  0.1380  0.6814  0.6161
  856TIP3    H123983   6.637   6.479  11.377 -1.6237  0.9426 -2.3363
  856TIP3    H223984   6.538   6.577  11.437  0.1112  0.6223  1.2530
  857TIP3   OH223985   3.326   2.777   0.094 -0.1679  0.5501  0.5565
  857TIP3    H123986   3.253   2.824   0.136 -0.1857  0.5026  0.5789
  857TIP3    H223987   3.400   2.790   0.153 -0.5150 -0.6197  1.2881
  858TIP3   OH223988   2.732   2.826   3.547  0.3470 -0.2151  0.1380
  858TIP3    H123989   2.825   2.822   3.568  0.1752 -0.0719  0.9360
  858TIP3    H223990   2.706   2.734   3.535 -0.0008 -0.5061  2.5990
  859TIP3   OH223991   0.524   1.265   0.951 -0.5614  0.1390  0.1599
  859TIP3    H123992   0.484   1.345   0.985  1.2018  1.2330 -0.1613
  859TIP3    H223993   0.554   1.289   0.863 -0.2720 -0.9614 -0.0559
  860TIP3   OH223994   6.711   2.886   0.324 -0.1980 -0.0759  0.3602
  860TIP3    H123995   6.683   2.899   0.415  2.4158  0.5599  1.1556
  860TIP3    H223996   6.651   2.941   0.273 -2.2987 -1.1500  1.5343
  861TIP3   OH223997   1.517   2.314  14.236 -0.0953 -0.1772  0.3114
  861TIP3    H123998   1.460   2.283  14.166  1.0422 -2.1040  0.1636
  861TIP3    H223999   1.457   2.355  14.299 -1.3684 -0.2034 -0.8322
  862TIP3   OH224000   1.132   1.683   4.853 -0.3315  0.3894  0.2648
  862TIP3    H124001   1.170   1.658   4.769  0.0479 -0.0501  0.5626
  862TIP3    H224002   1.138   1.604   4.907 -0.7459  0.6097  0.6466
  863TIP3   OH224003   1.145   3.298   1.402 -0.3273 -0.3484  0.1442
  863TIP3    H124004   1.162   3.338   1.487 -1.0641 -1.1558  0.6872
  863TIP3    H224005   1.151   3.204   1.417  0.5649 -0.4946 -0.9361
  864TIP3   OH224006   5.819   0.948  13.326 -0.1670 -0.2244 -0.3851
  864TIP3    H124007   5.915   0.955  13.329 -0.0155 -1.7325 -1.1482
  864TIP3    H224008   5.789   1.008  13.395  1.2553  1.3301 -1.0626
  865TIP3   OH224009   2.279   2.479  14.661 -0.0661  0.5030  0.3011
  865TIP3    H124010   2.192   2.512  14.683 -0.0097 -0.2621  1.8350
  865TIP3    H224011   2.331   2.558  14.645 -1.2238  0.9488 -1.5381
  866TIP3   OH224012   3.651   1.683   4.721  0.0266  0.0935  0.1077
  866TIP3    H124013   3.562   1.718   4.716  0.1580  0.1973 -2.0388
  866TIP3    H224014   3.700   1.749   4.770 -0.9679  0.1933  1.0167
  867TIP3   OH224015   2.873   5.718  14.090  0.6625 -0.2304 -0.0096
  867TIP3    H124016   2.896   5.785  14.026  1.5914 -2.4118 -2.1486
  867TIP3    H224017   2.947   5.715  14.150 -0.1454  1.7430  1.1677
  868TIP3   OH224018   3.430   5.666   4.726  0.1435 -0.2959 -0.0117
  868TIP3    H124019   3.518   5.634   4.708  0.8313  0.9338  1.0467
  868TIP3    H224020   3.392   5.599   4.784 -0.2211 -1.6231 -1.7230
  869TIP3   OH224021   5.076   6.438   2.265 -0.2266 -0.1192  0.3388
  869TIP3    H124022   5.136   6.393   2.205 -0.3525 -0.1786  0.2582
  869TIP3    H224023   5.085   6.390   2.348 -1.4558 -1.2265 -0.1441
  870TIP3   OH224024   1.793   1.189   1.309 -0.0542 -0.0939  0.3008
  870TIP3    H124025   1.710   1.193   1.261 -0.0894  0.2190  0.3798
  870TIP3    H224026   1.814   1.096   1.314  1.0164 -0.0510 -2.1367
  871TIP3   OH224027   0.410   6.700  11.953 -0.2066  0.1501 -0.4282
  871TIP3    H124028   0.374   6.787  11.967  2.4142  1.4858 -1.3378
  871TIP3    H224029   0.407   6.658  12.039  1.0109  2.2059  0.6890
  872TIP3   OH224030   3.135   6.700  15.286  0.4652 -0.0289  0.1422
  872TIP3    H124031   3.199   6.668  15.350  0.1760  0.3541  0.6299
  872TIP3    H224032   3.089   6.770  15.331 -0.2729 -0.2683 -0.2193
  873TIP3   OH224033   2.529   5.865  16.731  0.5408 -0.1667  0.1466
  873TIP3    H124034   2.484   5.948  16.715  2.9166  1.2461  0.3077
  873TIP3    H224035   2.571   5.844  16.648  0.0241 -1.1969  0.1318
  874TIP3   OH224036   2.829   0.103   2.954  0.2942  0.2446  0.0596
  874TIP3    H124037   2.737   0.114   2.932  0.1341 -0.3154  0.4056
  874TIP3    H224038   2.830   0.027   3.013  1.1074 -0.4920 -0.8745
  875TIP3   OH224039   6.084   6.087   5.028 -0.0014 -0.0570  0.0795
  875TIP3    H124040   6.027   6.088   4.951  0.6958 -0.1878 -0.4408
  875TIP3    H224041   6.115   6.177   5.037 -0.9162  0.2020  0.8479
  876TIP3   OH224042   4.415   6.507   0.948 -0.5127 -0.2807 -0.0345
  876TIP3    H124043   4.337   6.535   0.900  1.0856 -0.3913 -2.9624
  876TIP3    H224044   4.448   6.432   0.897  0.2460 -1.7727  2.4836
  877TIP3   OH224045   4.234   3.595   0.816 -0.2178 -0.0453 -0.3366
  877TIP3    H124046   4.233   3.532   0.744 -2.9777 -1.2546  0.5967
  877TIP3    H224047   4.142   3.617   0.829  0.2792  0.8716  2.1754
  878TIP3   OH224048   2.611   5.257  15.161 -0.4615  0.4922 -0.0183
  878TIP3    H124049   2.661   5.197  15.106  1.9595  0.3166  2.1651
  878TIP3    H224050   2.552   5.201  15.211  2.4154 -0.4206  2.6751
  879TIP3   OH224051   6.177   0.719   0.005  0.2540  0.4406 -0.4323
  879TIP3    H124052   6.127   0.767  -0.061  0.1164  1.9045  0.6804
  879TIP3    H224053   6.267   0.747  -0.009  0.1344  1.2997  0.4090
  880TIP3   OH224054   1.375   3.712  12.345 -0.3144 -0.2129  0.0192
  880TIP3    H124055   1.397   3.754  12.262  0.4155 -0.1279  0.2418
  880TIP3    H224056   1.351   3.784  12.403  2.6908  0.1742  0.9459
  881TIP3   OH224057   2.123   4.529   4.539 -0.1626 -0.3870 -0.1622
  881TIP3    H124058   2.182   4.462   4.574  1.7902 -0.1382 -2.6616
  881TIP3    H224059   2.179   4.606   4.527 -1.4783  0.5029 -0.8146
  882TIP3   OH224060   1.640   6.048   2.070  0.2121  0.5163  0.0538
  882TIP3    H124061   1.669   6.057   1.979 -1.2937 -0.3541 -0.5524
  882TIP3    H224062   1.554   6.091   2.071 -0.1202 -0.1515  0.8723
  883TIP3   OH224063   0.741   0.800  15.830 -0.1576 -1.0327  0.1859
  883TIP3    H124064   0.720   0.711  15.856 -3.2836 -0.7565 -0.8844
  883TIP3    H224065   0.792   0.791  15.749 -2.0720 -1.9346 -0.9853
  884TIP3   OH224066   2.463   5.038   2.418 -0.0587 -0.2438  0.0733
  884TIP3    H124067   2.402   5.106   2.445  0.7487 -0.5881  3.1615
  884TIP3    H224068   2.428   4.958   2.457  1.0341 -0.8782 -0.2180
  885TIP3   OH224069   6.013   4.785   4.382 -0.2473  0.4927 -0.3451
  885TIP3    H124070   5.923   4.801   4.353 -0.4364  1.9970  0.9391
  885TIP3    H224071   6.016   4.821   4.471  1.4174 -0.2399 -0.0782
  886TIP3   OH224072   1.271   2.206   5.579 -0.0870  0.3450  0.3150
  886TIP3    H124073   1.206   2.154   5.628 -0.3597 -1.0251 -1.4088
  886TIP3    H224074   1.308   2.144   5.516  1.5111  1.6182 -0.0577
  887TIP3   OH224075   3.596   4.578   0.691 -0.2881  0.2480  0.4674
  887TIP3    H124076   3.687   4.558   0.714 -0.4900  2.1591  3.4113
  887TIP3    H224077   3.556   4.492   0.675  1.6817 -0.7161  0.3987
  888TIP3   OH224078   1.883   0.767   5.109  0.4107 -0.0146 -0.4166
  888TIP3    H124079   1.869   0.676   5.086  0.4875 -0.0224 -0.4323
  888TIP3    H224080   1.969   0.788   5.074  0.4457  0.0281 -0.3075
  889TIP3   OH224081   0.213   4.574  14.782 -0.1548 -0.1420  0.5983
  889TIP3    H124082   0.206   4.501  14.721 -0.5041  1.6582 -1.6685
  889TIP3    H224083   0.306   4.593  14.786 -0.3303  2.0922 -2.5425
  890TIP3   OH224084   5.794   1.424  10.767  0.6784  0.2433  0.0346
  890TIP3    H124085   5.830   1.354  10.713  1.8601  0.0800  1.0096
  890TIP3    H224086   5.865   1.487  10.777  0.7005 -0.0459  1.9287
  891TIP3   OH224087   5.640   3.827   3.395 -0.1498  0.4574  0.0321
  891TIP3    H124088   5.708   3.807   3.459 -0.7329 -0.7471  0.3153
  891TIP3    H224089   5.654   3.918   3.371 -0.5058  1.2642  2.6122
  892TIP3   OH224090   6.644   4.003   1.077  0.6235  0.3049  0.6915
  892TIP3    H124091   6.686   3.976   1.159  0.0168  1.5114  1.4313
  892TIP3    H224092   6.680   4.090   1.059  0.1549  0.3837  0.0999
  893TIP3   OH224093   1.587   2.082  16.805 -0.2008  0.1261  0.2947
  893TIP3    H124094   1.650   2.144  16.770 -0.3426  0.4312  0.5684
  893TIP3    H224095   1.592   2.007  16.747  0.9785 -0.1839  0.7697
  894TIP3   OH224096   3.355   2.950  14.232  0.3426 -0.2407 -0.4276
  894TIP3    H124097   3.289   2.906  14.286 -0.1780  0.7538 -0.2180
  894TIP3    H224098   3.325   2.936  14.142 -1.0494  1.4589 -0.2995
  895TIP3   OH224099   5.966   6.063   5.987  0.3089  0.1561 -0.4388
  895TIP3    H124100   6.054   6.091   6.012 -0.2114  1.2173  0.2739
  895TIP3    H224101   5.929   6.025   6.067 -0.8472  2.2402  0.0848
  896TIP3   OH224102   3.762   1.353   3.874  0.6345 -0.4665  0.0965
  896TIP3    H124103   3.765   1.258   3.883  2.9309 -0.3770  1.0043
  896TIP3    H224104   3.815   1.386   3.946 -0.9648  1.5866  0.4295
  897TIP3   OH224105   0.896   6.587  11.411  0.2739 -0.0728  0.4990
  897TIP3    H124106   0.988   6.561  11.410 -0.0392 -1.2143  0.5233
  897TIP3    H224107   0.893   6.659  11.475  1.0681 -0.3371  0.8495
  898TIP3   OH224108   6.563   2.152   0.528  0.2886 -0.3919 -0.6903
  898TIP3    H124109   6.497   2.143   0.460 -1.0552  0.0769  0.4854
  898TIP3    H224110   6.616   2.226   0.501  0.6412 -1.0576 -1.8808
  899TIP3   OH224111   1.802   4.877  14.346 -0.3400 -0.0742  0.0757
  899TIP3    H124112   1.721   4.892  14.298 -0.9092 -1.3061  0.6073
  899TIP3    H224113   1.782   4.901  14.437 -0.8617 -2.4904  0.6694
  900TIP3   OH224114   2.676   5.750   3.152  0.0289 -0.0382  0.1378
  900TIP3    H124115   2.769   5.772   3.162  0.4036 -0.5742 -1.8046
  900TIP3    H224116   2.662   5.676   3.210  0.5516  0.6748  1.2021
  901TIP3   OH224117   5.814   2.898  12.663  0.2178 -0.1741  0.0420
  901TIP3    H124118   5.815   2.992  12.649 -0.3363 -0.4182 -1.9485
  901TIP3    H224119   5.820   2.861  12.575  0.1271 -1.9995  0.7634
  902TIP3   OH224120   3.506   3.939   3.958  0.0588 -0.0154 -0.0338
  902TIP3    H124121   3.536   4.029   3.969  0.5970 -0.2893  0.8239
  902TIP3    H224122   3.562   3.904   3.889 -1.0681  0.6988 -1.3579
  903TIP3   OH224123   2.979   4.315  14.872  0.2229  0.2418  0.9647
  903TIP3    H124124   3.056   4.260  14.883  0.8072  0.9016  0.3402
  903TIP3    H224125   2.947   4.296  14.784 -0.1417  0.2009  1.1022
  904TIP3   OH224126   3.459   6.669  11.225  0.6482  0.1387  0.3005
  904TIP3    H124127   3.501   6.664  11.139 -1.6359  1.0037 -0.9512
  904TIP3    H224128   3.424   6.758  11.229 -1.1954 -0.5792  1.1434
  905TIP3   OH224129   0.936   4.139  11.413 -0.2363 -0.0041  0.3749
  905TIP3    H124130   0.952   4.081  11.488 -1.2843 -0.1842  0.4812
  905TIP3    H224131   0.922   4.225  11.452 -1.9661 -0.3148  0.5214
  906TIP3   OH224132   0.103   3.925   2.392 -0.7312 -0.8209  0.5846
  906TIP3    H124133   0.092   3.852   2.330  0.6839  0.6028 -1.4857
  906TIP3    H224134   0.081   4.003   2.341  0.0553  0.3901  2.0179
  907TIP3   OH224135   6.251   4.056  14.967 -0.4667  0.0097  0.0015
  907TIP3    H124136   6.303   4.125  14.925  0.8890 -1.3838 -0.7013
  907TIP3    H224137   6.211   4.008  14.895 -1.2832 -0.0494  0.4782
  908TIP3   OH224138   3.757   1.466   5.801  0.6374 -0.2363 -0.3549
  908TIP3    H124139   3.793   1.391   5.848  1.3060 -0.9870 -1.9947
  908TIP3    H224140   3.813   1.539   5.828 -0.2775 -0.1690  1.5774
  909TIP3   OH224141   0.745   0.310  15.381 -0.6121  0.1277  0.3045
  909TIP3    H124142   0.658   0.341  15.357 -0.5216  0.8588  0.8819
  909TIP3    H224143   0.729   0.238  15.442 -0.8722 -2.4968 -2.6304
  910TIP3   OH224144   1.965   0.685  13.646  0.0905  1.0574  0.3377
  910TIP3    H124145   1.876   0.676  13.612 -0.4629  0.6893  1.7890
  910TIP3    H224146   1.998   0.765  13.605 -0.7569  0.9729 -0.5422
  911TIP3   OH224147   6.489   1.804  11.588  0.7816  0.6383  0.2891
  911TIP3    H124148   6.470   1.840  11.502 -1.7598 -0.1088  0.4525
  911TIP3    H224149   6.536   1.722  11.571  1.4325  1.1330 -0.3162
  912TIP3   OH224150   6.667   4.004  17.127  0.6609  0.5518  0.0373
  912TIP3    H124151   6.581   4.043  17.142 -0.4339 -2.4995  2.7894
  912TIP3    H224152   6.726   4.056  17.181 -0.0056  0.8667  0.4807
  913TIP3   OH224153   0.184   0.309  16.301 -0.3612 -0.0813 -0.1716
  913TIP3    H124154   0.280   0.317  16.300 -0.3005 -0.7197 -1.3130
  913TIP3    H224155   0.164   0.276  16.388  0.7322 -2.6698 -0.7983
  914TIP3   OH224156   1.494   5.760  11.103  0.2958  0.2917 -0.8932
  914TIP3    H124157   1.560   5.750  11.034  2.1474 -2.1633  1.0205
  914TIP3    H224158   1.434   5.687  11.090  1.1553 -0.7187  0.4907
  915TIP3   OH224159   1.370   3.988  12.507 -0.5931  0.0713 -0.2422
  915TIP3    H124160   1.330   4.011  12.423  0.5772  1.0196 -0.5839
  915TIP3    H224161   1.461   4.019  12.499 -0.6552  0.8871  1.6408
  916TIP3   OH224162   4.713   5.465   0.232 -0.3042  0.7022 -0.2574
  916TIP3    H124163   4.699   5.442   0.140  0.7577 -0.0460 -0.2475
  916TIP3    H224164   4.651   5.409   0.280 -0.2496  0.4652 -0.4599
  917TIP3   OH224165   4.085   2.238   3.102 -0.2267  0.8317 -0.7233
  917TIP3    H124166   4.050   2.326   3.088 -0.4995  0.8206 -0.1166
  917TIP3    H224167   4.055   2.189   3.025 -0.0326  1.2747 -1.0908
  918TIP3   OH224168   5.470   2.322   5.036  0.4895 -0.5965  1.3355
  918TIP3    H124169   5.477   2.258   5.108 -2.4217 -1.6750  0.8099
  918TIP3    H224170   5.402   2.383   5.065  0.5393 -0.0035  0.2423
  919TIP3   OH224171   0.090   4.247   2.987 -0.0105 -0.4169 -0.0778
  919TIP3    H124172   0.092   4.248   3.083  2.1466  1.1388 -0.0532
  919TIP3    H224173   0.166   4.195   2.962 -0.1000 -0.1458 -0.9488
  920TIP3   OH224174   1.752   5.498  12.303 -0.1495 -0.0522 -0.5177
  920TIP3    H124175   1.682   5.543  12.256  0.4223  0.0113 -1.3292
  920TIP3    H224176   1.707   5.447  12.370 -0.9840 -0.2002 -1.1806
  921TIP3   OH224177   5.301   1.378   4.193 -0.3674 -0.2181  0.4524
  921TIP3    H124178   5.262   1.291   4.192 -0.9019  0.0128 -0.3022
  921TIP3    H224179   5.360   1.378   4.268 -0.1703 -1.3060  0.3017
  922TIP3   OH224180   4.388   2.834   3.693  0.0782 -0.0485  0.4981
  922TIP3    H124181   4.354   2.757   3.739  0.1506 -1.1827 -1.2498
  922TIP3    H224182   4.399   2.805   3.602 -1.0452  2.3872 -0.4905
  923TIP3   OH224183   0.762   3.995  15.122 -0.0038  0.2688  0.1246
  923TIP3    H124184   0.768   4.048  15.202  0.4201  3.1524 -1.6447
  923TIP3    H224185   0.680   4.023  15.082  1.0694  0.9581 -1.7090
  924TIP3   OH224186   2.904   0.530   0.280 -0.2436  0.1979  0.2631
  924TIP3    H124187   2.875   0.442   0.302  0.5908 -0.2615 -0.4565
  924TIP3    H224188   2.999   0.525   0.279 -0.1928  1.0708  0.0445
  925TIP3   OH224189   4.124   4.802   4.768 -0.3628  0.0234 -0.5540
  925TIP3    H124190   4.215   4.779   4.789  0.0571  2.3755  0.4700
  925TIP3    H224191   4.115   4.778   4.675  1.0163 -1.0248 -0.4523
  926TIP3   OH224192   5.017   2.909  15.963 -0.2270 -0.6558  0.1905
  926TIP3    H124193   4.981   2.857  15.892 -1.5122  0.1857  0.2015
  926TIP3    H224194   4.941   2.937  16.014  0.4946  0.5460  0.6516
  927TIP3   OH224195   5.373   3.954  14.609  0.4706  0.1054 -0.1948
  927TIP3    H124196   5.363   3.970  14.515  0.4835  2.1858  0.1200
  927TIP3    H224197   5.453   4.000  14.633  0.5893 -0.5896  0.8170
  928TIP3   OH224198   0.588   3.585   2.218  0.1478 -0.6901 -0.5156
  928TIP3    H124199   0.554   3.495   2.216  0.2690 -0.7238 -1.2618
  928TIP3    H224200   0.607   3.605   2.126 -1.3684  0.6558 -0.5827
  929TIP3   OH224201   6.653   2.830   0.587  0.6042  0.0305 -0.5630
  929TIP3    H124202   6.576   2.872   0.624  1.5816  1.4704 -0.0798
  929TIP3    H224203   6.702   2.799   0.663  1.0417  0.1204 -0.8016
  930TIP3   OH224204   5.956   4.686   6.218  0.0379  0.2750  0.7581
  930TIP3    H124205   5.925   4.627   6.150  1.6706 -0.5474  0.6651
  930TIP3    H224206   5.981   4.766   6.172 -1.0241  0.6045  0.7238
  931TIP3   OH224207   3.572   3.189  16.505  0.5370  0.4081 -0.4793
  931TIP3    H124208   3.590   3.102  16.470  1.4990  0.1240  0.6755
  931TIP3    H224209   3.496   3.220  16.455  0.2512 -1.0394 -0.9759
  932TIP3   OH224210   6.341   6.010   4.565 -0.3020  0.0244  0.1124
  932TIP3    H124211   6.320   6.103   4.559 -0.1092 -0.0016 -1.2800
  932TIP3    H224212   6.436   6.006   4.560 -0.3590 -0.2978 -1.2202
  933TIP3   OH224213   0.561   4.342  16.700  0.4237 -0.5703 -0.2851
  933TIP3    H124214   0.585   4.289  16.624  1.9429  0.6395 -0.7136
  933TIP3    H224215   0.607   4.425  16.686  1.3369 -0.5449  2.2827
  934TIP3   OH224216   4.417   2.244  13.266  0.2070 -0.3585 -0.1170
  934TIP3    H124217   4.461   2.213  13.345  0.5989 -0.0429 -0.2120
  934TIP3    H224218   4.345   2.181  13.253  1.0639 -1.3069 -0.3798
  935TIP3   OH224219   4.136   6.154  12.265  0.1158 -0.0866 -0.6676
  935TIP3    H124220   4.173   6.067  12.254  1.0529  0.5082 -2.7772
  935TIP3    H224221   4.167   6.183  12.351 -0.3927 -1.8677  0.1584
  936TIP3   OH224222   0.819   0.085  10.983 -0.3777  0.3259 -0.2299
  936TIP3    H124223   0.774   0.007  11.017  0.1070  1.0899  2.4321
  936TIP3    H224224   0.753   0.132  10.933 -1.0967 -1.0348 -0.6078
  937TIP3   OH224225   3.531   4.142   3.637  0.1654  0.1461  0.2473
  937TIP3    H124226   3.571   4.175   3.717 -0.4551 -0.4737  0.8291
  937TIP3    H224227   3.493   4.058   3.662  0.3814 -0.2887 -0.8189
  938TIP3   OH224228   0.897   3.967   6.182  0.3777 -0.1647 -0.2018
  938TIP3    H124229   0.977   3.934   6.223  0.0249 -0.0346  0.6245
  938TIP3    H224230   0.846   4.003   6.255  0.6975  2.1656 -1.0280
  939TIP3   OH224231   5.350   0.707   5.923 -0.1945 -0.1659  0.3536
  939TIP3    H124232   5.320   0.688   6.012  1.0226 -0.3581  0.7465
  939TIP3    H224233   5.350   0.802   5.917  1.8321 -0.0347  1.3760
  940TIP3   OH224234   5.866   2.003   5.273  0.1186  0.4234 -0.2091
  940TIP3    H124235   5.811   2.079   5.253 -0.6822  0.2384  1.1677
  940TIP3    H224236   5.862   1.949   5.194 -0.1856  1.2837 -0.7959
  941TIP3   OH224237   0.115   1.071   2.097 -0.2271 -0.5376 -0.3886
  941TIP3    H124238   0.103   1.166   2.103 -0.1886 -0.4780 -1.1781
  941TIP3    H224239   0.207   1.060   2.072  0.0688 -0.8260  0.7806
  942TIP3   OH224240   6.382   1.700   2.174 -0.3544 -0.4068 -0.5487
  942TIP3    H124241   6.301   1.681   2.222  0.4609 -1.2493  0.5378
  942TIP3    H224242   6.447   1.642   2.213  0.9108  0.6393 -1.0418
  943TIP3   OH224243   0.937   3.589   5.159  0.0293  0.2131  0.3440
  943TIP3    H124244   0.900   3.666   5.204 -0.8337 -0.5752  1.0404
  943TIP3    H224245   0.993   3.625   5.091 -1.8050  1.5088 -0.5860
  944TIP3   OH224246   2.527   3.484  12.979 -0.2233 -0.1369 -0.3240
  944TIP3    H124247   2.602   3.510  12.926  0.8130 -1.8018  0.2643
  944TIP3    H224248   2.452   3.490  12.919  0.7454 -0.8563 -1.6397
  945TIP3   OH224249   5.187   2.050   5.135 -0.3814 -0.2481  0.0904
  945TIP3    H124250   5.211   2.037   5.227 -1.0996 -1.1239  0.1644
  945TIP3    H224251   5.115   1.989   5.120  0.0888 -0.5079 -1.2071
  946TIP3   OH224252   3.551   5.578  16.543  0.3923  0.2770  0.0341
  946TIP3    H124253   3.632   5.559  16.590  0.3367 -1.8667 -0.6110
  946TIP3    H224254   3.524   5.663  16.575  2.7496  0.9481  0.4768
  947TIP3   OH224255   4.000   1.656   3.441  0.6245 -0.1058 -0.6997
  947TIP3    H124256   4.062   1.666   3.369 -1.4892 -1.2379 -2.8499
  947TIP3    H224257   3.952   1.738   3.443  0.7298 -0.0472 -0.5081
  948TIP3   OH224258   1.776   2.390  17.106  0.5046  0.8950 -0.0665
  948TIP3    H124259   1.703   2.334  17.133 -0.6225  1.8928 -0.9417
  948TIP3    H224260   1.838   2.385  17.179 -0.8864  0.8222  1.1657
  949TIP3   OH224261   3.809   1.048   0.161  0.1805 -0.2323  0.2838
  949TIP3    H124262   3.765   1.038   0.245  0.6865 -1.7491  0.3928
  949TIP3    H224263   3.741   1.079   0.101  0.0673  1.9957  1.4636
  950TIP3   OH224264   4.914   0.979   0.830  0.0074  0.0997  0.1513
  950TIP3    H124265   4.833   0.931   0.841  0.2278 -0.2144  0.4133
  950TIP3    H224266   4.886   1.068   0.806 -0.4085 -0.0132  0.2127
  951TIP3   OH224267   5.858   0.136  11.605  0.3000 -0.5079 -0.0459
  951TIP3    H124268   5.772   0.107  11.638 -0.1148  2.4861  1.8341
  951TIP3    H224269   5.921   0.092  11.663 -0.1073 -0.5628  0.3672
  952TIP3   OH224270   4.681   4.282  16.558 -0.5404  0.1976 -0.4326
  952TIP3    H124271   4.663   4.359  16.503  0.4973  0.3903 -0.5263
  952TIP3    H224272   4.722   4.219  16.498  1.9143  0.9352  0.3515
  953TIP3   OH224273   4.360   1.972   3.454 -0.6619  0.2337  0.2547
  953TIP3    H124274   4.446   2.014   3.462 -1.3097  2.8311 -3.6680
  953TIP3    H224275   4.379   1.880   3.437  1.2893  0.5851  0.3390
  954TIP3   OH224276   4.062   5.444  10.524 -0.5912 -0.0518  0.3768
  954TIP3    H124277   3.974   5.432  10.489 -0.4284 -1.9074  0.4997
  954TIP3    H224278   4.120   5.404  10.460  0.3878  2.5480 -0.5056
  955TIP3   OH224279   3.959   1.429   1.593  0.3709  0.3195  0.3559
  955TIP3    H124280   3.966   1.480   1.673  1.1185  2.6997 -1.1033
  955TIP3    H224281   4.049   1.402   1.573  1.0308  3.4946 -1.8068
  956TIP3   OH224282   5.743   5.427   5.860 -0.3219 -0.3265  0.0124
  956TIP3    H124283   5.709   5.478   5.933 -0.4354  0.1005 -0.3387
  956TIP3    H224284   5.691   5.454   5.785 -0.7264 -1.3306 -0.0876
  957TIP3   OH224285   3.934   3.223   1.494  0.3582  0.6150  0.1701
  957TIP3    H124286   3.869   3.198   1.429  2.2905 -1.3489 -1.1669
  957TIP3    H224287   3.941   3.318   1.486 -0.6804  0.6032 -1.2650
  958TIP3   OH224288   4.880   3.666   1.977  0.1385 -0.1034  0.2595
  958TIP3    H124289   4.870   3.742   1.920 -1.1747  0.1568  0.7965
  958TIP3    H224290   4.837   3.594   1.929  0.7257 -0.3393  0.0804
  959TIP3   OH224291   3.555   3.679  10.937  0.1979  0.3295  0.0166
  959TIP3    H124292   3.489   3.626  10.891  1.2607 -1.7229  0.7494
  959TIP3    H224293   3.593   3.620  11.001  0.7946  2.2994  1.5742
  960TIP3   OH224294   2.850   2.784  15.013  0.1853 -0.1120 -0.0844
  960TIP3    H124295   2.811   2.743  15.090 -0.7019  2.0956  0.7099
  960TIP3    H224296   2.899   2.714  14.971 -0.4973 -1.7295  1.6872
  961TIP3   OH224297   0.660   3.216   0.031 -0.2132 -0.5131  0.8866
  961TIP3    H124298   0.634   3.127   0.055 -0.5263 -0.6091  0.1986
  961TIP3    H224299   0.743   3.206  -0.015 -0.0990 -0.4137  1.0657
  962TIP3   OH224300   6.152   0.066   3.713  0.0070 -0.2464  0.6492
  962TIP3    H124301   6.079   0.108   3.667 -0.3604 -0.0298  1.4196
  962TIP3    H224302   6.229   0.116   3.687  0.1109 -1.2759 -1.2227
  963TIP3   OH224303   1.872   1.252   5.994 -0.1587  0.1232  0.4360
  963TIP3    H124304   1.886   1.345   5.980 -0.1884  0.2994  1.5086
  963TIP3    H224305   1.776   1.241   5.993 -0.1958  0.2924  1.3911
  964TIP3   OH224306   6.634   2.638  12.800  0.4216  0.1470  0.0809
  964TIP3    H124307   6.678   2.663  12.719 -0.0072 -1.2848 -0.6223
  964TIP3    H224308   6.550   2.684  12.798  0.5145  0.3043 -0.1772
  965TIP3   OH224309   0.066   6.025  12.168 -0.2330  0.1857  0.0373
  965TIP3    H124310   0.155   6.037  12.202 -0.7342  1.2426  1.0198
  965TIP3    H224311   0.073   6.047  12.075  0.2475  1.7019  0.4074
  966TIP3   OH224312   4.467   2.010   5.952 -0.4268 -0.6039 -0.0506
  966TIP3    H124313   4.541   1.950   5.965  0.5577  0.5787 -0.0664
  966TIP3    H224314   4.428   2.019   6.039  0.9116  0.6045  0.4468
  967TIP3   OH224315   1.174   1.308   3.853  0.1150  0.2996 -0.2032
  967TIP3    H124316   1.110   1.293   3.783 -0.3347 -0.6992  0.4021
  967TIP3    H224317   1.255   1.271   3.819  0.0902  0.5360 -0.5196
  968TIP3   OH224318   3.195   0.643  17.019 -0.0138  0.0310 -0.0118
  968TIP3    H124319   3.102   0.648  16.994 -0.4195  1.5843  1.5887
  968TIP3    H224320   3.219   0.552  17.002 -1.7912 -0.3781 -0.6060
  969TIP3   OH224321   0.077   4.677  14.029 -0.2794  0.2776 -0.4677
  969TIP3    H124322   0.011   4.609  14.046 -2.2612  2.7325  2.6886
  969TIP3    H224323   0.158   4.642  14.065 -1.7284  0.2524  3.1414
  970TIP3   OH224324   4.535   0.585   0.385  0.5405 -0.1167 -0.1524
  970TIP3    H124325   4.530   0.659   0.445 -1.4519  0.5814 -1.1094
  970TIP3    H224326   4.555   0.510   0.441  0.4505  0.7832  1.1280
  971TIP3   OH224327   1.196   4.706  12.385 -0.3981  0.6733 -0.0742
  971TIP3    H124328   1.251   4.740  12.314 -0.9249 -0.6417 -1.1562
  971TIP3    H224329   1.128   4.773  12.395  0.1974  1.3083 -0.1792
  972TIP3   OH224330   6.648   5.014   0.627  0.0275  0.0977 -0.4433
  972TIP3    H124331   6.689   4.988   0.544  2.1241  0.7912  0.3086
  972TIP3    H224332   6.681   5.102   0.643  1.0656 -0.6455  1.9468
  973TIP3   OH224333   6.709   6.687   5.210  0.2686  0.2283 -0.2996
  973TIP3    H124334   6.779   6.627   5.234 -0.8461 -1.0868 -0.2151
  973TIP3    H224335   6.715   6.694   5.115 -0.5603 -1.2914 -0.4876
  974TIP3   OH224336   2.630   5.373   2.806  0.0155 -0.2903  0.1516
  974TIP3    H124337   2.618   5.467   2.816 -0.9840 -0.4219  0.3379
  974TIP3    H224338   2.690   5.348   2.877 -0.2019  0.1133  0.4807
  975TIP3   OH224339   4.592   3.879   3.796  0.0957 -0.0220  0.0268
  975TIP3    H124340   4.669   3.823   3.805 -0.9894 -1.7738 -0.9182
  975TIP3    H224341   4.627   3.966   3.777  1.8859 -1.2158 -2.7695
  976TIP3   OH224342   1.795   5.957  16.474 -0.0565 -0.6608  0.0426
  976TIP3    H124343   1.833   5.890  16.417 -1.0412  0.1602 -1.6493
  976TIP3    H224344   1.722   5.913  16.517 -0.0065 -0.9724 -0.1836
  977TIP3   OH224345   5.381   2.698  11.790 -0.4703 -0.3196  0.2818
  977TIP3    H124346   5.299   2.664  11.826 -0.7626  0.1343  0.0505
  977TIP3    H224347   5.406   2.768  11.850 -2.6876  2.7694 -2.0286
  978TIP3   OH224348   6.727   4.531   5.815  0.2294 -0.3540 -0.3562
  978TIP3    H124349   6.721   4.460   5.878 -1.8491 -1.0370 -1.2374
  978TIP3    H224350   6.647   4.524   5.763  1.0986  1.1706 -2.0173
  979TIP3   OH224351   0.331   5.129   2.626 -0.4601 -0.4086 -0.1579
  979TIP3    H124352   0.259   5.183   2.593 -1.4266  0.2223  2.7297
  979TIP3    H224353   0.296   5.041   2.630 -0.4568 -0.4236 -0.4272
  980TIP3   OH224354   5.542   0.591   1.605 -0.7266 -0.1238 -0.2192
  980TIP3    H124355   5.619   0.537   1.619  0.3406  1.0971 -1.1697
  980TIP3    H224356   5.511   0.613   1.693  0.5331  0.1043  0.1789
  981TIP3   OH224357   2.850   5.427   0.538 -0.1667 -0.0075  0.4394
  981TIP3    H124358   2.884   5.475   0.614  0.4884 -0.1888  0.2696
  981TIP3    H224359   2.812   5.347   0.575  1.3577 -0.7516  0.4864
  982TIP3   OH224360   6.022   3.255  15.372 -0.0785  0.3925  0.1952
  982TIP3    H124361   6.069   3.233  15.292  0.2039 -0.3091  0.5460
  982TIP3    H224362   5.934   3.280  15.343  0.0260  0.1606 -0.3259
  983TIP3   OH224363   2.345   4.892   1.322  0.1115 -0.2168 -0.1454
  983TIP3    H124364   2.320   4.976   1.362  1.7863  0.3202 -0.1270
  983TIP3    H224365   2.400   4.850   1.388 -1.4787 -1.8003  0.2246
  984TIP3   OH224366   1.748   3.274  11.215  0.1227  0.5031 -0.0250
  984TIP3    H124367   1.672   3.249  11.162 -0.7624  0.9198  1.0073
  984TIP3    H224368   1.726   3.361  11.248  0.2014 -0.1306  1.8041
  985TIP3   OH224369   6.228   3.712   4.779  0.1269 -0.2541  0.8593
  985TIP3    H124370   6.135   3.720   4.760  0.4475  0.2622 -0.6159
  985TIP3    H224371   6.250   3.622   4.754  0.0850 -0.2782  0.9102
  986TIP3   OH224372   5.300   4.533  14.066 -0.6220 -0.4995  0.0839
  986TIP3    H124373   5.208   4.517  14.047 -0.5410  0.5929 -1.4098
  986TIP3    H224374   5.344   4.523  13.981  0.5043 -0.0889  0.5923
  987TIP3   OH224375   2.831   4.808   5.265 -0.1545  0.6421 -0.0334
  987TIP3    H124376   2.812   4.863   5.341  0.1788 -0.5897  0.9766
  987TIP3    H224377   2.754   4.751   5.258  0.5128 -0.3239  0.3837
  988TIP3   OH224378   2.883   5.474  13.939 -0.5115  0.0362 -0.1361
  988TIP3    H124379   2.875   5.507  13.850 -0.2202 -1.1383 -0.6105
  988TIP3    H224380   2.883   5.553  13.994 -3.7698  0.7165 -0.8866
  989TIP3   OH224381   2.916   1.411   1.466 -0.2320 -0.2881  0.3571
  989TIP3    H124382   2.850   1.375   1.526  0.3374  0.6021  1.5574
  989TIP3    H224383   2.895   1.504   1.459  0.4459 -0.1470  0.1380
  990TIP3   OH224384   2.848   5.189  14.054 -0.0098  0.2838 -0.0490
  990TIP3    H124385   2.868   5.282  14.057 -1.0867  0.5888 -1.5844
  990TIP3    H224386   2.929   5.148  14.022  0.3864  0.6989  0.3970
  991TIP3   OH224387   1.294   4.532   0.184 -0.2069 -0.0900  0.0323
  991TIP3    H124388   1.381   4.495   0.170  0.0507 -0.7827  2.8733
  991TIP3    H224389   1.305   4.626   0.171  0.4412 -0.3513 -1.6184
  992TIP3   OH224390   3.519   5.813  16.173  0.0929  1.2531  0.5195
  992TIP3    H124391   3.609   5.781  16.178 -0.4296 -0.2424  0.9669
  992TIP3    H224392   3.505   5.861  16.255  0.1855  0.6324  0.9019
  993TIP3   OH224393   2.326   3.754  13.683 -0.3357  0.3201 -0.4427
  993TIP3    H124394   2.365   3.814  13.746 -1.3656  1.3187 -0.7254
  993TIP3    H224395   2.361   3.668  13.708 -0.6460  0.6832  1.4461
  994TIP3   OH224396   5.829   2.773  17.059 -0.1749 -0.1116 -0.1392
  994TIP3    H124397   5.884   2.834  17.109  0.9255 -1.9656  1.0626
  994TIP3    H224398   5.892   2.715  17.016 -1.1006 -2.2371  1.1933
  995TIP3   OH224399   3.006   2.170  16.944  0.2059 -0.4780 -0.0842
  995TIP3    H124400   3.000   2.088  16.992  0.3917 -1.3246 -1.4780
  995TIP3    H224401   2.952   2.157  16.866 -0.0462  0.8498 -0.1601
  996TIP3   OH224402   5.265   2.574  12.245  0.1188 -0.2118 -0.1763
  996TIP3    H124403   5.343   2.628  12.232  0.9950 -1.4577 -0.3218
  996TIP3    H224404   5.273   2.542  12.335 -0.3073 -0.2103 -0.1374
  997TIP3   OH224405   0.707   0.399  14.595 -0.5814 -0.2971  0.3624
  997TIP3    H124406   0.684   0.477  14.646 -0.9340 -0.5541  0.6057
  997TIP3    H224407   0.799   0.411  14.571 -0.1855 -0.5147  1.6982
  998TIP3   OH224408   1.036   1.095  11.832  0.2753  0.4425 -0.1743
  998TIP3    H124409   1.052   1.004  11.808  0.1264  0.3577  0.0389
  998TIP3    H224410   1.086   1.108  11.913  1.3636  0.9384 -0.9190
  999TIP3   OH224411   4.762   3.161  14.933  0.4351  0.0033 -0.0662
  999TIP3    H124412   4.818   3.158  14.856  2.2449 -1.5279  1.2196
  999TIP3    H224413   4.814   3.207  14.999 -0.0693 -0.8675  0.9745
 1000TIP3   OH224414   0.539   4.167  11.892  0.0198  0.2272  0.7229
 1000TIP3    H124415   0.554   4.216  11.811 -0.5247 -1.0691 -0.1947
 1000TIP3    H224416   0.452   4.195  11.921 -0.4747 -0.4825 -0.0336
 1001TIP3   OH224417   2.288   3.570  15.229  0.1402 -0.0266  0.0868
 1001TIP3    H124418   2.292   3.627  15.305 -1.0148  1.5157 -0.9527
 1001TIP3    H224419   2.377   3.571  15.194  0.5771 -0.4103  1.1315
 1002TIP3   OH224420   5.324   6.313  13.645  0.2009  0.5354  0.1216
 1002TIP3    H124421   5.256   6.333  13.581 -1.2678 -0.6571  1.2288
 1002TIP3    H224422   5.281   6.328  13.730  1.4790  0.2161  0.8428
 1003TIP3   OH224423   3.599   6.530  16.341 -0.1904  0.0658 -0.6223
 1003TIP3    H124424   3.694   6.530  16.324 -0.2218 -1.5716 -0.9452
 1003TIP3    H224425   3.580   6.621  16.365  2.0217 -0.1165  2.5757
 1004TIP3   OH224426   5.826   3.678   0.144 -1.2986 -0.4468  0.1464
 1004TIP3    H124427   5.748   3.717   0.184 -0.6008 -0.1870  1.2977
 1004TIP3    H224428   5.892   3.679   0.214 -0.1795 -0.4242 -0.8779
 1005TIP3   OH224429   6.615   3.511   0.439  0.4109  0.3588 -0.3492
 1005TIP3    H124430   6.577   3.426   0.461 -0.0546  0.3400 -1.1618
 1005TIP3    H224431   6.651   3.544   0.521  2.1955 -1.4070 -0.3324
 1006TIP3   OH224432   2.149   0.424   0.732  0.4046  0.9627 -0.1838
 1006TIP3    H124433   2.109   0.476   0.801 -0.3295 -0.2015  0.3062
 1006TIP3    H224434   2.218   0.374   0.776 -0.1463  0.1234 -0.2482
 1007TIP3   OH224435   0.281   3.276   2.287  0.7494 -0.5372  0.0969
 1007TIP3    H124436   0.232   3.340   2.235  0.4656 -1.2638 -0.5588
 1007TIP3    H224437   0.258   3.296   2.378 -1.0931 -1.0744 -0.1963
 1008TIP3   OH224438   3.197   1.519   4.606  0.2447  0.3247 -0.0923
 1008TIP3    H124439   3.245   1.508   4.524  1.6530  1.1390  0.5986
 1008TIP3    H224440   3.210   1.436   4.652  4.7683  1.8275  1.9518
 1009TIP3   OH224441   5.880   2.904   0.327 -0.3209  0.2588  0.4673
 1009TIP3    H124442   5.956   2.853   0.300 -1.3151 -0.1508 -1.8471
 1009TIP3    H224443   5.879   2.979   0.268 -2.1842 -0.2332 -0.2065
 1010TIP3   OH224444   4.993   2.344   0.380 -0.3163  0.1565  0.2393
 1010TIP3    H124445   5.032   2.258   0.396  2.9095  0.9767 -2.2393
 1010TIP3    H224446   4.933   2.331   0.307 -0.0235 -0.0410  0.0339
 1011TIP3   OH224447   4.139   6.009   1.143  0.8367  0.6885 -0.0327
 1011TIP3    H124448   4.144   5.959   1.061  1.0000  1.7769 -0.7069
 1011TIP3    H224449   4.129   6.100   1.115  1.2305  1.1181  1.1609
 1012TIP3   OH224450   3.783   2.823  13.817 -0.6104 -0.0438 -0.2914
 1012TIP3    H124451   3.707   2.879  13.830 -0.2342  1.0411 -2.2417
 1012TIP3    H224452   3.832   2.828  13.899 -2.4953 -0.6078  0.9172
 1013TIP3   OH224453   1.075   6.284  17.213  0.1095 -0.2089  0.0581
 1013TIP3    H124454   1.065   6.191  17.231 -2.2008  0.3321  2.0342
 1013TIP3    H224455   1.165   6.304  17.240 -0.0085 -1.4900  1.5601
 1014TIP3   OH224456   0.934   4.779   4.367  0.5407  0.1000  0.0068
 1014TIP3    H124457   0.866   4.833   4.408  1.6544  0.7690  1.0509
 1014TIP3    H224458   0.937   4.809   4.276  0.4225  1.0684  0.3141
 1015TIP3   OH224459   2.010   4.882   0.139 -0.3614  0.1553 -0.2284
 1015TIP3    H124460   1.935   4.940   0.149  1.6598  3.1255 -0.9309
 1015TIP3    H224461   2.044   4.901   0.051  1.8366 -0.1948  0.4761
 1016TIP3   OH224462   6.481   1.248   3.050 -0.4843 -0.4291 -0.2221
 1016TIP3    H124463   6.485   1.161   3.089 -2.0987 -0.1394  0.6799
 1016TIP3    H224464   6.536   1.302   3.106  0.9074 -0.9200 -1.0549
 1017TIP3   OH224465   3.568   5.119   0.249 -0.0842 -0.1519  0.7434
 1017TIP3    H124466   3.490   5.174   0.241  0.3748  0.3463 -0.7089
 1017TIP3    H224467   3.539   5.044   0.302 -1.7956 -0.4021 -0.4327
 1018TIP3   OH224468   3.635   4.309   1.650  0.6155  0.0322  0.2076
 1018TIP3    H124469   3.571   4.380   1.651  0.6124  0.0324  0.7753
 1018TIP3    H224470   3.698   4.334   1.718  0.6789 -0.4463  0.3268
 1019TIP3   OH224471   6.517   1.806   5.721  0.4146  0.3879 -0.4508
 1019TIP3    H124472   6.543   1.893   5.691  0.4734  0.5715  0.1221
 1019TIP3    H224473   6.431   1.819   5.762 -0.1959 -0.0606 -1.5412
 1020TIP3   OH224474   2.334   6.108  16.879  0.4204 -0.1349 -0.3170
 1020TIP3    H124475   2.260   6.109  16.940  1.4176 -0.8005  0.9625
 1020TIP3    H224476   2.405   6.149  16.928  1.3862 -1.1365 -0.8477
 1021TIP3   OH224477   1.262   1.034  15.079  0.0398  0.4461 -0.5533
 1021TIP3    H124478   1.201   1.105  15.059  1.3613  1.8382  0.1290
 1021TIP3    H224479   1.348   1.073  15.066  0.8028 -1.1776 -0.5399
 1022TIP3   OH224480   1.919   3.941  13.888  0.2363  0.0959  0.1354
 1022TIP3    H124481   1.855   3.991  13.939  0.4687  1.3872 -0.7735
 1022TIP3    H224482   1.975   4.008  13.848  1.3415 -0.9592 -0.1373
 1023TIP3   OH224483   0.466   6.535   4.014 -0.1463 -0.4424  0.2918
 1023TIP3    H124484   0.532   6.477   4.052 -0.5442 -0.8870  0.3111
 1023TIP3    H224485   0.510   6.574   3.938 -0.4033 -2.0982 -0.7735
 1024TIP3   OH224486   0.852   4.495  14.518  0.3841  0.1302 -0.4882
 1024TIP3    H124487   0.810   4.581  14.522 -0.1226 -0.1617  1.5276
 1024TIP3    H224488   0.942   4.511  14.546  0.0475 -0.1034  0.7880
 1025TIP3   OH224489   2.585   2.229  14.816  0.1988  0.9204  0.1077
 1025TIP3    H124490   2.590   2.178  14.897 -0.6561  0.6927  0.0187
 1025TIP3    H224491   2.637   2.178  14.753 -1.4942 -0.4128 -0.2677
 1026TIP3   OH224492   2.971   3.563  17.158  0.1844 -0.3769 -0.0946
 1026TIP3    H124493   2.967   3.541  17.251 -0.9723  0.3474  0.0463
 1026TIP3    H224494   2.941   3.484  17.114 -1.2137 -0.0680  0.2628
 1027TIP3   OH224495   2.947   1.648  12.941 -0.3628  0.3267 -0.7283
 1027TIP3    H124496   2.907   1.657  13.027  0.1871 -0.7580 -0.3395
 1027TIP3    H224497   3.023   1.708  12.943  1.4773 -1.8898  0.7082
 1028TIP3   OH224498   5.842   5.190  16.913  0.0272  0.6405 -0.0073
 1028TIP3    H124499   5.857   5.097  16.892 -2.1092  0.4476 -0.8977
 1028TIP3    H224500   5.902   5.237  16.855  0.3389 -0.1420 -0.3437
 1029TIP3   OH224501   0.135   4.827  12.740  0.2717 -0.1913 -0.0227
 1029TIP3    H124502   0.146   4.734  12.722  0.8815 -0.0373 -0.4391
 1029TIP3    H224503   0.072   4.858  12.675  0.9937 -0.0545 -0.6627
 1030TIP3   OH224504   5.996   4.271  14.417  0.2105 -0.0543 -0.3472
 1030TIP3    H124505   6.051   4.314  14.352  1.7784 -1.7071 -0.2294
 1030TIP3    H224506   5.978   4.338  14.482 -0.6793  1.4001 -2.0155
 1031TIP3   OH224507   1.600   6.579  11.649  0.2837  0.8464 -0.2930
 1031TIP3    H124508   1.532   6.555  11.712 -0.3064  2.3685 -0.2960
 1031TIP3    H224509   1.677   6.599  11.702  1.0670 -1.6913 -0.3326
 1032TIP3   OH224510   3.169   4.554   4.095 -0.5582 -0.2345  0.1700
 1032TIP3    H124511   3.120   4.522   4.170  0.3717 -1.4374  0.3041
 1032TIP3    H224512   3.222   4.627   4.129  0.6662 -1.4505  0.9864
 1033TIP3   OH224513   2.875   6.151   2.001 -0.0446 -0.3429 -0.1732
 1033TIP3    H124514   2.908   6.135   2.090  0.3623 -1.7506 -0.5379
 1033TIP3    H224515   2.931   6.096   1.945  0.2839  1.1822 -1.4262
 1034TIP3   OH224516   3.000   0.293  11.849 -0.5040  0.3804  0.0843
 1034TIP3    H124517   3.089   0.329  11.849 -0.7440  1.0113 -0.8609
 1034TIP3    H224518   2.955   0.342  11.780 -1.4217 -0.3365  0.1670
 1035TIP3   OH224519   6.608   0.508  15.719 -0.2283 -0.2510 -0.2483
 1035TIP3    H124520   6.681   0.570  15.719  0.3554 -0.8216  2.0939
 1035TIP3    H224521   6.531   0.560  15.697  0.5477  0.8371 -0.4585
 1036TIP3   OH224522   4.190   0.300   0.869  0.3481  0.5742 -0.3045
 1036TIP3    H124523   4.176   0.384   0.827  0.1859  0.2511 -0.9153
 1036TIP3    H224524   4.130   0.240   0.824 -0.5276  0.4020  1.0119
 1037TIP3   OH224525   0.471   3.132   0.949 -0.2488 -0.3129  0.6921
 1037TIP3    H124526   0.483   3.079   1.028 -0.7445  0.5114  1.3355
 1037TIP3    H224527   0.449   3.068   0.881  1.0725 -1.1312  0.9936
 1038TIP3   OH224528   5.287   0.885   3.745  0.1876 -0.0458 -0.0133
 1038TIP3    H124529   5.260   0.860   3.657  0.9632  1.2022 -0.6290
 1038TIP3    H224530   5.269   0.808   3.798  0.9206 -1.2883 -1.4995
 1039TIP3   OH224531   4.791   2.496  16.280 -0.2983  0.5704  0.2007
 1039TIP3    H124532   4.735   2.562  16.321 -1.0631 -0.3421  0.6491
 1039TIP3    H224533   4.803   2.527  16.190  0.1986  1.8411  0.6688
 1040TIP3   OH224534   1.837   0.476  14.124 -0.6303  0.2057  0.3207
 1040TIP3    H124535   1.776   0.541  14.161 -0.6555 -0.3015  1.2034
 1040TIP3    H224536   1.924   0.508  14.149 -0.6025  0.2876  0.1181
 1041TIP3   OH224537   4.791   1.215  13.799  0.3755  0.1667  0.0910
 1041TIP3    H124538   4.876   1.222  13.842  0.2871  2.2315  0.0276
 1041TIP3    H224539   4.787   1.125  13.767  2.2622 -0.1383  0.6328
 1042TIP3   OH224540   1.527   0.858   1.305  0.1508  0.8038 -0.1477
 1042TIP3    H124541   1.446   0.806   1.305 -0.0284  0.9946  2.0591
 1042TIP3    H224542   1.557   0.854   1.214 -1.3036 -0.8707 -0.6311
 1043TIP3   OH224543   1.745   5.344  13.833 -0.3103 -0.1384 -0.0765
 1043TIP3    H124544   1.787   5.430  13.827 -2.1026  0.8893  1.1976
 1043TIP3    H224545   1.818   5.283  13.846  0.9420  1.2989 -0.0564
 1044TIP3   OH224546   5.507   1.358  16.752  0.2128  0.3504 -0.5887
 1044TIP3    H124547   5.487   1.402  16.670  0.4796 -1.2646 -1.5715
 1044TIP3    H224548   5.509   1.265  16.729  1.2557 -0.0750  1.0516
 1045TIP3   OH224549   6.443   0.905   2.201  0.4718  0.6341  0.0086
 1045TIP3    H124550   6.436   0.969   2.129  3.3743  0.9671 -0.0772
 1045TIP3    H224551   6.374   0.842   2.183 -0.2466  1.8546 -1.8774
 1046TIP3   OH224552   5.882   1.251   3.550  0.0327 -0.3756 -0.2944
 1046TIP3    H124553   5.877   1.156   3.561  1.6906 -0.6007 -1.1265
 1046TIP3    H224554   5.968   1.266   3.510 -2.1009  0.9670 -5.2357
 1047TIP3   OH224555   2.125   4.954  13.321 -1.2362 -0.2430  0.0540
 1047TIP3    H124556   2.038   4.994  13.325  0.2080  3.2087  0.4526
 1047TIP3    H224557   2.171   4.989  13.397  0.7052 -1.5235 -0.4710
 1048TIP3   OH224558   2.307   5.046  16.206 -0.5664  0.1676 -0.2570
 1048TIP3    H124559   2.232   5.070  16.260 -0.4253 -0.1494  0.0882
 1048TIP3    H224560   2.289   5.085  16.121 -1.2194 -0.0689 -0.2363
 1049TIP3   OH224561   6.139   5.844  13.484 -0.3569 -0.1918  0.4196
 1049TIP3    H124562   6.210   5.895  13.525  0.1132  0.1966 -0.8204
 1049TIP3    H224563   6.185   5.775  13.436 -0.7914  0.2476 -0.6464
 1050TIP3   OH224564   1.572   4.297   2.947 -0.2078 -0.3456 -0.3166
 1050TIP3    H124565   1.491   4.319   2.994 -0.6560  1.0726 -1.6662
 1050TIP3    H224566   1.622   4.378   2.947  1.9562 -1.5565  1.7563
 1051TIP3   OH224567   3.615   3.882   0.857  0.8612  0.3451  0.0230
 1051TIP3    H124568   3.596   3.876   0.764 -1.8477  0.8142  0.4616
 1051TIP3    H224569   3.532   3.911   0.897  2.0248  0.5052  2.5287
 1052TIP3   OH224570   6.486   1.347   5.476  0.0782 -0.1835 -0.1494
 1052TIP3    H124571   6.578   1.352   5.503 -0.0419 -2.3309  0.8449
 1052TIP3    H224572   6.441   1.409   5.533  0.6301 -0.6295  0.7876
 1053TIP3   OH224573   3.938   3.786  13.299 -0.7406  0.1496  0.0490
 1053TIP3    H124574   3.935   3.734  13.380 -0.2162  0.7051  0.4400
 1053TIP3    H224575   3.867   3.850  13.310 -0.6091  0.2860  0.1244
 1054TIP3   OH224576   3.767   0.084   5.498 -0.1302 -0.2717  0.4107
 1054TIP3    H124577   3.845   0.133   5.470  0.9713 -2.1496 -0.0126
 1054TIP3    H224578   3.734   0.045   5.417 -0.8631 -0.4129  0.7693
 1055TIP3   OH224579   1.711   3.423  16.047 -0.2950  0.4081  0.0723
 1055TIP3    H124580   1.732   3.511  16.019 -1.0191  0.4933 -0.2285
 1055TIP3    H224581   1.672   3.434  16.134  0.1650  0.3271  0.2893
 1056TIP3   OH224582   6.424   3.654   5.207  0.1064  0.0191  0.4261
 1056TIP3    H124583   6.378   3.586   5.156  0.0971 -0.4106  0.9951
 1056TIP3    H224584   6.494   3.683   5.150  0.0320 -0.3856  0.1235
 1057TIP3   OH224585   4.254   6.000   2.077  0.2956 -0.5307 -0.0062
 1057TIP3    H124586   4.278   6.079   2.126  0.6385 -0.3203 -0.5019
 1057TIP3    H224587   4.159   5.994   2.086  0.2091  0.2008 -0.3521
 1058TIP3   OH224588   2.087   5.643  14.231 -0.5063 -0.6830 -0.4137
 1058TIP3    H124589   2.178   5.653  14.202 -0.7106  1.6226 -0.4331
 1058TIP3    H224590   2.040   5.617  14.152 -0.5032  2.3022 -1.5403
 1059TIP3   OH224591   2.929   0.968  16.271 -0.4986 -0.1473  0.1850
 1059TIP3    H124592   2.848   0.988  16.317  0.0384  1.9886  0.2833
 1059TIP3    H224593   2.997   1.009  16.323  0.1805  1.9523 -2.1707
 1060TIP3   OH224594   5.618   5.239   3.037 -0.6617  0.2770 -0.8283
 1060TIP3    H124595   5.565   5.164   3.063  1.0007 -0.7840 -0.3008
 1060TIP3    H224596   5.650   5.217   2.950  0.3055  0.0800 -0.4354
 1061TIP3   OH224597   4.459   3.716   2.846 -0.3583 -0.2716  0.3018
 1061TIP3    H124598   4.462   3.674   2.760  2.5646 -0.3531  0.3335
 1061TIP3    H224599   4.389   3.781   2.840 -0.5712 -0.6550 -1.9369
 1062TIP3   OH224600   2.443   0.813  14.919 -0.2305  0.6063 -0.0996
 1062TIP3    H124601   2.483   0.847  14.999  1.0598 -0.7232 -0.1333
 1062TIP3    H224602   2.416   0.891  14.871 -0.7078  1.4444  1.4471
 1063TIP3   OH224603   3.278   4.400  14.932  0.4036  0.4234  0.0011
 1063TIP3    H124604   3.216   4.365  14.996  0.5130  0.4888  0.1410
 1063TIP3    H224605   3.296   4.489  14.962  0.0728  0.6314 -0.3907
 1064TIP3   OH224606   3.728   1.760  14.529  0.4158 -0.0336 -0.2448
 1064TIP3    H124607   3.781   1.737  14.605 -0.5265 -1.3328  0.0588
 1064TIP3    H224608   3.774   1.834  14.489  1.0322  0.5795  1.4837
 1065TIP3   OH224609   6.103   3.512  12.252  0.3508  0.0511 -0.5410
 1065TIP3    H124610   6.084   3.419  12.243  0.8288 -0.2201  0.9184
 1065TIP3    H224611   6.151   3.519  12.335 -0.3581  1.6815 -0.2209
 1066TIP3   OH224612   3.508   2.545  16.286  0.1128 -0.3858 -0.1169
 1066TIP3    H124613   3.468   2.606  16.347  1.4998 -1.5084  2.0212
 1066TIP3    H224614   3.541   2.600  16.215  1.0756  1.3502  1.6009
 1067TIP3   OH224615   3.912   6.306  16.321  0.4396  0.3197 -0.1130
 1067TIP3    H124616   3.923   6.270  16.233  2.4625 -0.2691  0.3330
 1067TIP3    H224617   3.984   6.369  16.331  1.5933 -1.1903  1.8401
 1068TIP3   OH224618   1.689   0.118  12.649  0.7470 -0.4419 -0.3184
 1068TIP3    H124619   1.747   0.179  12.694  0.9678 -1.1817  0.4318
 1068TIP3    H224620   1.690   0.039  12.704  0.4239 -1.0971 -1.2352
 1069TIP3   OH224621   2.649   1.348  11.080  0.2255  0.3854  0.1136
 1069TIP3    H124622   2.575   1.288  11.080 -0.2095  0.9064 -0.4634
 1069TIP3    H224623   2.628   1.412  11.148  0.6633 -0.0700  0.6907
 1070TIP3   OH224624   4.673   5.471  13.795  0.2570  0.0444  0.2351
 1070TIP3    H124625   4.737   5.455  13.726 -0.7686  0.7008 -0.9068
 1070TIP3    H224626   4.725   5.475  13.875  1.5617 -0.0854 -0.5723
 1071TIP3   OH224627   4.376   0.643   0.725 -0.0679 -0.1131  0.0803
 1071TIP3    H124628   4.461   0.622   0.687 -0.5876 -0.9253 -0.6854
 1071TIP3    H224629   4.373   0.738   0.726  0.9072 -0.0745  0.2552
 1072TIP3   OH224630   6.203   1.237  13.225 -0.0735  0.5148  0.1208
 1072TIP3    H124631   6.110   1.255  13.234 -0.3250 -0.2641 -0.7959
 1072TIP3    H224632   6.241   1.261  13.310 -1.3062 -0.4950  0.9837
 1073TIP3   OH224633   3.734   5.130   2.397 -0.3002  0.4446 -0.0558
 1073TIP3    H124634   3.778   5.154   2.316 -0.9420  0.9726 -0.2615
 1073TIP3    H224635   3.749   5.204   2.455  1.0930 -0.4052  0.7065
 1074TIP3   OH224636   2.652   1.765   0.977  0.3788 -0.7603 -0.4193
 1074TIP3    H124637   2.604   1.781   1.058  0.7554  0.5577 -0.4297
 1074TIP3    H224638   2.684   1.675   0.985  0.2796 -0.6972  0.8136
 1075TIP3   OH224639   5.639   3.629  15.261 -0.1994  0.1587 -0.3332
 1075TIP3    H124640   5.553   3.617  15.221 -0.4379 -1.1192  0.4905
 1075TIP3    H224641   5.621   3.677  15.342 -0.0205  0.5999 -0.5483
 1076TIP3   OH224642   1.662   3.227   4.048 -0.3446 -0.3605  0.4627
 1076TIP3    H124643   1.626   3.283   3.979 -1.1567 -0.1557  1.0512
 1076TIP3    H224644   1.706   3.156   4.000 -0.7836 -0.1468 -0.2703
 1077TIP3   OH224645   3.010   6.541   1.752  0.0682 -0.0742  0.3382
 1077TIP3    H124646   2.945   6.472   1.765 -0.6075 -0.2663 -3.0283
 1077TIP3    H224647   3.000   6.566   1.660  1.9569  2.8428  0.7820
 1078TIP3   OH224648   2.231   6.281   0.155  0.1962 -0.1523 -1.0155
 1078TIP3    H124649   2.317   6.278   0.112  0.1517 -0.4637 -1.0840
 1078TIP3    H224650   2.178   6.337   0.098  0.2200 -0.3323 -1.2126
 1079TIP3   OH224651   0.677   4.650  14.264 -0.3275 -0.3168 -0.1858
 1079TIP3    H124652   0.625   4.718  14.222 -1.8199  0.3117  2.5154
 1079TIP3    H224653   0.615   4.579  14.280  0.8232 -1.6660 -1.3620
 1080TIP3   OH224654   5.663   2.106  13.571  0.0710 -0.3072  0.0248
 1080TIP3    H124655   5.662   2.018  13.609  0.4712 -1.8020 -3.0688
 1080TIP3    H224656   5.755   2.132  13.574  0.0616 -0.2962  0.2705
 1081TIP3   OH224657   3.873   1.326  12.355  0.9088 -0.0460  0.2778
 1081TIP3    H124658   3.866   1.240  12.313 -0.6596 -0.2674  0.9449
 1081TIP3    H224659   3.937   1.313  12.426  2.3450 -0.0713 -0.9756
 1082TIP3   OH224660   1.181   5.023  12.834 -0.1976  0.0238 -0.3888
 1082TIP3    H124661   1.131   5.097  12.869  0.6257 -0.0721  1.0440
 1082TIP3    H224662   1.219   4.981  12.911  0.5706 -1.0126 -1.3075
 1083TIP3   OH224663   3.954   6.473  16.577  0.0359 -0.6604 -0.1656
 1083TIP3    H124664   3.891   6.458  16.646 -0.2001  2.7044  0.4859
 1083TIP3    H224665   4.034   6.500  16.622  0.3853 -0.0051 -1.1332
 1084TIP3   OH224666   2.250   5.154   0.281 -0.0650  0.1686 -0.2798
 1084TIP3    H124667   2.268   5.195   0.197  1.8681  1.6709  0.8087
 1084TIP3    H224668   2.284   5.215   0.346 -1.7892 -0.7973  1.6394
 1085TIP3   OH224669   1.303   1.830  15.065  0.3426 -0.5904  0.5256
 1085TIP3    H124670   1.398   1.826  15.076  0.2352 -2.7730  1.1131
 1085TIP3    H224671   1.281   1.748  15.019 -1.3860 -0.8372  1.7032
 1086TIP3   OH224672   1.796   3.564  11.974 -0.4949  0.2092  0.1060
 1086TIP3    H124673   1.834   3.624  12.038  0.7812  1.2054 -1.5196
 1086TIP3    H224674   1.757   3.621  11.908 -4.1319 -0.7627  1.1873
 1087TIP3   OH224675   2.704   1.520  16.626  0.7652  0.1127 -0.2437
 1087TIP3    H124676   2.783   1.564  16.596  1.9225 -2.9795 -2.2691
 1087TIP3    H224677   2.736   1.446  16.679 -0.8798 -0.1571  0.4432
 1088TIP3   OH224678   3.330   2.450   5.438 -0.3307  0.4362 -0.0646
 1088TIP3    H124679   3.326   2.366   5.393 -1.3212 -0.2306  1.1973
 1088TIP3    H224680   3.266   2.505   5.392 -0.1419  0.3067 -0.4896
 1089TIP3   OH224681   6.279   3.576  11.384 -0.2132 -0.3373 -0.3947
 1089TIP3    H124682   6.365   3.593  11.421 -0.3670 -1.6524  0.6179
 1089TIP3    H224683   6.260   3.655  11.332  0.8963  0.6623  0.6420
 1090TIP3   OH224684   6.069   3.795   4.259 -0.6158  0.0630 -0.6960
 1090TIP3    H124685   6.007   3.808   4.188 -1.9263 -1.6409  0.0729
 1090TIP3    H224686   6.151   3.773   4.216 -1.2165 -0.2824 -1.6839
 1091TIP3   OH224687   5.311   4.140   4.751  0.3783  0.4269 -0.0216
 1091TIP3    H124688   5.335   4.191   4.829  0.1082  2.1293 -1.0120
 1091TIP3    H224689   5.223   4.170   4.730 -1.0428 -2.6136  1.0396
 1092TIP3   OH224690   5.146   5.372  11.355  0.4226 -0.2475  0.2588
 1092TIP3    H124691   5.123   5.281  11.337  2.2873 -0.6411 -0.3647
 1092TIP3    H224692   5.210   5.367  11.426 -0.3942  0.6951  1.0959
 1093TIP3   OH224693   6.775   4.487   3.690  0.7658 -0.0661 -0.2065
 1093TIP3    H124694   6.798   4.406   3.735 -1.1945 -1.0930 -0.9213
 1093TIP3    H224695   6.679   4.484   3.682  0.7999  1.4439 -1.8796
 1094TIP3   OH224696   0.740   4.567  16.663  0.1687  0.1320  0.0260
 1094TIP3    H124697   0.831   4.554  16.638  0.7546 -0.0324  2.0505
 1094TIP3    H224698   0.744   4.617  16.745 -1.5724  0.3625  0.0140
 1095TIP3   OH224699   4.839   2.682  12.808 -0.1373  1.1342  0.0373
 1095TIP3    H124700   4.835   2.590  12.781 -0.3602  0.7118  1.3880
 1095TIP3    H224701   4.893   2.725  12.742  2.1062 -0.4892  0.6732
 1096TIP3   OH224702   2.576   6.237   2.095  0.1747  0.9646  0.6350
 1096TIP3    H124703   2.649   6.184   2.062  1.9189  1.5702  3.1823
 1096TIP3    H224704   2.517   6.175   2.136 -0.1098  0.5876 -0.3274
 1097TIP3   OH224705   1.894   5.645   2.447 -0.1604 -0.5326  0.0627
 1097TIP3    H124706   1.836   5.598   2.387  0.1920  1.8215 -2.3288
 1097TIP3    H224707   1.982   5.624   2.417  0.1302 -1.0581  1.2215
 1098TIP3   OH224708   5.632   2.588  17.166 -0.7591 -0.3400  0.3180
 1098TIP3    H124709   5.658   2.501  17.133 -0.1550 -0.4413  1.0274
 1098TIP3    H224710   5.709   2.643  17.150 -1.4494  0.3146 -0.9466
 1099TIP3   OH224711   1.538   1.177  16.191 -0.1344  0.2892  0.2222
 1099TIP3    H124712   1.612   1.163  16.132 -1.2108 -0.5850 -0.9853
 1099TIP3    H224713   1.531   1.095  16.241  0.5412  0.8865  1.3192
 1100TIP3   OH224714   2.580   0.529   5.003 -0.1590  0.4698  0.2777
 1100TIP3    H124715   2.597   0.612   5.046  1.1423  1.1942 -1.4945
 1100TIP3    H224716   2.657   0.475   5.022 -0.4202  0.1232  0.3752
 1101TIP3   OH224717   6.082   2.111   5.397  0.3804 -0.3873 -0.2742
 1101TIP3    H124718   6.064   2.117   5.490 -0.7472  0.3603 -0.5239
 1101TIP3    H224719   6.003   2.072   5.359  0.1332  0.8653 -1.1179
 1102TIP3   OH224720   2.599   4.063  15.075 -0.0495 -0.0977  0.1924
 1102TIP3    H124721   2.637   4.140  15.033 -0.2816  0.6596  1.3366
 1102TIP3    H224722   2.636   3.989  15.026  0.5641  0.7124 -0.6112
 1103TIP3   OH224723   0.909   4.201   0.549 -0.5174  0.2722  0.2669
 1103TIP3    H124724   0.964   4.271   0.586 -1.1677  0.7916  0.2711
 1103TIP3    H224725   0.819   4.230   0.566 -0.8517 -1.7540  2.5316
 1104TIP3   OH224726   2.731   2.708   3.261  0.2431 -0.0066  0.2612
 1104TIP3    H124727   2.731   2.680   3.169  0.1938  0.6865  0.0413
 1104TIP3    H224728   2.681   2.790   3.261  2.6950  1.5942  0.3875
 1105TIP3   OH224729   2.631   1.145  13.297 -0.4386  1.0292  0.2655
 1105TIP3    H124730   2.662   1.202  13.227  1.6482  0.5033  0.6723
 1105TIP3    H224731   2.699   1.078  13.305 -2.3854 -1.0628  0.3552
 1106TIP3   OH224732   3.992   2.953   5.960  0.2451  0.0865 -0.1425
 1106TIP3    H124733   3.923   2.962   5.894  1.3998  1.7479 -1.2158
 1106TIP3    H224734   4.073   2.970   5.912  1.1094  1.6780  1.7570
 1107TIP3   OH224735   5.113   4.729  14.120  0.1469  0.1426 -0.5288
 1107TIP3    H124736   5.204   4.700  14.121  0.1582  0.1103  1.0868
 1107TIP3    H224737   5.112   4.805  14.063  1.2680  0.3699 -0.2703
 1108TIP3   OH224738   3.391   3.465  15.327  0.0783 -0.2497 -0.4941
 1108TIP3    H124739   3.342   3.440  15.249 -0.7535 -1.5031  0.3777
 1108TIP3    H224740   3.395   3.560  15.324 -0.4759 -0.2469 -1.7362
 1109TIP3   OH224741   6.759   0.737   0.623  0.1860 -0.4849 -0.2895
 1109TIP3    H124742   6.759   0.675   0.551 -1.1423 -0.7351 -0.0925
 1109TIP3    H224743   6.738   0.821   0.583 -0.7975 -0.6677 -0.1670
 1110TIP3   OH224744   0.852   6.450  12.028 -0.3603 -0.5692  0.7283
 1110TIP3    H124745   0.896   6.516  12.082 -2.5163  1.4022  0.2047
 1110TIP3    H224746   0.900   6.369  12.046  1.7749  0.9057  2.1597
 1111TIP3   OH224747   0.576   1.197  11.898 -0.1136  0.2736  0.2467
 1111TIP3    H124748   0.623   1.170  11.819  0.0631  0.2665  0.3546
 1111TIP3    H224749   0.489   1.222  11.866  0.5645  2.2108 -0.2651
 1112TIP3   OH224750   5.889   1.644  15.933 -0.1182  0.1342  0.2708
 1112TIP3    H124751   5.903   1.614  15.843  0.7836  2.3878 -0.4050
 1112TIP3    H224752   5.950   1.592  15.986 -1.7286 -2.3067 -0.1042
 1113TIP3   OH224753   3.355   2.242  13.833 -0.0790  0.2848 -0.8240
 1113TIP3    H124754   3.299   2.273  13.904  0.8450  1.3151 -0.5225
 1113TIP3    H224755   3.355   2.147  13.844 -1.3428  0.2954 -0.5244
 1114TIP3   OH224756   4.943   0.193  11.771 -0.4415  0.3627  0.2469
 1114TIP3    H124757   4.961   0.236  11.687 -0.3368  0.4212  0.2995
 1114TIP3    H224758   4.847   0.192  11.778 -0.6238 -2.4011 -1.3040
 1115TIP3   OH224759   3.411   5.358   4.355 -0.1290 -0.5431 -0.1367
 1115TIP3    H124760   3.482   5.353   4.290 -1.2347 -1.6314 -1.3369
 1115TIP3    H224761   3.335   5.323   4.309 -1.6186  1.1805  0.9079
 1116TIP3   OH224762   1.682   5.055   0.530  0.4336 -0.6769 -0.1975
 1116TIP3    H124763   1.710   5.064   0.621  2.4245  2.0642 -0.9372
 1116TIP3    H224764   1.757   5.013   0.487  0.7628  0.7185 -1.0404
 1117TIP3   OH224765   0.526   6.522  15.740 -0.0644 -0.2054  0.1779
 1117TIP3    H124766   0.508   6.577  15.664  0.0119  0.3152  0.5225
 1117TIP3    H224767   0.444   6.524  15.791  0.3258  0.6303  0.8121
 1118TIP3   OH224768   3.430   6.122   6.043  0.1113 -0.4558 -0.6694
 1118TIP3    H124769   3.431   6.041   6.094 -2.0179 -1.2556 -1.7488
 1118TIP3    H224770   3.338   6.147   6.041  0.7422  2.1788 -0.1796
 1119TIP3   OH224771   0.910   3.500   0.030 -0.1196  0.5593 -0.5424
 1119TIP3    H124772   0.896   3.419  -0.019 -0.8904  1.1129 -1.2526
 1119TIP3    H224773   1.003   3.519   0.018 -0.0082 -0.0241 -0.6654
 1120TIP3   OH224774   2.293   3.349   5.564 -0.3845 -0.3893 -0.2434
 1120TIP3    H124775   2.385   3.375   5.558 -0.4361 -0.1316  0.0213
 1120TIP3    H224776   2.285   3.274   5.505 -0.3822  0.5943 -1.5187
 1121TIP3   OH224777   1.375   5.498   5.683 -0.4618 -0.7342 -0.1542
 1121TIP3    H124778   1.405   5.534   5.599 -2.1826  0.0632 -0.4676
 1121TIP3    H224779   1.447   5.517   5.744  0.9957 -1.6883 -1.4946
 1122TIP3   OH224780   3.161   3.901   0.130 -0.1738  0.9361 -0.1360
 1122TIP3    H124781   3.209   3.927   0.208 -0.3419 -0.5217  0.4899
 1122TIP3    H224782   3.130   3.983   0.092  1.5215  1.8058  0.2539
 1123TIP3   OH224783   4.695   6.700  12.148 -0.4703  0.6131  0.6054
 1123TIP3    H124784   4.780   6.664  12.176 -0.5622 -0.5443 -0.5234
 1123TIP3    H224785   4.683   6.667  12.059 -1.6941  1.5223  0.4084
 1124TIP3   OH224786   2.821   2.493  14.982 -0.7026 -0.2748  0.5737
 1124TIP3    H124787   2.872   2.413  14.997  0.7098  0.9090  2.4203
 1124TIP3    H224788   2.790   2.518  15.069 -1.0681  1.2204  0.0317
 1125TIP3   OH224789   1.122   0.452   3.119  0.0426  0.2209  0.1964
 1125TIP3    H124790   1.173   0.514   3.171  1.5248  0.6482 -1.6874
 1125TIP3    H224791   1.154   0.366   3.146  1.0644  0.4521 -0.2753
 1126TIP3   OH224792   2.850   3.570  11.538 -0.0499 -0.1960 -0.8628
 1126TIP3    H124793   2.902   3.536  11.611 -0.9601  1.3744  0.5918
 1126TIP3    H224794   2.849   3.499  11.474  1.3330 -1.3846  0.3635
 1127TIP3   OH224795   5.027   1.416   3.456 -0.8083  0.0582 -0.1076
 1127TIP3    H124796   5.082   1.339   3.442  0.1170  0.6278  0.2959
 1127TIP3    H224797   4.980   1.426   3.374 -1.3746 -1.2560  0.0225
 1128TIP3   OH224798   6.384   0.930   0.567  0.3099 -0.0580  0.1854
 1128TIP3    H124799   6.380   1.025   0.573  0.6137 -0.0665  0.5757
 1128TIP3    H224800   6.317   0.907   0.502 -0.6528  0.3159  1.0302
 1129TIP3   OH224801   6.372   1.068  16.377  0.1223 -0.2276  0.4093
 1129TIP3    H124802   6.297   1.061  16.318 -0.1357  0.8920  0.5944
 1129TIP3    H224803   6.358   0.998  16.440  1.2199 -2.5101 -1.7011
 1130TIP3   OH224804   2.869   4.053  13.662 -0.4616 -0.6830 -0.3438
 1130TIP3    H124805   2.876   3.967  13.622 -1.2328 -0.0931 -1.8331
 1130TIP3    H224806   2.950   4.098  13.636  1.0585 -1.6686  2.3764
 1131TIP3   OH224807   2.360   5.927  11.805  0.6532 -0.3017  0.2282
 1131TIP3    H124808   2.366   6.003  11.747 -0.1718 -1.2082 -1.1052
 1131TIP3    H224809   2.341   5.853  11.746  0.6642 -1.4181  1.5662
 1132TIP3   OH224810   3.249   5.923   4.484  0.2358  0.5544  0.3719
 1132TIP3    H124811   3.182   5.855   4.492 -0.0205  0.8005  0.3097
 1132TIP3    H224812   3.327   5.876   4.454 -0.0582  0.3547 -0.0884
 1133TIP3   OH224813   3.462   5.230   2.335 -0.3695  0.4275 -0.2594
 1133TIP3    H124814   3.535   5.169   2.341  0.3022  1.1478 -0.9926
 1133TIP3    H224815   3.385   5.177   2.355  0.4621 -0.0487  1.9617
 1134TIP3   OH224816   2.309   1.134   5.507 -0.0682  0.1113 -0.0541
 1134TIP3    H124817   2.364   1.198   5.552  0.1616 -0.8385  1.0771
 1134TIP3    H224818   2.276   1.077   5.577 -0.4879 -0.8375 -0.9911
 1135TIP3   OH224819   5.077   4.899  12.101 -0.4236 -0.3858 -0.0735
 1135TIP3    H124820   5.123   4.926  12.022  2.9262 -2.2528  1.0212
 1135TIP3    H224821   5.048   4.810  12.082 -0.8701 -0.3208  0.2946
 1136TIP3   OH224822   4.446   2.927  14.931  0.1289 -0.4043 -0.0549
 1136TIP3    H124823   4.389   2.886  14.996 -0.5380 -0.2089 -0.5042
 1136TIP3    H224824   4.535   2.915  14.965 -0.2673  0.7980  1.5365
 1137TIP3   OH224825   5.556   1.706   0.804 -0.2243 -0.4246  0.2500
 1137TIP3    H124826   5.532   1.618   0.776  0.5901 -0.1928 -1.2543
 1137TIP3    H224827   5.513   1.764   0.742 -0.5582  0.2527  1.0871
 1138TIP3   OH224828   3.252   0.403   4.556 -0.0340 -0.2326 -0.2734
 1138TIP3    H124829   3.289   0.349   4.626  0.7991 -0.2474 -0.7145
 1138TIP3    H224830   3.257   0.348   4.478  0.4793  0.3428 -0.6530
 1139TIP3   OH224831   0.729   2.934  16.264 -0.2546  0.4478 -0.8597
 1139TIP3    H124832   0.721   2.985  16.345 -1.7026 -1.6664  0.4239
 1139TIP3    H224833   0.804   2.973  16.219  0.6934  1.6421  1.5543
 1140TIP3   OH224834   5.880   5.224   0.029 -0.1679  0.0017  0.5092
 1140TIP3    H124835   5.857   5.179   0.110  1.9812  0.2035  1.2899
 1140TIP3    H224836   5.853   5.314   0.043  0.9444  0.2202  1.3767
 1141TIP3   OH224837   0.149   3.493   4.406  0.0276  0.0776  0.0844
 1141TIP3    H124838   0.206   3.558   4.364 -0.7963  0.1778 -0.9148
 1141TIP3    H224839   0.117   3.439   4.334  0.4759 -1.2775  0.8722
 1142TIP3   OH224840   5.167   6.541  14.196 -0.1848  0.2302 -0.2475
 1142TIP3    H124841   5.113   6.565  14.120  1.6141 -0.7252 -1.9237
 1142TIP3    H224842   5.237   6.605  14.197  0.3515 -0.3456 -0.0076
 1143TIP3   OH224843   3.006   3.561  10.948  0.2913 -0.1867  0.2047
 1143TIP3    H124844   2.977   3.506  11.021 -1.9632 -1.3036 -1.3979
 1143TIP3    H224845   2.952   3.640  10.954  1.7228  0.7784  1.0107
 1144TIP3   OH224846   5.568   0.584  11.601  0.0864 -0.1463 -0.3518
 1144TIP3    H124847   5.547   0.607  11.510 -0.4691 -0.9068 -0.4250
 1144TIP3    H224848   5.510   0.640  11.653  1.1642  1.0800 -0.4107
 1145TIP3   OH224849   1.805   5.427   2.900 -0.5418  0.7001 -0.3558
 1145TIP3    H124850   1.723   5.378   2.903 -0.4865  0.4220 -2.1100
 1145TIP3    H224851   1.845   5.400   2.817  1.4759  0.5922  0.6017
 1146TIP3   OH224852   6.382   6.438  10.835  0.1653  0.1293 -0.4248
 1146TIP3    H124853   6.431   6.427  10.917 -3.2010 -1.1007  1.5974
 1146TIP3    H224854   6.418   6.371  10.777  0.9027 -0.7112  0.9405
 1147TIP3   OH224855   1.620   2.886  16.392  0.2947  0.0275 -0.6134
 1147TIP3    H124856   1.548   2.859  16.334  1.7220  2.0118 -3.5378
 1147TIP3    H224857   1.610   2.981  16.399  1.0206  0.0006  1.3187
 1148TIP3   OH224858   0.528   1.034   4.319 -0.1956 -0.3927 -0.0428
 1148TIP3    H124859   0.592   1.087   4.367 -0.2457  0.1868 -0.6171
 1148TIP3    H224860   0.444   1.059   4.357 -0.3018  0.5595 -0.8739
 1149TIP3   OH224861   6.591   0.817   1.493 -0.1508 -0.4904 -0.0853
 1149TIP3    H124862   6.620   0.792   1.581  0.3744 -0.1808 -0.1664
 1149TIP3    H224863   6.661   0.787   1.436  0.4447  1.0398 -0.2030
 1150TIP3   OH224864   3.295   0.743  11.999 -0.3700 -0.1220 -0.0485
 1150TIP3    H124865   3.321   0.831  12.027 -0.9352  0.3626 -0.9819
 1150TIP3    H224866   3.226   0.717  12.060 -1.1645  0.6657 -0.5854
 1151TIP3   OH224867   2.645   3.836   1.444  0.1126  0.0509  0.3369
 1151TIP3    H124868   2.678   3.770   1.383 -1.2153  0.0367 -0.4332
 1151TIP3    H224869   2.590   3.786   1.505  0.0585  0.2895  0.4823
 1152TIP3   OH224870   2.379   3.038   5.104 -0.7057  0.6043 -0.0063
 1152TIP3    H124871   2.352   2.970   5.042 -0.3288  1.4551 -1.1282
 1152TIP3    H224872   2.395   2.990   5.186 -0.3125 -0.6867 -0.8042
 1153TIP3   OH224873   5.871   4.916  16.876  0.3521 -0.1451 -0.4021
 1153TIP3    H124874   5.950   4.918  16.823  1.4189 -2.0689  0.9985
 1153TIP3    H224875   5.858   4.823  16.896 -1.7183  0.2229  0.2144
 1154TIP3   OH224876   2.043   2.055  10.842 -0.6130 -0.0921  0.0701
 1154TIP3    H124877   2.059   2.149  10.850  3.1834 -0.6461  0.8852
 1154TIP3    H224878   2.034   2.024  10.932  3.8927 -1.1120  0.3950
 1155TIP3   OH224879   2.942   1.338  15.220 -0.3187  0.1967 -0.1261
 1155TIP3    H124880   2.932   1.307  15.310  0.5189  0.5123  0.0839
 1155TIP3    H224881   2.970   1.261  15.170  2.8772  0.7248  0.6005
 1156TIP3   OH224882   1.401   1.500   1.797  0.5672  0.0451 -0.6736
 1156TIP3    H124883   1.420   1.424   1.852 -1.3711  1.3616  2.0504
 1156TIP3    H224884   1.315   1.482   1.760  0.3598  0.6785 -0.4984
 1157TIP3   OH224885   4.155   1.532  12.279 -0.0541 -0.4269 -0.0583
 1157TIP3    H124886   4.168   1.618  12.239  1.2798 -1.2530 -1.5228
 1157TIP3    H224887   4.108   1.550  12.361  1.1925  1.7978  0.2376
 1158TIP3   OH224888   6.083   1.517   1.966 -0.6738  0.1807 -0.0023
 1158TIP3    H124889   6.160   1.565   1.996  0.5747 -2.4165  1.3412
 1158TIP3    H224890   6.117   1.458   1.898 -1.9604  0.5571 -1.0044
 1159TIP3   OH224891   0.177   2.285   4.512  0.3882  0.0063  0.3691
 1159TIP3    H124892   0.256   2.258   4.560 -0.1514  0.0534  1.3057
 1159TIP3    H224893   0.150   2.207   4.465  1.0236  0.0013 -0.0049
 1160TIP3   OH224894   2.759   5.736  15.167 -0.0647 -0.1615  0.0894
 1160TIP3    H124895   2.746   5.688  15.249 -0.0848 -1.7907 -0.8436
 1160TIP3    H224896   2.835   5.792  15.185 -0.6980  0.2813  1.5408
 1161TIP3   OH224897   5.517   5.488  13.980  0.3609  0.4775 -0.0150
 1161TIP3    H124898   5.551   5.566  14.025  0.4994  1.0310 -1.0573
 1161TIP3    H224899   5.500   5.426  14.051  1.8208  0.8374  0.7038
 1162TIP3   OH224900   3.265   3.959  12.469 -0.0815  0.6405 -0.1670
 1162TIP3    H124901   3.301   3.877  12.502  2.0611  1.7550  0.4981
 1162TIP3    H224902   3.170   3.946  12.469  0.1232 -1.3169  1.2767
 1163TIP3   OH224903   0.634   6.586  13.603  0.5876  0.2389  0.0099
 1163TIP3    H124904   0.603   6.629  13.523 -1.3429  0.4387  0.8192
 1163TIP3    H224905   0.688   6.652  13.646  0.1037  0.7988 -0.2315
 1164TIP3   OH224906   6.583   5.512   5.621  0.1887 -0.6864 -0.0663
 1164TIP3    H124907   6.520   5.508   5.549  1.6291  0.8029 -1.4879
 1164TIP3    H224908   6.561   5.592   5.668  0.4740 -0.5957 -0.0809
 1165TIP3   OH224909   6.508   2.127  11.232 -0.3367 -0.2799 -0.1799
 1165TIP3    H124910   6.432   2.175  11.202  1.1119  0.9424 -2.1507
 1165TIP3    H224911   6.533   2.169  11.314 -1.0075  0.1572 -0.1927
 1166TIP3   OH224912   1.672   5.264   2.374  0.4242  0.0715  0.2677
 1166TIP3    H124913   1.681   5.308   2.458  0.3846  1.4019 -0.4034
 1166TIP3    H224914   1.614   5.320   2.323  0.5531 -0.6369 -0.7008
 1167TIP3   OH224915   2.690   4.833   1.859 -0.3884  0.8975  0.2819
 1167TIP3    H124916   2.767   4.886   1.838  0.8162 -0.7191  0.4402
 1167TIP3    H224917   2.711   4.794   1.944 -0.3434 -1.3305 -0.6787
 1168TIP3   OH224918   3.404   3.351   5.608  0.3493  0.2566  0.2134
 1168TIP3    H124919   3.335   3.293   5.639  0.7411 -0.3474 -0.0091
 1168TIP3    H224920   3.441   3.305   5.532  0.6530  0.8119  0.0157
 1169TIP3   OH224921   5.507   0.633  14.594 -0.1370  0.4937  0.2387
 1169TIP3    H124922   5.413   0.618  14.589  0.2765 -2.1523 -0.8453
 1169TIP3    H224923   5.531   0.665  14.507 -0.0266  1.3487  0.5711
 1170TIP3   OH224924   3.584   4.006  15.384  0.7889  0.0504 -0.5833
 1170TIP3    H124925   3.543   4.035  15.466 -0.4499  0.9592 -1.4989
 1170TIP3    H224926   3.604   3.913  15.400  0.5529  0.1990  0.7355
 1171TIP3   OH224927   1.434   5.748   0.382 -0.2124  0.0229  0.2472
 1171TIP3    H124928   1.347   5.788   0.370 -0.6065 -0.5220  1.1451
 1171TIP3    H224929   1.418   5.674   0.441  0.4490 -1.6633 -1.6016
 1172TIP3   OH224930   3.027   3.064  13.410  0.1601  0.1113  0.5275
 1172TIP3    H124931   3.122   3.060  13.397  0.1502  0.4647  0.3272
 1172TIP3    H224932   2.990   3.059  13.321  0.0466  1.3022  0.4850
 1173TIP3   OH224933   0.993   3.833  14.728  0.0162  0.4784 -0.6905
 1173TIP3    H124934   0.950   3.764  14.778  1.0373 -1.0356 -1.8004
 1173TIP3    H224935   1.083   3.834  14.761 -0.1247  1.6549 -0.3239
 1174TIP3   OH224936   5.710   1.896  14.673 -0.0961 -0.5713  0.2262
 1174TIP3    H124937   5.778   1.910  14.607 -0.6968 -0.1341 -0.3128
 1174TIP3    H224938   5.636   1.862  14.624 -0.5910 -0.1266  0.6512
 1175TIP3   OH224939   0.949   0.766   4.391 -0.5702  0.3668  0.0397
 1175TIP3    H124940   0.867   0.778   4.343 -0.9767  0.4406  0.7465
 1175TIP3    H224941   0.965   0.672   4.390 -1.8459  0.0878  1.8143
 1176TIP3   OH224942   2.465   0.808   3.424 -0.0462  0.4411  0.1134
 1176TIP3    H124943   2.458   0.863   3.502 -0.4513  1.4634 -0.6054
 1176TIP3    H224944   2.382   0.762   3.419 -0.9487  2.0748 -0.8951
 1177TIP3   OH224945   2.619   2.134  15.418  0.4139 -0.4123  0.0478
 1177TIP3    H124946   2.573   2.163  15.496  0.0673  0.5899 -0.5154
 1177TIP3    H224947   2.617   2.039  15.423  0.2105 -0.3618  1.1469
 1178TIP3   OH224948   5.605   1.999   0.570 -0.5552  0.3876  0.2035
 1178TIP3    H124949   5.699   2.016   0.558  0.2931 -1.8968  2.6695
 1178TIP3    H224950   5.581   1.945   0.496  1.4620 -3.2593  1.9365
 1179TIP3   OH224951   2.756   0.983   6.401 -0.6112 -0.2706 -0.0821
 1179TIP3    H124952   2.709   1.017   6.325  0.5787 -0.0828 -0.7600
 1179TIP3    H224953   2.744   0.889   6.396  2.4232 -0.6845 -2.6570
 1180TIP3   OH224954   6.240   0.745  16.754  0.0062 -0.0851  0.1589
 1180TIP3    H124955   6.293   0.778  16.826 -0.0182  0.2291  0.0372
 1180TIP3    H224956   6.172   0.812  16.742 -0.5364 -0.5815  0.4507
 1181TIP3   OH224957   3.937   6.283  15.793 -0.2344  0.5958  0.3328
 1181TIP3    H124958   3.925   6.362  15.740  0.1196 -0.0838 -0.7807
 1181TIP3    H224959   4.031   6.279  15.808 -0.3157  0.6966  0.8959
 1182TIP3   OH224960   2.568   0.022  15.948 -0.1158  0.2088 -0.4636
 1182TIP3    H124961   2.533  -0.003  15.863 -3.0753 -0.4700  0.8286
 1182TIP3    H224962   2.575   0.117  15.944  0.2753  0.1429 -1.6125
 1183TIP3   OH224963   5.890   2.140   4.018 -0.7148  0.2580  0.0929
 1183TIP3    H124964   5.837   2.060   4.021 -0.4346  0.0828  2.2068
 1183TIP3    H224965   5.910   2.158   4.110  2.6009  0.5129 -0.5690
 1184TIP3   OH224966   5.972   1.290   5.864  0.2628  0.2646  0.2526
 1184TIP3    H124967   5.981   1.340   5.946  1.0669 -0.8671  0.8819
 1184TIP3    H224968   5.928   1.209   5.889  0.4571 -0.0675 -0.4504
 1185TIP3   OH224969   6.160   3.748  14.510  0.4007  0.2730 -0.3274
 1185TIP3    H124970   6.134   3.840  14.515  0.0898  0.1964 -0.5165
 1185TIP3    H224971   6.246   3.749  14.468  0.0227  0.4166 -1.1094
 1186TIP3   OH224972   3.845   3.600  16.835 -0.2825  0.5506  0.0405
 1186TIP3    H124973   3.770   3.647  16.799  0.7140  0.4752 -2.2784
 1186TIP3    H224974   3.830   3.600  16.930 -2.6788  1.3966 -0.2810
 1187TIP3   OH224975   1.678   0.968   2.395  0.0447  0.4450 -0.4061
 1187TIP3    H124976   1.770   0.966   2.424 -0.2158 -0.6766  0.4170
 1187TIP3    H224977   1.628   0.987   2.474 -0.5591 -0.9818 -0.4114
 1188TIP3   OH224978   0.799   4.525   3.001 -0.1734 -0.1375 -0.5084
 1188TIP3    H124979   0.788   4.448   3.057  0.1537  0.4770  0.4302
 1188TIP3    H224980   0.712   4.540   2.963 -0.5044 -0.3430  0.1518
 1189TIP3   OH224981   6.359   2.815   3.190  0.3384 -0.1249 -0.4161
 1189TIP3    H124982   6.434   2.814   3.130 -0.0599 -0.9930 -0.9198
 1189TIP3    H224983   6.298   2.751   3.153  0.2062 -0.9077  1.0682
 1190TIP3   OH224984   2.529   0.915  12.240  0.1050 -0.4221  0.4356
 1190TIP3    H124985   2.621   0.938  12.258  0.2470  0.1087 -0.9118
 1190TIP3    H224986   2.519   0.929  12.146 -1.0667 -1.5342  0.3805
 1191TIP3   OH224987   4.057   5.787  16.592  0.5648 -0.1516 -0.4130
 1191TIP3    H124988   4.090   5.752  16.509  1.1645  0.3625 -0.4003
 1191TIP3    H224989   4.114   5.748  16.658  1.7993  1.4486 -0.4594
 1192TIP3   OH224990   0.780   6.663  15.761  0.4996  0.0253  0.2282
 1192TIP3    H124991   0.700   6.609  15.765  1.6633 -1.7813  0.4327
 1192TIP3    H224992   0.792   6.695  15.850  1.2130 -1.6220  0.7609
 1193TIP3   OH224993   5.626   3.137   3.681  0.1602  0.2896  0.0282
 1193TIP3    H124994   5.675   3.132   3.763  0.1856  0.0538  0.0021
 1193TIP3    H224995   5.542   3.174   3.705  0.2502  0.4319  0.1231
 1194TIP3   OH224996   4.665   5.699   3.263 -0.3045  0.6960  0.0776
 1194TIP3    H124997   4.652   5.792   3.279  0.9739  1.0649 -0.8677
 1194TIP3    H224998   4.641   5.686   3.171  1.1907  0.4562 -0.2967
 1195TIP3   OH224999   0.586   4.553   2.820  0.4403  0.3535 -0.1375
 1195TIP3    H125000   0.544   4.600   2.749  1.2899 -0.2150 -1.0491
 1195TIP3    H225001   0.519   4.547   2.888 -0.4055  0.8811 -0.8997
 1196TIP3   OH225002   4.609   4.241  13.495  0.4957 -0.3968 -0.1100
 1196TIP3    H125003   4.688   4.201  13.530  0.6752 -0.1672 -0.2565
 1196TIP3    H225004   4.576   4.177  13.431  0.6289 -0.4374 -0.1370
 1197TIP3   OH225005   4.513   6.317   5.562 -0.1713  0.0601 -0.6719
 1197TIP3    H125006   4.466   6.358   5.489 -0.0645  1.8682  0.2231
 1197TIP3    H225007   4.545   6.390   5.614  2.1322 -1.1391 -0.2638
 1198TIP3   OH225008   6.639   1.656   4.138  0.2358  0.6376  0.0490
 1198TIP3    H125009   6.701   1.601   4.090  0.4252  0.9417 -0.0573
 1198TIP3    H225010   6.556   1.608   4.134  0.5761 -0.0177  0.6235
 1199TIP3   OH225011   5.726   3.492   1.502  0.2245 -0.1203 -0.2406
 1199TIP3    H125012   5.792   3.493   1.433 -0.6103 -0.3607 -1.0681
 1199TIP3    H225013   5.767   3.536   1.576  1.0030  0.4951 -1.0192
 1200TIP3   OH225014   4.241   6.158  10.622  0.1115  0.0920  0.5775
 1200TIP3    H125015   4.185   6.156  10.701  0.0169  1.8418  0.5966
 1200TIP3    H225016   4.292   6.238  10.631  1.0106 -0.3257 -0.5599
 1201TIP3   OH225017   4.080   0.038   0.146 -0.1055 -0.1065  0.1032
 1201TIP3    H125018   4.005  -0.020   0.132  1.1943 -1.6794 -0.6958
 1201TIP3    H225019   4.154  -0.021   0.156  0.9093  1.3656  1.9667
 1202TIP3   OH225020   0.035   1.446   4.330 -0.6450 -0.2735  0.1761
 1202TIP3    H125021  -0.046   1.470   4.376 -0.2554  0.3155  0.5719
 1202TIP3    H225022   0.015   1.459   4.238 -0.5722  1.2792  0.3542
 1203TIP3   OH225023   6.142   0.630   1.391  0.0018 -0.4100  0.0851
 1203TIP3    H125024   6.222   0.655   1.345  0.2885 -1.2546  0.1006
 1203TIP3    H225025   6.171   0.567   1.457 -0.2234  1.7227  2.3395
 1204TIP3   OH225026   0.893   2.481   3.302 -0.2051  0.2493  0.1473
 1204TIP3    H125027   0.978   2.481   3.346 -0.4713 -2.2075  0.7859
 1204TIP3    H225028   0.897   2.555   3.242  1.0687  2.3136  2.5886
 1205TIP3   OH225029   2.108   3.182   0.338  0.1292 -0.4290 -0.2826
 1205TIP3    H125030   2.112   3.120   0.412  0.5813 -0.2860 -0.1866
 1205TIP3    H225031   2.163   3.142   0.271 -0.8369 -0.9015 -0.8058
 1206TIP3   OH225032   2.155   3.756   3.805 -0.0103  0.2937  0.6233
 1206TIP3    H125033   2.097   3.685   3.777  1.1875 -0.1354 -0.9326
 1206TIP3    H225034   2.115   3.789   3.886 -1.6174 -0.9020  0.3760
 1207TIP3   OH225035   4.609   4.516   5.903  0.1225  0.0084 -0.0009
 1207TIP3    H125036   4.544   4.445   5.902  0.6681 -0.4931 -0.6664
 1207TIP3    H225037   4.611   4.544   5.995  0.0623 -0.9874  0.3234
 1208TIP3   OH225038   3.829   2.498   5.642  0.0363 -0.4400 -0.2255
 1208TIP3    H125039   3.878   2.548   5.707  1.1287 -0.1990 -1.2068
 1208TIP3    H225040   3.742   2.486   5.681  1.5439 -3.1081  2.7263
 1209TIP3   OH225041   3.579   2.383   3.033 -0.2057 -0.3668 -0.6631
 1209TIP3    H125042   3.631   2.463   3.026  1.0881 -1.0632  0.3857
 1209TIP3    H225043   3.603   2.331   2.956 -0.2996 -0.1474 -0.8385
 1210TIP3   OH225044   5.215   3.826  11.731 -0.2356  0.0877 -0.0586
 1210TIP3    H125045   5.253   3.738  11.722 -0.1952 -0.0520  1.3228
 1210TIP3    H225046   5.126   3.810  11.763 -0.3525  0.5531 -0.1448
 1211TIP3   OH225047   6.758   2.705   0.802  0.1104 -0.2726 -0.0131
 1211TIP3    H125048   6.714   2.666   0.878 -0.9466 -1.8689 -1.3641
 1211TIP3    H225049   6.851   2.694   0.820 -0.1184 -0.6562  1.0261
 1212TIP3   OH225050   1.517   4.696  13.833  0.2524 -0.6890 -0.1997
 1212TIP3    H125051   1.609   4.716  13.852 -0.6157  1.6138  2.1443
 1212TIP3    H225052   1.498   4.620  13.887 -0.0079  0.8836  2.0804
 1213TIP3   OH225053   5.949   1.876   4.413  0.2061 -0.2038 -0.3934
 1213TIP3    H125054   5.968   1.910   4.500 -1.1776 -0.0289 -0.1239
 1213TIP3    H225055   6.000   1.795   4.406  0.3435 -0.2063  0.5824
 1214TIP3   OH225056   1.463   3.333   1.254  0.4091  0.0827 -0.0703
 1214TIP3    H125057   1.505   3.296   1.177  0.5231 -0.5398  0.2838
 1214TIP3    H225058   1.521   3.405   1.280  0.8832 -0.3135 -0.0113
 1215TIP3   OH225059   2.314   1.077   1.464 -0.9696 -0.3125  0.1304
 1215TIP3    H125060   2.299   1.055   1.373 -1.4576  0.2685  0.0615
 1215TIP3    H225061   2.246   1.030   1.512 -0.1997 -1.2944  0.2943
 1216TIP3   OH225062   2.565   0.339   0.192  0.0590 -0.4284 -0.1248
 1216TIP3    H125063   2.618   0.357   0.270 -1.6360 -0.3783  1.0810
 1216TIP3    H225064   2.533   0.425   0.165 -0.2736 -0.5746 -0.1949
 1217TIP3   OH225065   4.827   6.424  15.937  0.3120  0.5629 -0.3893
 1217TIP3    H125066   4.896   6.362  15.917 -1.3298 -1.8596  0.9370
 1217TIP3    H225067   4.756   6.402  15.877  0.1898  2.2267 -0.9262
 1218TIP3   OH225068   0.369   5.296   3.360  0.0402 -0.0594 -0.1702
 1218TIP3    H125069   0.280   5.268   3.382  0.8235 -1.2663  1.7718
 1218TIP3    H225070   0.422   5.216   3.368  1.6352  1.0332  0.9946
 1219TIP3   OH225071   0.943   2.922   1.100  0.1711  0.2213  0.3321
 1219TIP3    H125072   0.956   3.016   1.092  0.4650  0.1077 -0.7289
 1219TIP3    H225073   0.849   2.909   1.083 -0.1574  0.4336  1.8240
 1220TIP3   OH225074   4.332   1.083   5.330  0.3370  0.5404 -0.4826
 1220TIP3    H125075   4.303   1.173   5.342 -0.9340  0.1464 -0.4465
 1220TIP3    H225076   4.266   1.030   5.374  1.6605 -0.3784  0.4841
 1221TIP3   OH225077   2.784   3.259  13.234  0.2340 -0.0285 -0.3183
 1221TIP3    H125078   2.868   3.224  13.205  0.0703 -0.2890 -0.4759
 1221TIP3    H225079   2.722   3.231  13.167 -0.3339 -1.4454  0.7561
 1222TIP3   OH225080   6.128   6.093  16.895 -0.4325  0.4917 -0.0537
 1222TIP3    H125081   6.154   6.185  16.902  0.3145  0.2379  0.6598
 1222TIP3    H225082   6.113   6.066  16.985 -0.0024 -0.2635 -0.2007
 1223TIP3   OH225083   3.810   3.726  10.494  0.3309  0.2944 -0.0518
 1223TIP3    H125084   3.750   3.719  10.569  0.5147 -0.4279  0.0370
 1223TIP3    H225085   3.758   3.698  10.419  0.1322  1.0666 -0.2068
 1224TIP3   OH225086   4.370   6.761   3.073  0.0339 -1.0445  0.0145
 1224TIP3    H125087   4.420   6.698   3.021 -0.4822 -0.5698 -1.0984
 1224TIP3    H225088   4.280   6.752   3.041  0.0426  0.6271 -0.5740
 1225TIP3   OH225089   3.808   0.079  11.607 -0.2097 -0.3352  0.0403
 1225TIP3    H125090   3.793   0.025  11.529  2.2393  1.4839 -1.8138
 1225TIP3    H225091   3.774   0.165  11.584  0.4695  0.2148  1.0387
 1226TIP3   OH225092   0.426   4.439  15.057  0.6066  0.1835 -0.1712
 1226TIP3    H125093   0.512   4.400  15.067  0.4356 -0.1780 -0.0670
 1226TIP3    H225094   0.441   4.533  15.059  0.9667  0.1203  0.1177
 1227TIP3   OH225095   4.067   5.754  16.145  0.4911  0.2126  0.3008
 1227TIP3    H125096   4.133   5.792  16.086  1.1577  1.4657  1.7850
 1227TIP3    H225097   4.115   5.736  16.226 -0.0779 -2.7853  0.0655
 1228TIP3   OH225098   6.132   0.128   4.502 -0.9736  0.4184  0.6400
 1228TIP3    H125099   6.133   0.214   4.459  0.2655 -0.1552 -0.5530
 1228TIP3    H225100   6.052   0.086   4.472 -0.5554  0.3692 -0.4327
 1229TIP3   OH225101   4.268   5.922   4.239  0.2102 -0.2143  0.0439
 1229TIP3    H125102   4.309   5.911   4.153  1.8158  0.3811  0.7105
 1229TIP3    H225103   4.219   6.004   4.231 -2.1279 -1.6190 -1.1995
 1230TIP3   OH225104   2.801   0.633   4.499 -0.1137  0.5497 -0.2392
 1230TIP3    H125105   2.714   0.637   4.461 -1.0580  0.2859  1.7275
 1230TIP3    H225106   2.792   0.569   4.571  1.4320  1.2418  0.6146
 1231TIP3   OH225107   3.978   1.221  17.014 -0.9528  0.3184  0.0870
 1231TIP3    H125108   4.029   1.155  16.966  0.1894 -0.4534  2.2176
 1231TIP3    H225109   3.887   1.192  17.004 -0.5520 -1.0711  0.1967
 1232TIP3   OH225110   1.182   4.179  16.153  0.5163 -0.1843 -0.0906
 1232TIP3    H125111   1.273   4.198  16.176  0.4073  0.3133 -0.0646
 1232TIP3    H225112   1.186   4.094  16.109  0.4835 -2.3650  3.6863
 1233TIP3   OH225113   2.704   2.706  10.378  0.0544  0.4787 -0.1885
 1233TIP3    H125114   2.730   2.706  10.470  1.1241  0.3778 -0.4772
 1233TIP3    H225115   2.765   2.646  10.336 -2.1839 -1.7606 -0.5170
 1234TIP3   OH225116   0.909   2.347  15.415  0.2488 -0.0869  0.2733
 1234TIP3    H125117   0.923   2.437  15.385 -0.3000 -0.4814 -1.2833
 1234TIP3    H225118   0.936   2.348  15.507  0.2500  1.6591  0.2974
 1235TIP3   OH225119   0.980   5.495   2.895 -0.2731  0.0651  0.3476
 1235TIP3    H125120   0.902   5.510   2.841  0.5346 -0.6282 -1.0606
 1235TIP3    H225121   1.033   5.574   2.882  0.0827 -0.2561 -0.1640
 1236TIP3   OH225122   6.689   6.471   6.315 -0.1041  0.4365 -0.1198
 1236TIP3    H125123   6.713   6.378   6.321 -3.3696 -0.5850 -0.6477
 1236TIP3    H225124   6.658   6.493   6.403  1.1714  1.2412  0.1501
 1237TIP3   OH225125   1.440   5.574   5.415  0.1937 -0.0888  0.3967
 1237TIP3    H125126   1.461   5.666   5.428 -1.8569  0.5812 -0.6661
 1237TIP3    H225127   1.385   5.572   5.337 -1.9956 -1.8529  1.8307
 1238TIP3   OH225128   5.812   6.699  13.839  0.2933  0.0436 -0.2654
 1238TIP3    H125129   5.800   6.627  13.901 -0.8274  1.1323  0.8494
 1238TIP3    H225130   5.774   6.775  13.883  3.4305  1.8895 -0.3657
 1239TIP3   OH225131   5.710   6.740  15.467 -0.2693  0.2513  0.5487
 1239TIP3    H125132   5.748   6.823  15.434  0.5841 -0.4026 -0.1864
 1239TIP3    H225133   5.781   6.700  15.517 -0.1169 -0.7630 -0.4257
 1240TIP3   OH225134   4.888   3.732   5.325  0.0811  0.0350 -0.4904
 1240TIP3    H125135   4.927   3.709   5.241 -0.7676  1.3061 -1.2657
 1240TIP3    H225136   4.961   3.770   5.375  0.0652  1.6890 -1.6423
 1241TIP3   OH225137   5.307   5.032  17.117  0.2058  0.4257  0.2622
 1241TIP3    H125138   5.393   5.048  17.078 -0.2842  0.0031 -1.0492
 1241TIP3    H225139   5.282   5.117  17.155  1.5631  0.3262  1.4483
 1242TIP3   OH225140   2.191   2.949  15.927 -0.2093  0.2445  0.2577
 1242TIP3    H125141   2.164   2.957  15.835 -0.5203  0.7473  0.3874
 1242TIP3    H225142   2.285   2.970  15.925 -0.5036  1.7208  0.2366
 1243TIP3   OH225143   2.214   3.608   0.167 -0.2412  0.1111  0.2567
 1243TIP3    H125144   2.195   3.702   0.179 -2.5398 -0.2755  0.1745
 1243TIP3    H225145   2.170   3.586   0.085  0.3035 -1.0479  0.2661
 1244TIP3   OH225146   1.745   0.960   4.114  0.0581 -0.2429 -0.2002
 1244TIP3    H125147   1.823   0.905   4.105  0.7627  0.6523  0.1535
 1244TIP3    H225148   1.776   1.037   4.162 -1.4768 -0.7054  1.6371
 1245TIP3   OH225149   0.620   1.523  13.428  0.1456  0.4377 -0.1888
 1245TIP3    H125150   0.591   1.518  13.519  1.0478 -0.6920  0.0683
 1245TIP3    H225151   0.542   1.547  13.379 -0.5663  0.1667  0.7784
 1246TIP3   OH225152   5.503   2.158   4.480  0.3974  0.4658  0.4402
 1246TIP3    H125153   5.541   2.243   4.502 -1.6809  1.4270  0.5819
 1246TIP3    H225154   5.527   2.143   4.389  0.4599  1.4214  0.2870
 1247TIP3   OH225155   6.255   5.538  15.962 -0.8066  0.6634 -0.2988
 1247TIP3    H125156   6.201   5.484  16.018 -1.3116  2.9253  1.5524
 1247TIP3    H225157   6.201   5.556  15.885 -1.3333  0.0799 -0.0680
 1248TIP3   OH225158   2.363   3.395   2.844  0.5675  0.0528  0.0507
 1248TIP3    H125159   2.438   3.342   2.814  0.5711 -0.2638  0.6026
 1248TIP3    H225160   2.369   3.476   2.793 -1.0903 -1.5726 -2.9363
 1249TIP3   OH225161   1.414   0.013   1.274  0.7372  0.1809  0.3103
 1249TIP3    H125162   1.349  -0.051   1.303  1.5134 -0.1625  1.3815
 1249TIP3    H225163   1.363   0.089   1.248 -0.3306 -1.2811 -2.3513
 1250TIP3   OH225164   4.454   3.957   5.973  0.1174 -0.0470 -0.0735
 1250TIP3    H125165   4.485   3.877   5.929  0.0047  0.0080 -0.2577
 1250TIP3    H225166   4.533   4.006   5.993  0.1894 -0.2136  0.0563
 1251TIP3   OH225167   2.439   5.340  16.361  0.2628 -0.7945 -0.2970
 1251TIP3    H125168   2.477   5.252  16.359  1.2694 -0.3591 -0.9837
 1251TIP3    H225169   2.513   5.398  16.341 -0.7153  0.0930 -1.4492
 1252TIP3   OH225170   5.055   5.269   2.818 -0.2061  0.3901  0.1363
 1252TIP3    H125171   5.120   5.258   2.888 -1.0440 -0.0416  0.8583
 1252TIP3    H225172   5.085   5.347   2.770  2.0152 -0.9389 -0.8553
 1253TIP3   OH225173   3.492   0.122   5.296 -0.3987 -0.2019 -0.4599
 1253TIP3    H125174   3.569   0.165   5.259  0.6248 -0.7311  0.9810
 1253TIP3    H225175   3.421   0.187   5.285  1.1865  2.2069  2.1387
 1254TIP3   OH225176   5.140   6.428  14.976 -0.2031 -0.0361  0.0508
 1254TIP3    H125177   5.113   6.492  14.911  0.1299 -0.6628 -0.7142
 1254TIP3    H225178   5.156   6.480  15.055  1.3234  1.0162 -0.9022
 1255TIP3   OH225179   4.084   4.394   5.206  0.4553  1.3143  0.4571
 1255TIP3    H125180   4.088   4.488   5.220 -0.5619  1.2591  1.2505
 1255TIP3    H225181   4.127   4.356   5.283  1.0465  1.1260  0.0418
 1256TIP3   OH225182   6.477   2.457  15.829  0.0486  0.3872 -0.7636
 1256TIP3    H125183   6.522   2.529  15.784 -1.3117 -0.3412 -3.5097
 1256TIP3    H225184   6.398   2.496  15.865 -0.1882  0.4877 -1.3806
 1257TIP3   OH225185   2.350   3.130  12.196 -0.0798  0.5468 -0.7934
 1257TIP3    H125186   2.342   3.139  12.101 -0.8793 -0.2711 -0.8149
 1257TIP3    H225187   2.326   3.039  12.214 -0.3903  0.8157  0.2409
 1258TIP3   OH225188   6.350   4.762  14.597 -0.0635 -0.5088  0.2256
 1258TIP3    H125189   6.409   4.835  14.576  0.4763 -1.5784 -2.4870
 1258TIP3    H225190   6.275   4.776  14.539 -0.0983 -1.8952 -0.0915
 1259TIP3   OH225191   0.135   1.141   2.822 -0.7415 -0.1936 -0.4553
 1259TIP3    H125192   0.192   1.066   2.836 -0.7216 -0.2365 -0.7510
 1259TIP3    H225193   0.143   1.161   2.728 -1.8140 -0.6958 -0.6773
 1260TIP3   OH225194   0.102   3.656   0.270 -0.2716  0.2914  0.5497
 1260TIP3    H125195   0.071   3.743   0.297 -2.1978 -0.0678 -0.3480
 1260TIP3    H225196   0.083   3.652   0.176  1.1949 -0.5577  0.2598
 1261TIP3   OH225197   4.156   1.199   3.828 -0.0761  0.6729 -0.1214
 1261TIP3    H125198   4.158   1.151   3.911 -0.0209 -0.5301 -0.8008
 1261TIP3    H225199   4.126   1.287   3.853 -1.1060  0.0434  1.0295
 1262TIP3   OH225200   0.486   1.141   2.375  0.5901 -0.1008 -0.6882
 1262TIP3    H125201   0.572   1.182   2.389 -0.4654  2.1290 -0.3718
 1262TIP3    H225202   0.456   1.174   2.291 -0.4190 -0.0121 -0.3058
 1263TIP3   OH225203   3.393   4.931   2.949  0.0229 -0.2953  0.4648
 1263TIP3    H125204   3.457   4.918   2.879 -0.9110  0.3697 -0.5358
 1263TIP3    H225205   3.408   4.857   3.009 -0.7623 -2.3394 -1.6898
 1264TIP3   OH225206   6.704   6.211   0.043  0.3418 -0.4163  0.3638
 1264TIP3    H125207   6.699   6.296  -0.000 -0.3299 -0.1518  0.9428
 1264TIP3    H225208   6.750   6.229   0.125  1.4045 -0.8696 -0.1102
 1265TIP3   OH225209   2.267   5.063   5.014  0.2412 -0.6001  0.0150
 1265TIP3    H125210   2.283   5.156   5.001 -2.5718  0.3112  1.9465
 1265TIP3    H225211   2.336   5.034   5.073  0.3236  0.6716  0.5713
 1266TIP3   OH225212   5.475   2.414  13.859  0.0887 -0.4659  0.4612
 1266TIP3    H125213   5.403   2.414  13.796 -0.5552 -1.4365  1.1615
 1266TIP3    H225214   5.535   2.346  13.827  1.1500  0.8894 -0.5734
 1267TIP3   OH225215   0.986   1.862   0.463  0.1015  0.2864  0.0411
 1267TIP3    H125216   1.040   1.888   0.388  0.2696 -0.0220  0.0514
 1267TIP3    H225217   1.033   1.788   0.501  0.0447  0.4804  0.4861
 1268TIP3   OH225218   5.675   2.613   3.015  0.2350 -0.1005 -0.0927
 1268TIP3    H125219   5.601   2.673   3.004  0.0999 -0.3932 -0.7811
 1268TIP3    H225220   5.753   2.670   3.011  0.1219  0.0001 -1.0208
 1269TIP3   OH225221   1.464   5.994  13.556 -0.0617  0.3464  0.4244
 1269TIP3    H125222   1.537   6.054  13.545 -0.1123  0.3569  0.1417
 1269TIP3    H225223   1.503   5.914  13.592 -0.2438  1.1694  2.6191
 1270TIP3   OH225224   4.906   2.071  16.188 -0.4187 -0.1649  0.8641
 1270TIP3    H125225   4.984   2.096  16.139 -0.3378  0.3200  1.2294
 1270TIP3    H225226   4.881   2.151  16.234 -1.8415  0.0554 -0.2050
 1271TIP3   OH225227   5.280   3.590   0.696  0.2932 -0.4417 -0.4275
 1271TIP3    H125228   5.232   3.655   0.747  1.2807  1.0258 -1.2966
 1271TIP3    H225229   5.212   3.537   0.655 -0.5561  0.4490 -0.2116
 1272TIP3   OH225230   5.560   1.810  16.508 -0.3971  0.1025  0.4380
 1272TIP3    H125231   5.509   1.808  16.589  0.0098  0.7164  0.7156
 1272TIP3    H225232   5.502   1.771  16.443 -0.8286 -0.1592  0.9671
 1273TIP3   OH225233   2.569   1.301   6.748  0.0741 -0.1722 -0.0055
 1273TIP3    H125234   2.635   1.240   6.782 -0.3096 -1.7073 -1.7797
 1273TIP3    H225235   2.486   1.255   6.758 -0.1720 -0.2112 -1.8480
 1274TIP3   OH225236   6.435   5.330   1.666  0.5256  0.3917 -0.0419
 1274TIP3    H125237   6.417   5.310   1.758 -0.8623 -1.6032 -0.6932
 1274TIP3    H225238   6.373   5.400   1.643  0.6291  0.6387  0.4139
 1275TIP3   OH225239   4.743   2.355   4.658 -0.0229 -0.2212  0.1879
 1275TIP3    H125240   4.691   2.283   4.695 -0.2899 -0.0171  0.2122
 1275TIP3    H225241   4.833   2.335   4.683 -0.3460  0.7511  2.3669
 1276TIP3   OH225242   1.712   6.644   3.398  0.5305  0.1178 -0.6618
 1276TIP3    H125243   1.736   6.723   3.447 -3.4190  1.5886 -0.7363
 1276TIP3    H225244   1.743   6.661   3.309  0.0649  1.4767 -0.5864
 1277TIP3   OH225245   0.340   3.336  16.684 -0.2820  0.2606 -0.2292
 1277TIP3    H125246   0.294   3.293  16.756 -1.2372  1.6113  0.0145
 1277TIP3    H225247   0.319   3.429  16.695  1.7639  0.8198 -0.6689
 1278TIP3   OH225248   0.901   2.860   5.374 -0.0993 -0.3337 -0.1282
 1278TIP3    H125249   0.991   2.890   5.388 -0.4465  0.2513  0.9573
 1278TIP3    H225250   0.909   2.790   5.309  1.0611  0.1246 -0.5142
 1279TIP3   OH225251   5.439   2.572   4.296 -0.0750  0.3114 -0.1712
 1279TIP3    H125252   5.523   2.536   4.268 -0.7690 -0.9645 -0.6990
 1279TIP3    H225253   5.425   2.537   4.384 -0.4103 -0.1385 -0.3968
 1280TIP3   OH225254   3.749   0.612   0.817 -0.3428 -0.2926 -0.3011
 1280TIP3    H125255   3.697   0.654   0.886 -0.1835  0.8781 -0.8698
 1280TIP3    H225256   3.839   0.638   0.836 -0.1616 -0.9361 -0.2782
 1281TIP3   OH225257   5.644   3.094   1.877 -0.3507  0.1738 -0.1031
 1281TIP3    H125258   5.568   3.037   1.887  0.1025 -0.8503 -2.0530
 1281TIP3    H225259   5.612   3.166   1.822  0.0385 -0.1631 -0.7717
 1282TIP3   OH225260   2.087   6.161   6.536 -0.2072  0.1950 -0.3951
 1282TIP3    H125261   2.037   6.134   6.613  1.5237 -0.2740  0.6180
 1282TIP3    H225262   2.116   6.079   6.496  0.1831  0.4645 -0.6717
 1283TIP3   OH225263   0.887   3.977   3.981  0.4137 -0.0981 -0.7154
 1283TIP3    H125264   0.908   4.003   4.071  1.9944 -1.5903 -0.5967
 1283TIP3    H225265   0.945   4.029   3.927  1.0633 -0.8091 -0.7109
 1284TIP3   OH225266   4.545   1.041   2.417  0.0386  0.6403  0.0579
 1284TIP3    H125267   4.531   0.974   2.351  2.9002 -3.1678  2.7899
 1284TIP3    H225268   4.606   1.103   2.377 -0.0870 -0.2532 -1.5668
 1285TIP3   OH225269   3.123   1.234   5.729 -0.1404  0.0512  0.3262
 1285TIP3    H125270   3.109   1.327   5.709 -1.0124 -0.0842  0.2585
 1285TIP3    H225271   3.075   1.188   5.661 -1.9800 -0.4256  1.8562
 1286TIP3   OH225272   5.400   0.451  11.970  0.1517 -0.1952 -0.3664
 1286TIP3    H125273   5.325   0.471  12.025  0.0358 -0.0654 -0.5701
 1286TIP3    H225274   5.387   0.359  11.946 -0.9448  0.3229 -1.9229
 1287TIP3   OH225275   6.389   4.981  14.341  0.4924 -0.6341 -0.2540
 1287TIP3    H125276   6.438   4.982  14.423  0.8651 -0.7909 -0.4757
 1287TIP3    H225277   6.435   4.917  14.286 -0.8619 -1.9672  0.0868
 1288TIP3   OH225278   4.613   3.718   3.512  0.3577  0.0836 -0.5134
 1288TIP3    H125279   4.600   3.633   3.555 -1.5657  0.1095 -0.9932
 1288TIP3    H225280   4.553   3.717   3.438 -0.7157  2.3762  0.2392
 1289TIP3   OH225281   0.702   0.567   2.688  0.4163  0.7714 -0.5691
 1289TIP3    H125282   0.737   0.646   2.729  0.5051 -0.9435  2.9890
 1289TIP3    H225283   0.779   0.513   2.669  0.3362  1.3309 -2.7562
 1290TIP3   OH225284   6.435   0.930  15.947  0.9090  0.0650 -0.1151
 1290TIP3    H125285   6.498   0.926  16.018  1.3170 -0.0207 -0.4743
 1290TIP3    H225286   6.412   1.023  15.939 -0.6053 -0.1370  1.3776
 1291TIP3   OH225287   1.153   4.960   3.256  0.0650 -0.3417  0.2759
 1291TIP3    H125288   1.212   5.006   3.196  0.8474 -0.0318  1.2685
 1291TIP3    H225289   1.159   5.008   3.338 -0.6843 -1.0058  0.7359
 1292TIP3   OH225290   5.367   0.308  14.932  0.2319 -0.1906  0.2556
 1292TIP3    H125291   5.439   0.249  14.957  0.9060  0.9212  1.0031
 1292TIP3    H225292   5.364   0.373  15.002 -2.4920 -1.0125  1.0475
 1293TIP3   OH225293   0.678   6.720   2.784 -0.5169  0.2508  0.0458
 1293TIP3    H125294   0.682   6.800   2.732 -1.4173  1.0690  1.2046
 1293TIP3    H225295   0.764   6.712   2.824  0.2969 -0.5491 -1.7324
 1294TIP3   OH225296   5.738   3.179   3.920  0.3080 -0.1038  0.0184
 1294TIP3    H125297   5.828   3.152   3.904  0.2308  0.3767 -1.3770
 1294TIP3    H225298   5.746   3.259   3.973  0.6126 -1.0884  1.5291
 1295TIP3   OH225299   3.493   2.372   1.930  0.0430 -0.4477  0.5541
 1295TIP3    H125300   3.543   2.448   1.902 -1.5715 -0.1583 -1.8080
 1295TIP3    H225301   3.492   2.314   1.855 -0.5109 -1.8869  1.6208
 1296TIP3   OH225302   3.885   0.709  15.892 -0.0032  0.0401 -0.4238
 1296TIP3    H125303   3.837   0.788  15.867  0.2992 -0.6180 -3.4334
 1296TIP3    H225304   3.961   0.707  15.833  1.8364 -0.8263  1.8022
 1297TIP3   OH225305   3.963   1.937  14.952 -0.0358 -0.4027  0.0683
 1297TIP3    H125306   4.024   1.935  14.878 -0.4316  0.4844 -0.3057
 1297TIP3    H225307   3.975   1.853  14.996 -0.4477 -1.3460 -1.5416
 1298TIP3   OH225308   2.300   1.711  14.524 -0.0076 -0.2405 -0.4581
 1298TIP3    H125309   2.365   1.778  14.506  0.6255 -0.4541  0.9338
 1298TIP3    H225310   2.305   1.697  14.619 -0.7724 -1.5828 -0.5900
 1299TIP3   OH225311   0.821   0.154   1.911  0.3192  0.2036  0.3395
 1299TIP3    H125312   0.903   0.107   1.893 -0.6753 -1.4688 -0.0528
 1299TIP3    H225313   0.830   0.184   2.001  1.3359  0.0075  0.3234
 1300TIP3   OH225314   2.546   1.613   2.203 -0.2462 -0.1370 -0.5449
 1300TIP3    H125315   2.562   1.660   2.285  1.0032 -1.4815  0.0187
 1300TIP3    H225316   2.605   1.538   2.206  1.2829  0.7746 -3.5247
 1301TIP3   OH225317   2.470   3.582   4.803 -0.7366  0.3005 -0.2798
 1301TIP3    H125318   2.403   3.649   4.814 -0.3305  0.8876 -1.2772
 1301TIP3    H225319   2.543   3.627   4.761  0.8923  0.0368  2.0978
 1302TIP3   OH225320   4.650   4.152   0.821 -0.0773  0.6638  0.1805
 1302TIP3    H125321   4.656   4.127   0.914  0.5674  1.4999  0.3797
 1302TIP3    H225322   4.557   4.167   0.806 -0.2140  0.3136  0.6347
 1303TIP3   OH225323   4.514   6.528  14.016  0.4566  0.3288 -0.6467
 1303TIP3    H125324   4.544   6.506  14.104 -0.7226 -0.8215 -0.5007
 1303TIP3    H225325   4.594   6.539  13.965  1.1382 -0.1220  0.2996
 1304TIP3   OH225326   6.390   1.560  14.489  0.2394 -0.1986 -0.2642
 1304TIP3    H125327   6.363   1.489  14.431  0.1769  0.8478 -1.5646
 1304TIP3    H225328   6.309   1.591  14.528  0.2448 -0.7098  0.1602
 1305TIP3   OH225329   1.391   3.386   5.210  0.3630  0.0854 -0.5155
 1305TIP3    H125330   1.428   3.328   5.276  0.0973  0.1758 -0.2866
 1305TIP3    H225331   1.462   3.447   5.188 -0.1798  1.4358  1.2572
 1306TIP3   OH225332   3.620   4.923   2.130 -0.2500 -0.1452  0.0477
 1306TIP3    H125333   3.713   4.935   2.111 -0.3457 -1.9587 -2.0448
 1306TIP3    H225334   3.579   5.006   2.106  0.9525  1.2868  2.6051
 1307TIP3   OH225335   5.839   3.327   5.414 -0.0371 -0.5837  0.0458
 1307TIP3    H125336   5.926   3.344   5.451 -0.2524  0.0862  0.2489
 1307TIP3    H225337   5.816   3.240   5.448 -0.4071  0.1842  1.8410
 1308TIP3   OH225338   5.767   1.186   2.962  0.2952  0.1255  0.3008
 1308TIP3    H125339   5.728   1.205   2.876  0.3588  1.2951  0.5142
 1308TIP3    H225340   5.746   1.094   2.978 -1.2634  0.3719 -0.1676
 1309TIP3   OH225341   1.133   3.071  16.977 -0.0169  0.1150 -0.0293
 1309TIP3    H125342   1.217   3.037  16.947  0.0973  0.6810 -0.3590
 1309TIP3    H225343   1.092   3.109  16.899 -0.8599 -0.7092 -0.0043
 1310TIP3   OH225344   0.004   2.315  12.732  0.0602 -0.0227 -0.6718
 1310TIP3    H125345  -0.013   2.385  12.669  1.7658 -0.7562 -2.0483
 1310TIP3    H225346  -0.015   2.354  12.817 -0.7318  1.5410 -1.5216
 1311TIP3   OH225347   3.423   1.771  16.205 -0.6765  0.4822  0.4706
 1311TIP3    H125348   3.454   1.816  16.284  0.2705  2.7176 -1.0663
 1311TIP3    H225349   3.384   1.840  16.152 -2.6203 -1.2128 -0.4405
 1312TIP3   OH225350   1.452   6.428   4.183  0.0382 -0.1389  0.1518
 1312TIP3    H125351   1.373   6.378   4.202  0.1530  0.2041  1.6679
 1312TIP3    H225352   1.427   6.519   4.200  1.0298 -0.1234  1.7792
 1313TIP3   OH225353   4.143   2.284   6.034 -0.1053  0.3389 -0.3533
 1313TIP3    H125354   4.178   2.321   6.115  1.4312  1.2127 -1.3652
 1313TIP3    H225355   4.092   2.355   5.995 -0.7809 -0.0559 -0.2127
 1314TIP3   OH225356   1.119   0.247  16.322  0.1393  0.2755  0.2163
 1314TIP3    H125357   1.123   0.320  16.385 -0.2710  2.5503 -2.1892
 1314TIP3    H225358   1.201   0.253  16.274 -0.0001 -0.7334 -0.1614
 1315TIP3   OH225359   4.394   4.088  13.618 -0.1164 -0.3738 -0.2582
 1315TIP3    H125360   4.438   4.149  13.558  0.1208  0.5494  0.8183
 1315TIP3    H225361   4.433   4.003  13.598  0.6844  0.0843 -0.7368
 1316TIP3   OH225362   3.022   3.824   4.203 -0.5908 -0.2757  0.2842
 1316TIP3    H125363   2.994   3.842   4.113 -1.1876 -1.8458  0.1414
 1316TIP3    H225364   3.117   3.837   4.201 -0.8153  1.6854 -0.0491
 1317TIP3   OH225365   0.561   1.958  10.380 -0.0377 -0.3544 -0.0150
 1317TIP3    H125366   0.650   1.950  10.346 -0.0791 -1.1283  0.0378
 1317TIP3    H225367   0.565   2.031  10.442 -0.1989  1.8367 -2.4038
 1318TIP3   OH225368   2.161   3.408   4.100 -0.5249  0.0871  0.5405
 1318TIP3    H125369   2.178   3.345   4.170 -1.9344 -1.9798 -0.8343
 1318TIP3    H225370   2.103   3.361   4.039  0.4748  1.8232 -1.9236
 1319TIP3   OH225371   3.112   4.660   5.514 -0.3433 -0.0689 -0.5151
 1319TIP3    H125372   3.085   4.751   5.527  1.1194  0.4572 -1.0100
 1319TIP3    H225373   3.155   4.636   5.597  0.0708 -0.0123 -0.7130
 1320TIP3   OH225374   1.537   1.060  11.329  0.5834  0.0794  0.4358
 1320TIP3    H125375   1.517   0.996  11.398 -0.5413  0.7071  0.7221
 1320TIP3    H225376   1.576   1.134  11.375  0.2705  0.3039  0.3458
 1321TIP3   OH225377   6.574   1.644  12.439 -0.1012  0.1384 -0.3056
 1321TIP3    H125378   6.537   1.564  12.476  0.1389 -0.7020 -1.7989
 1321TIP3    H225379   6.649   1.664  12.496 -1.2976  0.4403  1.2326
 1322TIP3   OH225380   4.760   6.458  12.419  0.2220 -0.6200  0.2125
 1322TIP3    H125381   4.813   6.529  12.383 -0.1994 -0.2053  0.3991
 1322TIP3    H225382   4.773   6.385  12.358 -0.8638  0.2188 -1.0812
 1323TIP3   OH225383   5.024   0.876  15.465  0.5642  0.2567  0.0488
 1323TIP3    H125384   5.028   0.804  15.527  1.1738  0.3666  0.1391
 1323TIP3    H225385   4.964   0.939  15.506 -0.3234 -0.3804 -0.2381
 1324TIP3   OH225386   4.732   0.378  11.283  0.3572 -0.2964  0.1244
 1324TIP3    H125387   4.758   0.469  11.267  1.0310 -0.6459 -0.9533
 1324TIP3    H225388   4.783   0.328  11.219  1.1200 -1.5838  1.6778
 1325TIP3   OH225389   2.010   2.663   1.671  0.1244  0.2208 -0.2050
 1325TIP3    H125390   2.011   2.577   1.627  1.6817  0.9098 -1.6585
 1325TIP3    H225391   1.984   2.644   1.761 -0.1349 -1.6953 -0.6365
 1326TIP3   OH225392   1.695   2.725  13.190 -0.0226 -0.1427  0.0184
 1326TIP3    H125393   1.719   2.815  13.214  0.5388 -0.1567 -0.4642
 1326TIP3    H225394   1.618   2.735  13.135  1.4854  0.2705 -2.1494
 1327TIP3   OH225395   2.950   4.568  13.283  0.0958  0.4569 -0.0656
 1327TIP3    H125396   2.990   4.640  13.331 -1.3743  0.8821  0.5894
 1327TIP3    H225397   3.005   4.492  13.302  0.5252  0.9910  0.8897
 1328TIP3   OH225398   0.618   2.650  11.129 -0.1947 -0.0138 -0.7160
 1328TIP3    H125399   0.637   2.626  11.039  1.2642 -1.4827 -0.0650
 1328TIP3    H225400   0.622   2.567  11.177 -0.8352  0.7550  0.7123
 1329TIP3   OH225401   2.601   5.211  11.017 -0.2208  0.2543 -0.2924
 1329TIP3    H125402   2.580   5.298  11.051  1.5508  0.0732  1.4469
 1329TIP3    H225403   2.526   5.187  10.962 -0.8779  2.7275 -0.5607
 1330TIP3   OH225404   5.101   2.764  16.981  0.4627  0.3921  0.0217
 1330TIP3    H125405   5.134   2.680  16.949  0.6833  0.2931  0.4931
 1330TIP3    H225406   5.036   2.791  16.917  2.4384  1.2810 -1.7591
 1331TIP3   OH225407   2.011   4.430   6.311  0.6594 -0.0974  0.5557
 1331TIP3    H125408   1.941   4.434   6.377  1.5438 -0.9081  1.5819
 1331TIP3    H225409   2.069   4.503   6.333 -0.1951  0.9958 -0.7155
 1332TIP3   OH225410   5.914   4.512   2.585 -0.1516 -0.1498 -0.2379
 1332TIP3    H125411   5.998   4.467   2.594  0.7661  1.5808  0.4157
 1332TIP3    H225412   5.938   4.602   2.561 -1.7818  0.5507  0.6212
 1333TIP3   OH225413   1.313   6.227   2.920  0.3507 -0.3457  0.2732
 1333TIP3    H125414   1.238   6.241   2.863  2.4172 -0.0670 -2.5891
 1333TIP3    H225415   1.286   6.157   2.979 -2.6073  0.7346  0.3585
 1334TIP3   OH225416   0.798   4.436  13.372  0.3919 -0.3279 -0.3801
 1334TIP3    H125417   0.882   4.407  13.334 -1.2843 -2.1478 -3.0300
 1334TIP3    H225418   0.815   4.525  13.402  3.9734 -1.4670  1.7428
 1335TIP3   OH225419   4.089   6.442  12.348  0.5342 -0.1948  0.8594
 1335TIP3    H125420   4.036   6.520  12.330 -0.7697 -0.3448  3.4570
 1335TIP3    H225421   4.026   6.370  12.348  0.9656 -0.6153  2.4900
 1336TIP3   OH225422   2.841   6.766  11.020  0.9557 -0.2600  0.2484
 1336TIP3    H125423   2.834   6.672  11.003  1.2981 -0.4437  1.1006
 1336TIP3    H225424   2.770   6.786  11.080 -0.4024  0.4401 -1.5078
 1337TIP3   OH225425   4.349   1.549  13.330 -0.3460  0.2638 -0.0537
 1337TIP3    H125426   4.276   1.527  13.387  0.3480  1.8372  1.5410
 1337TIP3    H225427   4.418   1.488  13.355 -0.0058  1.0239  0.9204
 1338TIP3   OH225428   4.536   2.330   2.623 -0.2667  0.1070 -0.6317
 1338TIP3    H125429   4.589   2.264   2.667  0.4216  0.7343 -0.5081
 1338TIP3    H225430   4.455   2.334   2.675  0.4533  0.7013  0.4858
 1339TIP3   OH225431   2.123   6.193  16.223  0.1416 -0.1932 -0.0867
 1339TIP3    H125432   2.119   6.126  16.291  0.2118 -1.2909 -1.1424
 1339TIP3    H225433   2.032   6.216  16.206  0.1015 -0.2439  0.0626
 1340TIP3   OH225434   5.757   4.358  16.394  0.1750 -0.6599 -0.4777
 1340TIP3    H125435   5.690   4.322  16.452 -0.1999 -1.5584 -1.4299
 1340TIP3    H225436   5.834   4.303  16.409  0.8794  0.6613  0.9549
 1341TIP3   OH225437   4.987   3.806  15.627 -0.1321  0.3154  0.3994
 1341TIP3    H125438   4.940   3.735  15.672 -2.3364  0.8989 -0.8086
 1341TIP3    H225439   5.063   3.823  15.683 -0.8940 -1.2625  2.0627
 1342TIP3   OH225440   2.915   2.641   0.986 -0.3470  0.3892 -0.3913
 1342TIP3    H125441   2.834   2.602   1.019 -0.2171  0.6388  0.2319
 1342TIP3    H225442   2.970   2.653   1.063  0.7912 -0.9188 -0.9456
 1343TIP3   OH225443   6.425   6.641  16.060  0.8704  0.0719 -0.3664
 1343TIP3    H125444   6.475   6.679  15.988  0.5270 -0.5371 -0.9340
 1343TIP3    H225445   6.354   6.593  16.018  0.2468  0.2920  0.4043
 1344TIP3   OH225446   5.005   6.220   2.825 -0.4062  0.0515  0.8478
 1344TIP3    H125447   5.030   6.154   2.760 -0.1267 -0.3425  1.3551
 1344TIP3    H225448   5.059   6.297   2.804 -0.6994  0.1149  0.2869
 1345TIP3   OH225449   0.945   3.178   2.872  0.1646 -0.0501 -0.1956
 1345TIP3    H125450   0.882   3.106   2.877 -0.7446  0.5364 -2.0258
 1345TIP3    H225451   0.896   3.248   2.828  1.8432  0.7131 -0.9064
 1346TIP3   OH225452   1.658   3.102  12.863  0.2321  0.0473 -0.1660
 1346TIP3    H125453   1.662   3.017  12.820  0.7129  0.1983 -0.4193
 1346TIP3    H225454   1.599   3.088  12.938 -0.0852 -0.3806 -0.4882
 1347TIP3   OH225455   1.414   4.269   4.223 -0.1417  0.1868  0.0560
 1347TIP3    H125456   1.353   4.223   4.282  0.0448  0.2423  0.2952
 1347TIP3    H225457   1.467   4.200   4.184  0.6273  0.2433  0.9673
 1348TIP3   OH225458   4.828   6.377  12.674 -0.9831  0.3130  0.6567
 1348TIP3    H125459   4.852   6.462  12.711  2.1634  0.0486 -0.4260
 1348TIP3    H225460   4.783   6.398  12.592 -0.3519  0.9609  0.4599
 1349TIP3   OH225461   5.415   4.737   5.389  0.1286 -0.6555 -0.0460
 1349TIP3    H125462   5.502   4.700   5.397  0.7154  0.7698  0.4921
 1349TIP3    H225463   5.395   4.734   5.296 -0.2360 -3.0968  0.0654
 1350TIP3   OH225464   3.759   5.956   6.701 -0.4191  0.2358 -0.0575
 1350TIP3    H125465   3.697   5.957   6.628 -2.6403 -1.6022  1.6864
 1350TIP3    H225466   3.715   6.003   6.771  1.0702  0.7091  0.5947
 1351TIP3   OH225467   5.354   0.993   3.177 -0.0193 -0.3474  0.1607
 1351TIP3    H125468   5.443   1.003   3.213 -0.0629  0.1208  0.1478
 1351TIP3    H225469   5.352   1.052   3.101 -0.6044  0.2725  0.6490
 1352TIP3   OH225470   3.824   4.464   0.802 -0.2159 -0.5891  0.5971
 1352TIP3    H125471   3.812   4.450   0.896  1.2719  0.2695  0.9458
 1352TIP3    H225472   3.918   4.456   0.788 -0.2716  0.4514 -0.6096
 1353TIP3   OH225473   6.675   0.583   2.423  0.6108  0.5791  0.0716
 1353TIP3    H125474   6.676   0.580   2.327 -0.0123  1.6395  0.0115
 1353TIP3    H225475   6.696   0.494   2.451 -0.4794 -0.0596 -1.0522
 1354TIP3   OH225476   5.595   2.888   6.310 -0.1403 -0.7218  0.8109
 1354TIP3    H125477   5.599   2.976   6.273  0.3096 -0.5329  1.2928
 1354TIP3    H225478   5.537   2.897   6.386 -2.0173 -1.3526 -0.4761
 1355TIP3   OH225479   4.700   2.217   1.569  0.2195 -1.0545 -0.3913
 1355TIP3    H125480   4.751   2.243   1.492 -1.4052 -0.0441 -1.1646
 1355TIP3    H225481   4.746   2.139   1.602  2.2439 -0.2101 -1.0306
 1356TIP3   OH225482   0.121   4.832  12.271 -0.3544  0.1234 -0.1933
 1356TIP3    H125483   0.118   4.911  12.217  1.0083  0.7889  0.6533
 1356TIP3    H225484   0.212   4.803  12.266 -1.2966 -2.9655 -2.6117
 1357TIP3   OH225485   2.214   1.556  13.032  0.0749 -0.0252 -0.1440
 1357TIP3    H125486   2.276   1.545  12.960  0.2979 -0.4260  0.1043
 1357TIP3    H225487   2.134   1.512  13.002  0.8969 -2.3191  0.7612
 1358TIP3   OH225488   3.596   5.566   6.816  0.1840 -0.0586 -0.0076
 1358TIP3    H125489   3.663   5.633   6.834 -0.2950 -0.0756  2.1581
 1358TIP3    H225490   3.541   5.605   6.748 -0.1767  1.8809  1.3086
 1359TIP3   OH225491   5.130   5.575  14.623 -0.0001 -0.2077 -0.0404
 1359TIP3    H125492   5.078   5.555  14.546 -1.8454  0.9137  0.8561
 1359TIP3    H225493   5.142   5.670  14.621  2.4083 -0.4513 -0.4114
 1360TIP3   OH225494   4.139   2.868  13.873 -0.0884  0.3312  0.6126
 1360TIP3    H125495   4.084   2.889  13.948 -0.2475 -0.4104  0.7032
 1360TIP3    H225496   4.174   2.781  13.891 -0.3076  0.0435 -0.2759
 1361TIP3   OH225497   2.907   4.487   5.122 -0.7703 -0.6165  0.1218
 1361TIP3    H125498   2.851   4.431   5.176 -0.8395 -0.7480 -0.0858
 1361TIP3    H225499   2.985   4.502   5.176 -0.0995 -2.1213 -0.3778
 1362TIP3   OH225500   4.211   2.957  14.399 -0.1257 -0.5421 -0.2689
 1362TIP3    H125501   4.276   2.938  14.331 -0.2543  1.0783 -0.8873
 1362TIP3    H225502   4.175   2.871  14.422 -0.1645 -1.1441 -2.3246
 1363TIP3   OH225503   1.136   1.641  16.690  0.8176 -0.4160 -0.1508
 1363TIP3    H125504   1.124   1.572  16.756  1.3332 -1.0769 -0.7323
 1363TIP3    H225505   1.136   1.594  16.607  1.0670  0.3088 -0.5617
 1364TIP3   OH225506   4.685   6.476   0.702 -0.1441 -0.0437 -0.4506
 1364TIP3    H125507   4.595   6.507   0.692  0.1376  1.0787  0.2401
 1364TIP3    H225508   4.677   6.381   0.706 -1.2730  0.0224 -0.5999
 1365TIP3   OH225509   5.071   2.094   0.412  0.2299 -0.2056  0.2466
 1365TIP3    H125510   5.164   2.085   0.390  0.8794 -1.8176  3.1359
 1365TIP3    H225511   5.027   2.036   0.350  1.4301 -1.1708  0.2440
 1366TIP3   OH225512   5.723   0.366  15.063 -0.4810  0.1366 -0.2308
 1366TIP3    H125513   5.632   0.382  15.087 -0.5958  0.8595 -1.0900
 1366TIP3    H225514   5.725   0.276  15.032 -0.7336 -0.1447  0.5631
 1367TIP3   OH225515   6.332   1.973  16.190 -0.1420 -0.3335 -0.0989
 1367TIP3    H125516   6.325   1.990  16.096 -1.9721 -1.2066 -0.1682
 1367TIP3    H225517   6.391   2.041  16.222 -0.4606  0.7610 -1.6920
 1368TIP3   OH225518   4.866   3.259  16.725  0.5155 -0.1378  0.3901
 1368TIP3    H125519   4.816   3.183  16.757 -1.3486  0.6570 -0.4622
 1368TIP3    H225520   4.895   3.232  16.638 -1.7570  0.7032 -0.7144
 1369TIP3   OH225521   6.390   2.585  12.502  0.6267 -0.6293 -0.2179
 1369TIP3    H125522   6.298   2.610  12.491  0.5532 -1.8255 -3.4997
 1369TIP3    H225523   6.439   2.664  12.479  0.3862 -0.6276 -0.7540
 1370TIP3   OH225524   1.299   5.418   5.097  0.2249 -0.6305  0.2296
 1370TIP3    H125525   1.272   5.501   5.137  0.8008 -0.5693  0.4939
 1370TIP3    H225526   1.273   5.352   5.161  0.9393 -0.5504  0.6086
 1371TIP3   OH225527   3.943   1.161   1.938 -0.0458  0.5678 -0.7514
 1371TIP3    H125528   4.014   1.195   1.993  1.2186 -1.3065 -1.1113
 1371TIP3    H225529   3.878   1.231   1.937  2.0985  2.6933 -1.0264
 1372TIP3   OH225530   1.406   3.149  14.530  0.0392 -0.1656  0.4027
 1372TIP3    H125531   1.391   3.059  14.558  0.3656 -0.0560  0.9336
 1372TIP3    H225532   1.327   3.172  14.481 -0.2500 -0.5803  0.6720
 1373TIP3   OH225533   4.223   0.059  16.280 -0.1655 -0.3096  0.0294
 1373TIP3    H125534   4.278   0.009  16.342 -0.5881  0.1091  0.7537
 1373TIP3    H225535   4.260   0.038  16.194  0.0261 -1.4169  0.3640
 1374TIP3   OH225536   3.580   6.479   4.098  0.3348  0.0759  0.3007
 1374TIP3    H125537   3.650   6.519   4.047  1.6960 -0.2826  1.8081
 1374TIP3    H225538   3.506   6.539   4.088  2.0064  2.5299  1.7035
 1375TIP3   OH225539   1.390   1.996  16.994 -0.0495  0.0101 -0.2083
 1375TIP3    H125540   1.338   1.984  16.915  0.2271 -1.1171 -0.2328
 1375TIP3    H225541   1.481   2.002  16.963 -0.1097  1.5641 -0.1339
 1376TIP3   OH225542   0.841   1.717  13.548 -0.5470  0.0730 -0.0036
 1376TIP3    H125543   0.749   1.707  13.574 -1.0265 -0.7172 -1.8496
 1376TIP3    H225544   0.857   1.811  13.553 -1.3914  0.2022  0.5454
 1377TIP3   OH225545   5.375   3.600   4.251  0.2827 -0.0289 -0.4305
 1377TIP3    H125546   5.343   3.661   4.318 -0.8930 -0.6815 -0.3574
 1377TIP3    H225547   5.391   3.655   4.174  1.0614  0.6382  0.1908
 1378TIP3   OH225548   0.136   1.527   2.658  0.9137 -0.2220 -0.8465
 1378TIP3    H125549   0.064   1.466   2.644  0.5200 -0.1786  0.7823
 1378TIP3    H225550   0.094   1.610   2.679  1.4224 -0.1215 -0.1867
 1379TIP3   OH225551   5.205   6.669   3.015 -0.1417 -0.2704  0.6249
 1379TIP3    H125552   5.133   6.668   3.078 -1.2537 -1.4655 -0.6065
 1379TIP3    H225553   5.192   6.590   2.963  1.1124  0.3624 -0.7006
 1380TIP3   OH225554   3.784   1.260   6.007  0.3036  0.6264  0.0495
 1380TIP3    H125555   3.835   1.192   6.052 -0.5453  0.8516  1.3916
 1380TIP3    H225556   3.709   1.275   6.063 -0.6730  1.1221 -1.3424
 1381TIP3   OH225557   1.645   4.213  11.541  0.4402 -0.0006  0.1758
 1381TIP3    H125558   1.721   4.167  11.577 -0.4550 -1.0518  0.7627
 1381TIP3    H225559   1.601   4.249  11.618 -0.8016 -1.2001  0.0608
 1382TIP3   OH225560   0.981   5.637   4.521  0.3985  0.1581  0.0971
 1382TIP3    H125561   0.944   5.573   4.582  0.0565  0.6810  0.4457
 1382TIP3    H225562   0.941   5.720   4.546  0.0734  0.3437 -0.9881
 1383TIP3   OH225563   3.422   4.781   2.542 -0.0391 -0.3506 -0.1004
 1383TIP3    H125564   3.342   4.819   2.576 -1.0414 -2.1734 -0.2744
 1383TIP3    H225565   3.410   4.780   2.447  0.3639 -0.2504 -0.1531
 1384TIP3   OH225566   0.156   4.034   5.173  0.1947 -0.0487 -0.0549
 1384TIP3    H125567   0.102   3.980   5.231  0.3531 -0.9946 -0.7630
 1384TIP3    H225568   0.243   4.031   5.213  0.0764  0.1798  0.2280
 1385TIP3   OH225569   6.006   3.352   1.584  0.2269  0.0892  0.0229
 1385TIP3    H125570   6.034   3.443   1.584  2.3484 -0.5098  1.3618
 1385TIP3    H225571   5.924   3.352   1.634 -0.0638  1.2871 -0.4185
 1386TIP3   OH225572   5.621   6.513   2.756  0.3817  0.2028  0.6824
 1386TIP3    H125573   5.616   6.427   2.797  0.2463 -0.4717 -0.6695
 1386TIP3    H225574   5.669   6.567   2.818  0.0861 -0.7281  1.7515
 1387TIP3   OH225575   3.263   1.428  14.429 -0.1358  0.3239 -0.0749
 1387TIP3    H125576   3.176   1.390  14.432 -0.5694  1.2466 -0.6347
 1387TIP3    H225577   3.298   1.413  14.517 -0.1476 -1.6190 -0.3604
 1388TIP3   OH225578   4.932   5.883   1.959 -0.6009 -0.3643  0.2715
 1388TIP3    H125579   4.871   5.886   2.032 -0.0240  0.7471  0.7370
 1388TIP3    H225580   4.878   5.866   1.882 -1.3160 -0.6946  0.8415
 1389TIP3   OH225581   5.693   1.605   5.464 -0.1023 -0.3250 -0.3590
 1389TIP3    H125582   5.662   1.529   5.514 -1.5108  0.2441 -0.3054
 1389TIP3    H225583   5.711   1.571   5.377  0.7732 -1.0101  0.0768
 1390TIP3   OH225584   4.714   1.668   4.324 -0.4146 -0.1586 -0.5567
 1390TIP3    H125585   4.671   1.741   4.279 -1.8206  1.1547  2.6312
 1390TIP3    H225586   4.644   1.624   4.371  1.2394  0.5035  2.8029
 1391TIP3   OH225587   3.709   2.889   1.082  0.0018 -0.0693  0.0656
 1391TIP3    H125588   3.777   2.871   1.017  0.0377  0.3067 -0.0012
 1391TIP3    H225589   3.720   2.820   1.147  0.2430 -0.1950 -0.1058
 1392TIP3   OH225590   2.372   3.259  15.365 -0.1474  0.4163  0.3207
 1392TIP3    H125591   2.287   3.218  15.351 -0.8466  2.3593 -1.7358
 1392TIP3    H225592   2.420   3.241  15.284  2.3295 -2.4371  2.2080
 1393TIP3   OH225593   3.626   3.966  16.051  0.2546 -0.1912 -0.1279
 1393TIP3    H125594   3.562   3.917  16.000  0.6728 -0.6669 -0.2029
 1393TIP3    H225595   3.631   3.920  16.135  3.8284 -3.0549 -1.6423
 1394TIP3   OH225596   1.184   5.927  14.074  1.0734 -0.5436  0.2411
 1394TIP3    H125597   1.111   5.866  14.076  1.4179 -0.9434  1.6463
 1394TIP3    H225598   1.256   5.881  14.118  1.4389  0.7379  1.0540
 1395TIP3   OH225599   2.982   5.459   0.939 -0.6149 -0.1400 -0.4723
 1395TIP3    H125600   2.936   5.379   0.964 -0.7157  0.1267  0.2262
 1395TIP3    H225601   3.003   5.501   1.023 -0.5145  0.5323 -0.8322
 1396TIP3   OH225602   6.396   6.090  17.148  0.0543 -0.6465  0.2065
 1396TIP3    H125603   6.416   6.099  17.241 -2.8555 -2.4860  1.1526
 1396TIP3    H225604   6.311   6.131  17.137  0.1567 -0.8223 -1.5676
 1397TIP3   OH225605   6.040   0.576   0.515  0.9598  0.7954 -0.5131
 1397TIP3    H125606   6.107   0.582   0.446  1.0494  1.4140 -0.3808
 1397TIP3    H225607   5.963   0.540   0.472  1.9695 -1.9478 -0.2386
 1398TIP3   OH225608   3.369   0.664   1.456  0.2435 -0.1259  0.3006
 1398TIP3    H125609   3.425   0.718   1.512 -0.7793  1.1874  0.1040
 1398TIP3    H225610   3.297   0.722   1.431  0.5911 -0.7062 -2.2917
 1399TIP3   OH225611   5.837   0.997   1.781 -0.2103 -0.0050  0.2337
 1399TIP3    H125612   5.783   1.033   1.711  1.4255 -0.5716 -1.4103
 1399TIP3    H225613   5.849   1.070   1.842 -1.9084  0.4202  0.1164
 1400TIP3   OH225614   1.923   3.458  12.810  0.1165 -0.1437 -0.2003
 1400TIP3    H125615   1.992   3.392  12.815  1.8893  1.7172  1.7659
 1400TIP3    H225616   1.964   3.533  12.767 -1.4606  0.2065 -1.1938
 1401TIP3   OH225617   5.934   1.761   2.492 -0.0776 -0.6867  0.5009
 1401TIP3    H125618   5.883   1.839   2.470  0.5666 -0.4581 -0.2190
 1401TIP3    H225619   5.872   1.705   2.538 -0.6995  0.0180  0.5428
 1402TIP3   OH225620   1.849   0.190  14.115 -0.1877 -0.0133 -0.4652
 1402TIP3    H125621   1.896   0.195  14.032 -0.7274  0.0632 -0.7764
 1402TIP3    H225622   1.837   0.282  14.141 -0.0667 -0.0355 -0.3326
 1403TIP3   OH225623   3.565   3.537  14.638 -0.4977 -0.2303 -0.0032
 1403TIP3    H125624   3.656   3.564  14.627 -0.7448  1.5741  1.7637
 1403TIP3    H225625   3.514   3.607  14.597 -1.1322 -1.3333 -1.1748
 1404TIP3   OH225626   0.799   4.744  13.184 -0.8277 -0.0887  0.0472
 1404TIP3    H125627   0.826   4.652  13.193 -0.3537  0.0391 -0.0500
 1404TIP3    H225628   0.878   4.794  13.203 -1.1909  0.3154  0.5292
 1405TIP3   OH225629   1.133   0.552   5.426  0.0095  0.4761 -0.1729
 1405TIP3    H125630   1.087   0.588   5.350  2.2226 -0.1100 -1.8992
 1405TIP3    H225631   1.082   0.475   5.450 -1.5443  1.4896 -0.0780
 1406TIP3   OH225632   4.024   5.952   0.300 -0.4548  0.2696  0.3815
 1406TIP3    H125633   3.972   5.873   0.316  0.6772 -0.2129  1.8690
 1406TIP3    H225634   3.988   6.017   0.361 -1.1574  0.8374 -0.5989
 1407TIP3   OH225635   4.704   5.490  16.037 -0.1493  0.7277 -0.1678
 1407TIP3    H125636   4.784   5.491  15.983 -0.0274  1.3648  0.0183
 1407TIP3    H225637   4.735   5.466  16.125 -0.2423  0.4408 -0.2134
 1408TIP3   OH225638   6.264   2.691   3.641  0.0396 -0.3081 -0.1997
 1408TIP3    H125639   6.325   2.706   3.569  1.0621  0.4761  0.7838
 1408TIP3    H225640   6.241   2.778   3.672  0.8881 -0.6068  1.4214
 1409TIP3   OH225641   2.307   5.150  13.488 -1.0226  0.1889  0.1357
 1409TIP3    H125642   2.385   5.101  13.460 -1.1503 -0.9578  1.6822
 1409TIP3    H225643   2.281   5.199  13.410  0.3701 -0.5573 -0.8506
 1410TIP3   OH225644   5.242   2.033  10.412 -0.2586 -0.1582 -0.2296
 1410TIP3    H125645   5.221   2.085  10.489  2.8824 -0.2193  0.8207
 1410TIP3    H225646   5.301   2.089  10.361  0.6635 -1.4772 -0.6655
 1411TIP3   OH225647   2.568   0.972  14.222  0.0377 -0.2424 -0.7613
 1411TIP3    H125648   2.499   0.941  14.281 -0.5973 -0.8700 -1.8053
 1411TIP3    H225649   2.599   1.053  14.263 -0.7968 -0.3471  0.1247
 1412TIP3   OH225650   6.706   6.332   1.385  0.1101  0.1164 -0.0450
 1412TIP3    H125651   6.634   6.269   1.394 -0.8879  1.4343  1.8382
 1412TIP3    H225652   6.726   6.332   1.292 -0.5313 -2.2293 -0.2481
 1413TIP3   OH225653   5.509   3.995  15.497  0.2626 -0.1014  0.3126
 1413TIP3    H125654   5.428   4.030  15.533  0.8506 -0.3070  1.8815
 1413TIP3    H225655   5.481   3.946  15.419 -1.1038 -0.0843  0.7701
 1414TIP3   OH225656   1.933   1.161  11.208 -0.5231 -0.1793 -0.2140
 1414TIP3    H125657   1.937   1.257  11.205  0.7372 -0.2376 -2.7183
 1414TIP3    H225658   2.004   1.132  11.152 -1.0141 -2.6189  0.3039
 1415TIP3   OH225659   0.379   1.912   2.271  0.2566 -0.2540 -0.1474
 1415TIP3    H125660   0.414   1.839   2.220 -1.4837 -1.4546  0.2706
 1415TIP3    H225661   0.319   1.957   2.211 -1.0654 -1.0992  0.4876
 1416TIP3   OH225662   0.344   4.813   6.705  0.4962 -0.3530 -0.3471
 1416TIP3    H125663   0.435   4.816   6.676  0.5732  0.2176 -0.0460
 1416TIP3    H225664   0.292   4.824   6.625  0.7079  1.4034 -0.2737
 1417TIP3   OH225665   4.780   0.101  16.672  0.6310  0.2549  0.1460
 1417TIP3    H125666   4.770   0.193  16.698  0.5202  0.1447  0.4861
 1417TIP3    H225667   4.859   0.100  16.617 -0.9826  1.1126 -2.3966
 1418TIP3   OH225668   2.043   5.689   5.172  0.0752  0.4604  0.1917
 1418TIP3    H125669   2.100   5.675   5.096  0.4654  0.7744  0.4226
 1418TIP3    H225670   1.966   5.636   5.154 -0.0826  0.9661 -0.6965
 1419TIP3   OH225671   1.311   0.374  11.533 -0.0282  0.2407  0.3678
 1419TIP3    H125672   1.219   0.385  11.509 -0.4736  0.5621  2.0937
 1419TIP3    H225673   1.316   0.285  11.567 -0.0444  0.7154  1.6472
 1420TIP3   OH225674   2.786   3.093  17.049  0.2417  0.7966  0.7385
 1420TIP3    H125675   2.700   3.060  17.022  0.1878  1.7179 -0.3102
 1420TIP3    H225676   2.841   3.015  17.056 -0.5966  0.2255  1.1355
 1421TIP3   OH225677   4.574   6.031  11.821 -0.2344  0.6533 -0.0789
 1421TIP3    H125678   4.495   6.011  11.771 -0.9902 -1.2805  1.7043
 1421TIP3    H225679   4.541   6.068  11.903  0.7723  0.9040  0.2236
 1422TIP3   OH225680   2.114   2.344  14.971  0.3198  0.2401 -0.5779
 1422TIP3    H125681   2.199   2.369  14.937  0.1811  1.0071 -0.3694
 1422TIP3    H225682   2.054   2.353  14.896  0.1690  1.0920 -0.3606
 1423TIP3   OH225683   0.030   4.319  12.468  0.3364  0.3641  0.1415
 1423TIP3    H125684  -0.025   4.392  12.499  0.0709  0.6674 -1.0002
 1423TIP3    H225685  -0.015   4.286  12.391  1.3673  0.1204 -0.3715
 1424TIP3   OH225686   4.778   0.360   5.499  0.3131 -0.1119  0.3084
 1424TIP3    H125687   4.757   0.390   5.588  2.0547 -1.1473  1.1318
 1424TIP3    H225688   4.754   0.433   5.442  0.6932  1.2413  1.8132
 1425TIP3   OH225689   5.298   1.057   1.114 -0.3652 -0.3694 -0.3369
 1425TIP3    H125690   5.302   0.963   1.095 -2.2968 -0.9024  1.5156
 1425TIP3    H225691   5.206   1.079   1.107 -0.3635  0.7178  2.0210
 1426TIP3   OH225692   5.282   1.548  15.007 -0.0711 -0.4209 -0.1258
 1426TIP3    H125693   5.237   1.464  15.016 -0.6813 -0.0307  0.5452
 1426TIP3    H225694   5.211   1.611  14.992  0.2912  0.1267  0.4218
 1427TIP3   OH225695   5.697   6.560  14.604 -0.5551  0.2236  0.2461
 1427TIP3    H125696   5.711   6.522  14.690 -1.9414 -0.7781  0.0535
 1427TIP3    H225697   5.715   6.654  14.616  1.9281 -0.2789  0.9566
 1428TIP3   OH225698   5.028   1.003  14.801 -0.2583  0.1096 -0.2381
 1428TIP3    H125699   5.099   0.940  14.794  0.3783  0.7696  0.0911
 1428TIP3    H225700   5.016   1.037  14.712 -0.8584 -0.7291 -0.4890
 1429TIP3   OH225701   0.875   5.259  16.551  0.6608 -0.1095 -0.2418
 1429TIP3    H125702   0.798   5.316  16.552 -0.1947 -1.2065 -1.2339
 1429TIP3    H225703   0.865   5.205  16.629  0.2996 -0.4012 -0.4865
 1430TIP3   OH225704   0.058   1.902   0.021  0.2440  0.8104  0.6285
 1430TIP3    H125705   0.068   1.807   0.025  0.4823  0.8631  1.4502
 1430TIP3    H225706  -0.037   1.916   0.027  0.2906  0.6731  1.8234
 1431TIP3   OH225707   1.550   0.321  14.579 -0.0768 -0.0445 -0.1286
 1431TIP3    H125708   1.644   0.307  14.591  0.1819  0.7577 -1.0604
 1431TIP3    H225709   1.511   0.236  14.596  0.5933  0.0508  2.2580
 1432TIP3   OH225710   4.333   4.890   5.566  0.2207 -0.2157  0.2103
 1432TIP3    H125711   4.348   4.983   5.548 -0.3480 -0.0636  0.5008
 1432TIP3    H225712   4.417   4.859   5.599  0.7187 -0.0553 -0.8587
 1433TIP3   OH225713   3.195   5.878  17.227  0.3964  0.3970 -0.1112
 1433TIP3    H125714   3.271   5.862  17.170  0.4022  2.6638 -0.8697
 1433TIP3    H225715   3.218   5.959  17.274 -0.1757 -0.6927  2.1791
 1434TIP3   OH225716   6.143   2.428  11.508  0.5388 -0.1181  1.1179
 1434TIP3    H125717   6.126   2.513  11.468 -1.3501 -0.0793  1.9241
 1434TIP3    H225718   6.104   2.434  11.595 -1.7307 -2.5637  0.3826
 1435TIP3   OH225719   1.040   4.864  15.872 -0.3611  0.5713 -0.1669
 1435TIP3    H125720   1.076   4.784  15.910 -0.4695  1.7245  2.6785
 1435TIP3    H225721   0.957   4.838  15.834  0.9913 -1.1650 -2.1374
 1436TIP3   OH225722   1.516   4.997   4.201  0.2361 -0.3964 -0.3847
 1436TIP3    H125723   1.550   5.013   4.113  2.6374 -1.9915  0.1468
 1436TIP3    H225724   1.451   4.927   4.189 -1.9429  1.6165 -1.2101
 1437TIP3   OH225725   4.493   6.349   5.075 -0.5703  0.1202  0.4926
 1437TIP3    H125726   4.518   6.425   5.022  0.2902 -1.4535 -1.5058
 1437TIP3    H225727   4.575   6.301   5.088 -1.0466 -0.3390  1.9700
 1438TIP3   OH225728   4.213   1.463  14.046  0.2177  0.4447  0.3176
 1438TIP3    H125729   4.205   1.413  13.965 -0.6165  0.1373  0.5786
 1438TIP3    H225730   4.300   1.502  14.042  0.6967 -0.6296 -0.1236
 1439TIP3   OH225731   3.579   5.124  11.749  0.0321  0.1208  1.3113
 1439TIP3    H125732   3.504   5.125  11.689  1.2612  2.3788 -0.3656
 1439TIP3    H225733   3.582   5.034  11.781 -2.1369 -0.5863 -0.1707
 1440TIP3   OH225734   1.610   3.061   2.518  0.2559 -0.4535  0.5552
 1440TIP3    H125735   1.604   2.968   2.541  0.8825 -0.4013  0.9532
 1440TIP3    H225736   1.663   3.099   2.589  1.6113 -0.1502 -0.5824
 1441TIP3   OH225737   2.010   5.532   0.065 -0.2287 -0.0214  0.1282
 1441TIP3    H125738   1.946   5.500   0.129 -0.7726 -0.7940 -0.7539
 1441TIP3    H225739   2.065   5.593   0.113  0.2094 -1.5451  1.6688
 1442TIP3   OH225740   1.696   1.915   6.192 -0.0587  0.0572  0.2517
 1442TIP3    H125741   1.626   1.868   6.238  0.7826 -0.9665  0.5373
 1442TIP3    H225742   1.706   1.996   6.242  0.3749 -0.7362  1.5056
 1443TIP3   OH225743   1.321   3.961   2.850  0.0470  0.5027 -0.8083
 1443TIP3    H125744   1.325   3.898   2.922 -1.8313  0.0133 -1.0776
 1443TIP3    H225745   1.309   4.046   2.894  0.1296  0.3649 -0.5187
 1444TIP3   OH225746   2.631   3.978  12.238  1.3775 -0.7102 -0.3706
 1444TIP3    H125747   2.626   3.883  12.225 -1.2169 -0.5862 -0.8019
 1444TIP3    H225748   2.614   3.989  12.332 -1.0548 -0.6068 -0.7633
 1445TIP3   OH225749   1.084   0.095  17.206 -0.1680  0.2621 -0.1897
 1445TIP3    H125750   1.164   0.087  17.154  1.0217  1.4649  1.3391
 1445TIP3    H225751   1.108   0.059  17.292 -0.3914  2.9582  1.1005
 1446TIP3   OH225752   0.346   6.436   5.484  0.6570 -0.0595 -0.7589
 1446TIP3    H125753   0.379   6.525   5.492 -1.9546  0.9169 -0.1184
 1446TIP3    H225754   0.351   6.418   5.390  1.2725  0.7208 -0.8898
 1447TIP3   OH225755   0.603   4.813  13.009  0.4119  0.2092  0.2102
 1447TIP3    H125756   0.684   4.818  13.061  0.5510  2.1859 -0.1212
 1447TIP3    H225757   0.581   4.904  12.990 -0.2927 -0.3917 -2.1879
 1448TIP3   OH225758   0.099   1.033  16.513 -0.2479  0.2075 -0.6049
 1448TIP3    H125759   0.117   0.967  16.447  0.9329 -0.0154 -0.0869
 1448TIP3    H225760   0.012   1.011  16.546  0.3535 -1.4576 -0.0284
 1449TIP3   OH225761   0.357   3.826  16.960 -0.0324  0.5010  0.0784
 1449TIP3    H125762   0.330   3.803  16.871 -1.5673  1.9517  0.1213
 1449TIP3    H225763   0.276   3.849  17.004  0.4093 -2.0226  2.5100
 1450TIP3   OH225764   4.688   2.992  13.818  0.8427 -0.2636  0.6608
 1450TIP3    H125765   4.629   3.036  13.880 -1.7130 -1.0832 -1.0306
 1450TIP3    H225766   4.680   2.899  13.839  0.5444 -0.4820 -0.3973
 1451TIP3   OH225767   2.377   1.377   2.852  0.4403  0.6984  0.1365
 1451TIP3    H125768   2.335   1.400   2.935  0.0510  0.5480 -0.0130
 1451TIP3    H225769   2.402   1.461   2.813 -2.4526  1.0916 -1.1817
 1452TIP3   OH225770   3.616   4.246   2.018 -0.2819 -0.3563 -1.0450
 1452TIP3    H125771   3.565   4.204   1.949  1.6922 -0.9130 -2.2496
 1452TIP3    H225772   3.595   4.196   2.097  0.6082 -2.4913 -2.0918
 1453TIP3   OH225773   4.314   3.634  13.665  0.3248 -0.0409  0.3177
 1453TIP3    H125774   4.292   3.590  13.747 -1.3208 -0.2278 -0.2022
 1453TIP3    H225775   4.257   3.594  13.600 -0.7699  2.3513 -0.3135
 1454TIP3   OH225776   5.148   1.934  13.653 -0.5378  0.1073 -0.1688
 1454TIP3    H125777   5.229   1.889  13.629 -0.7313 -1.5023  1.8761
 1454TIP3    H225778   5.176   2.019  13.686  0.4240 -0.6428  1.0414
 1455TIP3   OH225779   0.221   2.932  11.475 -0.0620 -0.6485 -0.4474
 1455TIP3    H125780   0.160   2.890  11.414 -0.0080  0.4783 -1.3158
 1455TIP3    H225781   0.241   2.864  11.540 -1.5513 -1.3064 -0.6379
 1456TIP3   OH225782   2.987   3.216  12.992  0.8717 -0.1155 -0.0083
 1456TIP3    H125783   2.966   3.124  12.972  1.2957 -0.6421  1.8188
 1456TIP3    H225784   3.073   3.230  12.951  1.7532 -1.1831  1.3988
 1457TIP3   OH225785   6.523   3.414   5.653  0.1532 -0.1244  0.1008
 1457TIP3    H125786   6.537   3.508   5.637 -0.4796 -0.4006 -2.3806
 1457TIP3    H225787   6.609   3.374   5.638  0.3993  0.0146  1.0610
 1458TIP3   OH225788   2.559   3.436  15.459  0.6371 -0.2391 -0.4271
 1458TIP3    H125789   2.493   3.375  15.426 -0.0129  0.8729 -1.3040
 1458TIP3    H225790   2.632   3.381  15.487  0.2345 -1.3864 -1.5340
 1459TIP3   OH225791   3.893   2.995  14.014  0.3385  0.2088 -0.1182
 1459TIP3    H125792   3.933   3.081  14.025 -1.6761  1.1571  0.3429
 1459TIP3    H225793   3.821   2.994  14.077 -1.0726 -0.9186 -1.6379
 1460TIP3   OH225794   0.289   5.335   1.897  1.0492  0.5106  0.5376
 1460TIP3    H125795   0.243   5.416   1.917 -0.1517  0.1021 -0.4168
 1460TIP3    H225796   0.275   5.280   1.974  1.1770  0.9035  0.8466
 1461TIP3   OH225797   0.573   5.775  13.283  0.7165  0.2728 -0.0465
 1461TIP3    H125798   0.599   5.761  13.374 -0.3081 -1.0824  0.0739
 1461TIP3    H225799   0.574   5.870  13.272  1.8791  0.4214  1.0561
 1462TIP3   OH225800   0.659   5.383  12.684 -0.2124  0.2310  0.1163
 1462TIP3    H125801   0.568   5.405  12.703 -0.2920  0.1119 -0.1192
 1462TIP3    H225802   0.656   5.291  12.656  0.3454 -0.6943  2.8416
 1463TIP3   OH225803   2.118   5.089   1.140  0.0332 -0.0137  0.2057
 1463TIP3    H125804   2.057   5.067   1.210  0.2391 -1.2615  0.0125
 1463TIP3    H225805   2.079   5.166   1.098 -1.1333 -0.4665  0.4210
 1464TIP3   OH225806   5.505   6.396   5.926 -0.2948  0.1767  0.0859
 1464TIP3    H125807   5.585   6.448   5.928 -1.1883  1.6151  0.0263
 1464TIP3    H225808   5.470   6.402   6.015 -1.0738  0.8188 -0.2411
 1465TIP3   OH225809   2.372   4.654  11.301  0.5946 -0.0141  0.7238
 1465TIP3    H125810   2.376   4.591  11.229 -2.1760 -0.6683  1.0144
 1465TIP3    H225811   2.359   4.738  11.258 -0.9680 -0.3887  0.3677
 1466TIP3   OH225812   0.647   1.341  15.478 -0.2401 -0.5463  0.0423
 1466TIP3    H125813   0.727   1.311  15.521 -0.3531  0.2748  0.8455
 1466TIP3    H225814   0.607   1.261  15.444  2.2697 -0.7760 -2.8082
 1467TIP3   OH225815   5.173   6.040   4.554 -0.0617  0.1414  0.2593
 1467TIP3    H125816   5.132   5.959   4.521 -0.2975  0.6001 -0.6049
 1467TIP3    H225817   5.245   6.009   4.610 -0.6010 -0.6680  0.5203
 1468TIP3   OH225818   5.199   1.500   2.791 -0.3047  0.0022 -0.4189
 1468TIP3    H125819   5.201   1.419   2.741  2.5306 -0.5580  0.4189
 1468TIP3    H225820   5.179   1.473   2.881  1.5818  0.0446  0.0489
 1469TIP3   OH225821   6.572   6.444  14.919 -0.5707  0.8467 -0.6968
 1469TIP3    H125822   6.497   6.475  14.868  0.3250  0.1371 -2.4934
 1469TIP3    H225823   6.633   6.409  14.855  0.1750 -1.0487  0.9459
 1470TIP3   OH225824   2.964   2.887   5.713 -0.2786  0.2969 -0.5316
 1470TIP3    H125825   2.962   2.952   5.642 -0.3444 -0.5433 -1.3070
 1470TIP3    H225826   3.039   2.913   5.766 -0.1907  0.8967 -0.9326
 1471TIP3   OH225827   3.356   4.202  17.195  0.3198  0.0074  0.0067
 1471TIP3    H125828   3.279   4.192  17.139  1.9865 -0.5586 -2.2993
 1471TIP3    H225829   3.356   4.123  17.250  0.5594 -1.2315 -1.7075
 1472TIP3   OH225830   5.566   1.243  14.253  0.1163 -0.1049  0.7703
 1472TIP3    H125831   5.662   1.244  14.249  0.1537  0.8855  1.5091
 1472TIP3    H225832   5.545   1.172  14.313  0.4097  0.0193  1.0215
 1473TIP3   OH225833   6.653   2.754   1.610 -0.1529 -0.2899  0.2914
 1473TIP3    H125834   6.644   2.684   1.546  1.7734 -0.6624  0.3616
 1473TIP3    H225835   6.577   2.811   1.595 -0.0290 -0.6382 -1.9567
 1474TIP3   OH225836   5.266   2.541  14.281  0.0723  0.2389  0.2439
 1474TIP3    H125837   5.301   2.470  14.227 -0.6337  0.0017  0.0956
 1474TIP3    H225838   5.218   2.597  14.220 -0.2247  0.2988  0.5317
 1475TIP3   OH225839   5.865   3.276   5.949  0.2039  0.4303  0.4164
 1475TIP3    H125840   5.929   3.345   5.967  0.2249  0.8090 -0.9657
 1475TIP3    H225841   5.785   3.323   5.925 -1.3311  0.0154  4.0117
 1476TIP3   OH225842   2.796   1.459  14.404 -0.2328 -0.4354  0.2417
 1476TIP3    H125843   2.705   1.458  14.436  0.3490  0.4408  2.1015
 1476TIP3    H225844   2.806   1.545  14.364 -0.6985 -1.2035 -1.6232
 1477TIP3   OH225845   3.607   0.046   4.970 -0.2016 -0.3149  0.1876
 1477TIP3    H125846   3.661  -0.033   4.978  1.0034  0.4807  0.1065
 1477TIP3    H225847   3.622   0.076   4.880  0.1304  0.5388  0.5154
 1478TIP3   OH225848   5.494   2.455  11.745  0.0319  0.4307  0.0961
 1478TIP3    H125849   5.543   2.452  11.663 -0.6927  0.3391 -0.3434
 1478TIP3    H225850   5.433   2.528  11.734  0.6221  1.0822  0.9680
 1479TIP3   OH225851   6.714   1.586   4.762 -0.4972  0.2765  0.0278
 1479TIP3    H125852   6.809   1.589   4.767 -0.4841  0.8394 -0.4208
 1479TIP3    H225853   6.685   1.598   4.853 -0.1578  1.3686  0.0007
 1480TIP3   OH225854   1.098   6.339  16.627  0.5895  0.3012  0.5450
 1480TIP3    H125855   1.045   6.343  16.548  1.1123  0.5469  0.1999
 1480TIP3    H225856   1.053   6.396  16.689  2.3820  3.6234 -0.9465
 1481TIP3   OH225857   5.014   3.136  12.456  0.5001 -0.5918 -0.7667
 1481TIP3    H125858   5.064   3.055  12.444 -0.9353 -2.0032  1.9052
 1481TIP3    H225859   4.936   3.109  12.504 -1.3991  2.0052 -2.1777
 1482TIP3   OH225860   3.931   6.652  13.238  0.1115 -0.2151 -0.6749
 1482TIP3    H125861   3.907   6.601  13.160  1.1612 -1.2184 -0.3759
 1482TIP3    H225862   3.931   6.588  13.309 -0.4571  0.6165  0.0778
 1483TIP3   OH225863   4.401   3.255  11.875  0.5861 -0.4811  0.6443
 1483TIP3    H125864   4.432   3.277  11.787 -0.3324 -0.9108  0.1966
 1483TIP3    H225865   4.429   3.164  11.888 -1.0916 -1.1453 -0.0820
 1484TIP3   OH225866   3.589   4.780   3.515 -0.5977 -0.1050 -0.0230
 1484TIP3    H125867   3.669   4.773   3.464 -0.5394  0.4260 -0.0149
 1484TIP3    H225868   3.566   4.690   3.538 -1.1533 -0.4485 -1.8104
 1485TIP3   OH225869   5.428   1.411  15.729 -0.1191  0.3701 -0.2715
 1485TIP3    H125870   5.341   1.404  15.768  0.5315  1.4835  1.4949
 1485TIP3    H225871   5.450   1.504  15.734  1.9207 -0.1134  1.0778
 1486TIP3   OH225872   5.528   0.046   4.578  0.2753 -0.4885 -0.3148
 1486TIP3    H125873   5.594   0.114   4.563 -1.3774  0.5721 -3.8175
 1486TIP3    H225874   5.454   0.094   4.617  0.7619 -1.3018  1.7399
 1487TIP3   OH225875   1.511   1.717  16.844  0.0282  0.0836  0.0357
 1487TIP3    H125876   1.501   1.645  16.906 -0.5310 -0.1350 -0.3001
 1487TIP3    H225877   1.448   1.783  16.873  0.7689  0.5996  0.5424
 1488TIP3   OH225878   4.655   4.065   1.100 -0.2899 -0.2991  0.3405
 1488TIP3    H125879   4.608   3.985   1.121 -0.3499 -0.5873 -0.8181
 1488TIP3    H225880   4.744   4.050   1.130 -0.3188 -0.7836  0.1848
 1489TIP3   OH225881   0.039   4.606  12.572 -0.2190 -0.2369  0.0541
 1489TIP3    H125882   0.125   4.602  12.532  0.0237  0.1457  0.5283
 1489TIP3    H225883  -0.018   4.642  12.504 -0.0872 -0.8588 -0.3908
 1490TIP3   OH225884   6.327   0.738  10.930 -0.1317  0.1955  0.1468
 1490TIP3    H125885   6.283   0.689  10.860  0.2108  1.3952 -0.9562
 1490TIP3    H225886   6.416   0.702  10.932  0.6283  1.7894 -1.7927
 1491TIP3   OH225887   4.497   1.318   2.896  0.2823  0.3140 -0.2210
 1491TIP3    H125888   4.570   1.257   2.905  0.9240  0.9359 -1.0260
 1491TIP3    H225889   4.419   1.262   2.898  0.9056 -0.7749 -2.6934
 1492TIP3   OH225890   5.872   1.025   5.817  0.9663 -0.3391  0.6717
 1492TIP3    H125891   5.856   1.076   5.737 -0.3475 -0.0894  1.0732
 1492TIP3    H225892   5.877   0.935   5.787 -0.3376 -0.3310  0.3970
 1493TIP3   OH225893   6.730   2.525  16.486  0.0045 -0.4403  0.6199
 1493TIP3    H125894   6.763   2.565  16.406 -0.9503 -1.6881 -0.4421
 1493TIP3    H225895   6.776   2.441  16.492 -0.5376 -0.7235  0.9143
 1494TIP3   OH225896   0.962   2.420  12.248 -0.0866  0.1048 -0.1970
 1494TIP3    H125897   0.961   2.409  12.343  0.2175  0.4913 -0.1475
 1494TIP3    H225898   1.016   2.349  12.216 -1.3535 -0.8975 -0.2035
 1495TIP3   OH225899   0.333   5.814   0.925 -0.2716  0.3301  0.4681
 1495TIP3    H125900   0.316   5.902   0.959 -3.4098  0.7981 -1.9194
 1495TIP3    H225901   0.272   5.758   0.972 -1.2765  0.1858 -0.9746
 1496TIP3   OH225902   2.374   6.405  11.973 -0.1753 -0.3841  0.3943
 1496TIP3    H125903   2.391   6.494  12.003  2.3437 -0.2879 -1.0335
 1496TIP3    H225904   2.311   6.416  11.901 -0.4786  0.1491  0.7358
 1497TIP3   OH225905   4.527   5.096   1.431  0.3618  0.4188 -0.4830
 1497TIP3    H125906   4.434   5.110   1.411  0.0822  0.9231  1.0271
 1497TIP3    H225907   4.567   5.182   1.422  0.6370  0.2561 -0.8533
 1498TIP3   OH225908   3.349   1.384   5.516  0.0091  0.9465 -0.1909
 1498TIP3    H125909   3.299   1.303   5.511 -1.6963  2.0234 -1.4871
 1498TIP3    H225910   3.415   1.366   5.583  1.5218 -2.4858 -2.2691
 1499TIP3   OH225911   5.095   0.500   4.045 -0.1385 -0.2115  0.0975
 1499TIP3    H125912   5.103   0.532   4.135  0.7371 -0.5940  0.1623
 1499TIP3    H225913   5.027   0.433   4.050  0.1536 -0.4813  0.5470
 1500TIP3   OH225914   6.015   3.302   1.054  0.4765  0.2549  0.3143
 1500TIP3    H125915   5.937   3.253   1.080  1.7293 -2.4496 -0.6644
 1500TIP3    H225916   6.022   3.288   0.960  1.2136  1.9334  0.0785
 1501TIP3   OH225917   1.894   6.389  14.659 -0.2580  0.3819 -0.3778
 1501TIP3    H125918   1.885   6.436  14.742  1.8361 -2.0398  1.3544
 1501TIP3    H225919   1.810   6.404  14.615 -1.4410  1.8187  2.1137
 1502TIP3   OH225920   0.084   6.028  14.966  0.0475 -0.5290 -0.0871
 1502TIP3    H125921   0.036   6.107  14.941 -2.6739 -1.8961  0.4063
 1502TIP3    H225922   0.174   6.045  14.939 -0.3180  2.8996  0.4396
 1503TIP3   OH225923   5.191   1.103  14.292 -0.0653 -0.6124  0.0611
 1503TIP3    H125924   5.168   1.160  14.365  1.2871 -0.0537  0.0701
 1503TIP3    H225925   5.141   1.022  14.308 -0.0253 -0.3812  1.4318
 1504TIP3   OH225926   1.368   0.603  11.885  0.3156 -0.5249  0.2274
 1504TIP3    H125927   1.413   0.604  11.800  1.0128 -0.2415  0.5912
 1504TIP3    H225928   1.297   0.540  11.874 -1.0207  1.1452 -1.2879
 1505TIP3   OH225929   3.726   0.147   5.764 -0.5328 -0.2988  0.3684
 1505TIP3    H125930   3.635   0.116   5.772 -0.6312  0.0514  0.6233
 1505TIP3    H225931   3.748   0.132   5.673 -1.3731  1.0454 -0.0912
 1506TIP3   OH225932   4.958   4.267  15.940  0.3877  0.5286  0.0198
 1506TIP3    H125933   4.976   4.299  16.028  1.2739  0.9518 -0.3047
 1506TIP3    H225934   5.021   4.196  15.926 -0.1578  0.0504 -0.0523
 1507TIP3   OH225935   3.448   2.269   6.190 -0.1068 -0.0757 -0.5569
 1507TIP3    H125936   3.397   2.328   6.134  0.1008  1.3348  0.6603
 1507TIP3    H225937   3.384   2.206   6.223 -0.9628  1.1583  0.2690
 1508TIP3   OH225938   2.806   0.821   6.012  0.0551 -0.0713  0.3693
 1508TIP3    H125939   2.871   0.752   6.024  1.1512  1.1140  1.4888
 1508TIP3    H225940   2.853   0.893   5.970 -0.9720  0.1623 -0.4286
 1509TIP3   OH225941   2.188   5.697  13.565 -0.4326 -0.1176 -0.2943
 1509TIP3    H125942   2.158   5.759  13.498 -0.0577 -1.9251 -2.2194
 1509TIP3    H225943   2.107   5.658  13.599 -0.5967  0.3312 -0.1665
 1510TIP3   OH225944   0.611   3.698  15.222 -0.2011 -0.5982 -0.3045
 1510TIP3    H125945   0.568   3.782  15.208 -0.2673 -0.9133 -2.1548
 1510TIP3    H225946   0.540   3.637  15.242  0.0223  0.2222  3.9913
 1511TIP3   OH225947   3.751   1.115   4.312  0.2848  0.6956  0.7271
 1511TIP3    H125948   3.684   1.055   4.343  0.9451  1.1657  3.2988
 1511TIP3    H225949   3.704   1.197   4.294 -0.6072 -0.4201 -2.7334
 1512TIP3   OH225950   5.406   1.267  11.698 -0.0532 -0.2148 -0.8592
 1512TIP3    H125951   5.425   1.361  11.692  2.1827 -0.6836 -2.1828
 1512TIP3    H225952   5.464   1.235  11.767 -1.4256 -0.5388  0.1998
 1513TIP3   OH225953   5.586   1.206   3.210  0.0294 -0.4341  0.3466
 1513TIP3    H125954   5.636   1.237   3.135  0.0577 -0.8012  0.2128
 1513TIP3    H225955   5.504   1.256   3.206 -0.2713 -0.9551 -0.3454
 1514TIP3   OH225956   6.118   4.131  14.099  0.2710  0.1781  0.3168
 1514TIP3    H125957   6.171   4.118  14.021  0.6529  1.4465  0.3481
 1514TIP3    H225958   6.151   4.212  14.138 -1.1015  0.5361  0.8115
 1515TIP3   OH225959   2.574   2.149  11.934 -0.0877  0.0950 -0.2912
 1515TIP3    H125960   2.492   2.151  11.884  0.1612 -0.8277 -0.7637
 1515TIP3    H225961   2.572   2.065  11.979  0.0946  0.5483  0.5806
 1516TIP3   OH225962   5.478   5.566   4.402  0.0981 -0.5752 -0.3032
 1516TIP3    H125963   5.522   5.555   4.487 -0.0943  0.4265 -0.0679
 1516TIP3    H225964   5.424   5.487   4.393  0.3411 -0.8301  0.3664
 1517TIP3   OH225965   0.762   4.720   5.142  0.3396  0.6291  0.1090
 1517TIP3    H125966   0.845   4.741   5.098 -1.1235  1.7717 -2.3510
 1517TIP3    H225967   0.729   4.642   5.095 -0.5880  0.9945  0.1280
 1518TIP3   OH225968   3.962   4.989  17.043  0.5828 -0.3829  0.4940
 1518TIP3    H125969   3.905   4.931  16.992  1.2002  0.3512 -1.0758
 1518TIP3    H225970   4.006   4.930  17.105 -0.9877 -1.1291  0.9626
 1519TIP3   OH225971   0.565   1.918   0.272  0.4880 -0.0359 -0.4249
 1519TIP3    H125972   0.496   1.920   0.339 -1.4536 -0.4634 -2.2870
 1519TIP3    H225973   0.609   2.003   0.281  0.2148 -0.0420  1.2949
 1520TIP3   OH225974   2.744   5.226  14.472  0.4134  0.9537  0.3977
 1520TIP3    H125975   2.785   5.311  14.462  0.3532  1.0859  1.2153
 1520TIP3    H225976   2.650   5.244  14.472  0.3992  0.8854  0.4926
 1521TIP3   OH225977   0.824   3.742  14.982 -0.6043 -0.1055  0.4050
 1521TIP3    H125978   0.795   3.802  15.050 -0.3667 -1.2150  1.5369
 1521TIP3    H225979   0.916   3.725  15.003 -0.5828 -0.6176 -0.0749
 1522TIP3   OH225980   5.563   4.458   0.200 -0.2717  0.0864 -0.1808
 1522TIP3    H125981   5.505   4.418   0.135 -1.2861  0.3006  0.5563
 1522TIP3    H225982   5.603   4.384   0.245 -1.9704 -0.1673  1.0271
 1523TIP3   OH225983   0.431   0.046  16.407 -0.3089  0.0388 -0.3291
 1523TIP3    H125984   0.371   0.100  16.354 -0.1645 -2.0633 -2.8424
 1523TIP3    H225985   0.513   0.095  16.406 -1.1726  1.6020  0.7906
 1524TIP3   OH225986   2.581   1.014  17.173 -0.1056 -0.5297  0.2304
 1524TIP3    H125987   2.526   0.966  17.235 -0.0219 -3.4569 -1.7418
 1524TIP3    H225988   2.622   0.946  17.119 -0.8499  1.7625 -3.6358
 1525TIP3   OH225989   3.063   4.848   1.154  0.0213 -0.6368 -0.1466
 1525TIP3    H125990   3.081   4.756   1.169 -0.5264 -0.9379 -1.2463
 1525TIP3    H225991   2.971   4.860   1.181  0.4488 -0.1209  1.1630
 1526TIP3   OH225992   0.418   2.186   4.594  0.1915 -0.1621  0.5462
 1526TIP3    H125993   0.459   2.156   4.513  1.0531  0.3748  0.7716
 1526TIP3    H225994   0.439   2.117   4.658  1.8107  0.6609  0.9587
 1527TIP3   OH225995   4.945   5.544   6.475  0.3519  0.1922  0.6688
 1527TIP3    H125996   4.988   5.578   6.396  0.5800  0.7551  1.0298
 1527TIP3    H225997   4.947   5.449   6.464  1.3866  0.2202  0.5212
 1528TIP3   OH225998   6.446   1.400   2.403  0.3803 -0.7107  0.5772
 1528TIP3    H125999   6.455   1.342   2.479 -0.8603 -0.3387  1.0271
 1528TIP3    H226000   6.358   1.437   2.411  0.2470 -0.6265 -1.0235
 1529TIP3   OH226001   5.058   2.920  11.206 -0.1752  0.1709  0.2480
 1529TIP3    H126002   5.142   2.964  11.191 -0.1350  0.3444  0.9246
 1529TIP3    H226003   4.992   2.988  11.194 -0.1361  0.3347  0.9381
 1530TIP3   OH226004   0.061   6.423  12.470 -0.4843 -0.3486  0.9224
 1530TIP3    H126005  -0.025   6.425  12.427  0.8207  2.7910 -1.9324
 1530TIP3    H226006   0.055   6.488  12.540 -0.4685 -0.2732  0.8527
 1531TIP3   OH226007   6.501   4.543  13.610 -0.1521 -0.5409 -0.6397
 1531TIP3    H126008   6.478   4.532  13.518  0.2453  1.4150 -1.0199
 1531TIP3    H226009   6.470   4.631  13.632  0.5920 -0.6167  0.8292
 1532TIP3   OH226010   2.313   1.024  14.659 -0.3565 -0.0540 -0.3647
 1532TIP3    H126011   2.284   1.053  14.745  0.9193  0.0038  0.0657
 1532TIP3    H226012   2.399   1.065  14.647 -1.6379  2.2946 -2.8907
 1533TIP3   OH226013   2.583   3.631  15.675  0.2046 -0.2013  0.2689
 1533TIP3    H126014   2.673   3.601  15.658  1.3180  1.7394  2.3165
 1533TIP3    H226015   2.530   3.582  15.612  2.7413 -0.9996 -1.4120
 1534TIP3   OH226016   6.507   0.384   0.964  0.0856  0.6249  0.0352
 1534TIP3    H126017   6.422   0.421   0.987  0.3726  2.8664 -2.1349
 1534TIP3    H226018   6.564   0.406   1.038 -0.8735  0.3114  0.8882
 1535TIP3   OH226019   5.392   0.607   5.494  0.1812 -0.2488 -0.0411
 1535TIP3    H126020   5.485   0.629   5.499  0.1707 -0.3342  0.7781
 1535TIP3    H226021   5.374   0.564   5.578 -0.5589 -0.3717 -0.2614
 1536TIP3   OH226022   4.867   1.105  15.523  0.1909 -0.4212 -0.4854
 1536TIP3    H126023   4.873   1.181  15.581 -0.4829 -0.3850 -0.4541
 1536TIP3    H226024   4.814   1.135  15.449  0.5568 -0.6417 -0.8491
 1537TIP3   OH226025   6.096   0.852   5.092  0.0649  0.0134  0.4319
 1537TIP3    H126026   6.050   0.918   5.143  2.6319  0.5149  2.2769
 1537TIP3    H226027   6.154   0.903   5.035  3.1009 -0.4323  2.8458
 1538TIP3   OH226028   4.203   4.120   3.514 -0.1950 -0.3954 -0.2760
 1538TIP3    H126029   4.296   4.126   3.536 -0.2729  0.4234 -0.1583
 1538TIP3    H226030   4.199   4.132   3.419 -0.2164 -0.0107 -0.2276
 1539TIP3   OH226031   6.588   0.055  14.869  0.2700 -0.1482  0.4772
 1539TIP3    H126032   6.587   0.037  14.775  1.7197  0.7087  0.2674
 1539TIP3    H226033   6.547   0.140  14.878 -0.8947 -0.7171  0.7743
 1540TIP3   OH226034   5.183   5.930   1.639 -0.0618 -0.2758 -0.0916
 1540TIP3    H126035   5.088   5.925   1.650  0.0228  1.3023  2.0589
 1540TIP3    H226036   5.205   5.854   1.586 -2.4157 -1.2193  0.1514
 1541TIP3   OH226037   5.947   3.844  11.646  0.7853  0.1865  0.1146
 1541TIP3    H126038   6.031   3.804  11.667  0.1462 -1.9640 -1.1044
 1541TIP3    H226039   5.887   3.771  11.638 -0.9009  1.5620 -0.4509
 1542TIP3   OH226040   2.815   5.056   5.371  0.1414 -0.2865  0.4271
 1542TIP3    H126041   2.722   5.057   5.394 -0.1038 -1.4959 -0.4234
 1542TIP3    H226042   2.830   5.140   5.328 -0.3694  0.2241  1.2031
 1543TIP3   OH226043   4.630   6.206   0.701  0.2160  0.3119 -0.0257
 1543TIP3    H126044   4.692   6.160   0.758  0.8736 -0.1418 -1.0775
 1543TIP3    H226045   4.630   6.156   0.620 -0.3664  1.1968 -0.5933
 1544TIP3   OH226046   3.731   2.165  12.980 -0.0329  0.0657  0.0832
 1544TIP3    H126047   3.737   2.233  12.912  0.0949 -0.2217 -0.1943
 1544TIP3    H226048   3.724   2.215  13.062 -1.5891  0.4147 -0.2400
 1545TIP3   OH226049   2.897   1.198  11.023  0.7678 -0.7458  0.3901
 1545TIP3    H126050   2.887   1.170  10.932  0.9919 -1.1701  0.4942
 1545TIP3    H226051   2.812   1.236  11.046  1.3372  1.3104 -0.6498
 1546TIP3   OH226052   3.454   3.950  13.357 -0.2335  0.2096  0.1542
 1546TIP3    H126053   3.404   3.926  13.435 -0.6943 -1.7931 -0.6779
 1546TIP3    H226054   3.530   3.997  13.391 -1.4274  1.1693  1.6310
 1547TIP3   OH226055   5.887   5.239   2.909 -0.1980 -0.3310 -0.0476
 1547TIP3    H126056   5.880   5.323   2.955 -1.4789  0.5781 -1.7905
 1547TIP3    H226057   5.805   5.231   2.861 -0.4741 -3.0264  0.7018
 1548TIP3   OH226058   0.155   5.458  15.976  0.0276 -0.4391  0.1339
 1548TIP3    H126059   0.123   5.486  15.890  0.3576  1.3236  0.5581
 1548TIP3    H226060   0.084   5.480  16.037  1.7753  3.4233  1.0726
 1549TIP3   OH226061   4.135   6.239  16.483  0.2829 -0.1542 -0.2432
 1549TIP3    H126062   4.116   6.159  16.435 -0.2783  0.5720 -1.2736
 1549TIP3    H226063   4.049   6.280  16.496  0.3356 -0.6314  1.9796
 1550TIP3   OH226064   0.392   2.798   5.227  0.0549 -0.1562  0.2915
 1550TIP3    H126065   0.347   2.844   5.156  2.6841  0.4904 -1.0941
 1550TIP3    H226066   0.328   2.794   5.298 -2.6223 -0.5793 -1.9702
 1551TIP3   OH226067   0.361   1.866   4.496 -0.3401  0.7785 -0.3018
 1551TIP3    H126068   0.296   1.877   4.565 -1.0599  0.4409 -0.9094
 1551TIP3    H226069   0.435   1.822   4.538 -1.1477 -0.2886  0.0372
 1552TIP3   OH226070   6.427   6.242   6.274  0.5220  0.0752  0.1144
 1552TIP3    H126071   6.510   6.254   6.320  1.3021 -0.7146 -1.0250
 1552TIP3    H226072   6.362   6.287   6.328  1.5338 -0.1018  1.5108
 1553TIP3   OH226073   0.126   5.229   2.469  0.3415  0.8378  0.3028
 1553TIP3    H126074   0.053   5.176   2.437  0.4284  0.7161  0.3023
 1553TIP3    H226075   0.085   5.299   2.520  0.2375  0.6002  0.5485
 1554TIP3   OH226076   6.636   3.148   5.923 -0.6401 -0.6694  0.5144
 1554TIP3    H126077   6.587   3.118   6.000  1.6122  1.0428  2.7837
 1554TIP3    H226078   6.667   3.067   5.881 -1.4034 -1.6391  1.7562
 1555TIP3   OH226079   5.837   0.933  15.577  0.4492 -0.3539 -0.1955
 1555TIP3    H126080   5.769   1.001  15.579 -0.3801 -1.1691  0.0191
 1555TIP3    H226081   5.808   0.868  15.641  0.4361 -1.6591 -1.4780
 1556TIP3   OH226082   1.868   1.399  16.416 -0.3687 -0.0138  0.3341
 1556TIP3    H126083   1.904   1.488  16.421  0.2218 -0.2807  1.2091
 1556TIP3    H226084   1.784   1.405  16.462  0.4691 -0.2636  1.9735
 1557TIP3   OH226085   1.105   5.011  15.050  1.0688 -0.2350  0.1955
 1557TIP3    H126086   1.045   5.085  15.044  1.1414 -0.2501 -0.7700
 1557TIP3    H226087   1.176   5.043  15.106  0.9853  0.3467 -0.0251
 1558TIP3   OH226088   3.962   1.824   6.574 -0.2901 -0.7604 -0.2920
 1558TIP3    H126089   3.883   1.875   6.591 -0.2843 -0.7713 -0.2327
 1558TIP3    H226090   4.029   1.862   6.632  0.0806  0.0487 -1.2249
 1559TIP3   OH226091   3.102   0.529   1.560  0.0390 -0.4402  0.0497
 1559TIP3    H126092   3.102   0.592   1.632 -3.3197 -0.0837 -0.1335
 1559TIP3    H226093   3.135   0.578   1.485 -0.6006  0.4961  0.3714
 1560TIP3   OH226094   6.459   5.733   0.924 -0.0262  0.1824  0.4219
 1560TIP3    H126095   6.409   5.740   0.842 -0.2756  0.0389  0.5604
 1560TIP3    H226096   6.538   5.785   0.908 -0.2745  0.5108  0.2463
 1561TIP3   OH226097   4.816   0.866  15.245  0.0595  0.0340 -0.8537
 1561TIP3    H126098   4.875   0.830  15.311  2.5469  1.2682 -2.2540
 1561TIP3    H226099   4.825   0.961  15.254 -0.4127  0.2352 -2.2197
 1562TIP3   OH226100   6.693   1.133   1.854 -0.0585 -0.4320  0.1622
 1562TIP3    H126101   6.717   1.071   1.923  0.2694 -0.0974  0.3538
 1562TIP3    H226102   6.631   1.193   1.895  0.9229  0.3964  0.4776
 1563TIP3   OH226103   5.469   6.396   4.421  0.2247 -0.1997  0.1603
 1563TIP3    H126104   5.405   6.354   4.479 -0.2429  1.1013  0.6472
 1563TIP3    H226105   5.468   6.343   4.342 -2.4355  0.4422 -0.3569
 1564TIP3   OH226106   0.848   5.674  11.938 -0.2653 -0.7215  0.5991
 1564TIP3    H126107   0.798   5.593  11.928  0.5970 -1.3802  1.4091
 1564TIP3    H226108   0.901   5.680  11.859  0.8350 -1.8087  1.2266
 1565TIP3   OH226109   4.785   0.443  14.503 -0.6123 -0.2461 -0.3340
 1565TIP3    H126110   4.709   0.401  14.464 -1.1270 -0.1344  0.5355
 1565TIP3    H226111   4.757   0.533  14.519  1.3063  1.4084 -4.7273
 1566TIP3   OH226112   2.854   2.961   4.333 -0.3663 -0.0426 -0.2486
 1566TIP3    H126113   2.785   2.947   4.268 -0.6684 -3.2382  0.5767
 1566TIP3    H226114   2.815   3.019   4.398 -2.3209 -1.7004  0.1445
 1567TIP3   OH226115   5.498   3.140  13.642 -0.2746  0.3909  0.0830
 1567TIP3    H126116   5.588   3.174  13.643  0.9417 -2.5264 -1.0638
 1567TIP3    H226117   5.477   3.127  13.735  0.5637  0.8768  0.3558
 1568TIP3   OH226118   0.438   5.654   1.616 -0.4044 -0.4209 -0.0409
 1568TIP3    H126119   0.457   5.573   1.664 -4.7047  0.1986  3.4156
 1568TIP3    H226120   0.370   5.628   1.553 -1.3843  0.3114  0.6854
 1569TIP3   OH226121   1.291   6.074  16.807  0.4702 -0.0432 -0.5267
 1569TIP3    H126122   1.370   6.019  16.801 -0.3941 -1.5814  1.3196
 1569TIP3    H226123   1.311   6.136  16.878  0.7503  0.9211 -1.4161
 1570TIP3   OH226124   1.621   6.240   3.413  0.3077 -0.2011  0.2033
 1570TIP3    H126125   1.629   6.144   3.410  0.0092 -0.2324  0.3126
 1570TIP3    H226126   1.708   6.272   3.393  0.2060 -0.4848 -0.7219
 1571TIP3   OH226127   6.519   5.554  14.737  0.7254 -0.7873 -0.2954
 1571TIP3    H126128   6.427   5.561  14.714  0.1024  0.8952  2.2413
 1571TIP3    H226129   6.566   5.585  14.660 -0.9633  0.5900 -0.8343
 1572TIP3   OH226130   3.472   1.586  11.700 -0.7139 -0.0893  0.3394
 1572TIP3    H126131   3.536   1.578  11.770  0.2872 -0.0875 -0.5438
 1572TIP3    H226132   3.468   1.680  11.682 -0.5648 -0.1375  0.0468
 1573TIP3   OH226133   2.318   6.101  12.163  0.0479 -0.0434 -0.4752
 1573TIP3    H126134   2.382   6.038  12.130 -0.4923 -0.1070 -1.4344
 1573TIP3    H226135   2.341   6.183  12.120 -0.0511  0.1090 -0.2400
 1574TIP3   OH226136   1.851   5.001  13.308  0.2387  0.4193 -0.3228
 1574TIP3    H126137   1.786   4.979  13.241 -0.1720  2.2773 -0.5919
 1574TIP3    H226138   1.808   4.981  13.391  0.9579 -2.4579 -0.5262
 1575TIP3   OH226139   3.592   2.462  14.895 -0.5352  0.1337 -0.7885
 1575TIP3    H126140   3.551   2.528  14.950 -0.5427  1.1220 -1.9217
 1575TIP3    H226141   3.686   2.482  14.899 -0.1345 -1.8200  1.4147
 1576TIP3   OH226142   6.440   4.968  11.095 -0.2568  0.3029  0.2023
 1576TIP3    H126143   6.463   4.901  11.030  3.2699  0.7541  0.7390
 1576TIP3    H226144   6.491   4.944  11.173 -1.0583  2.1102  1.3569
 1577TIP3   OH226145   1.359   0.981  12.901 -0.3218  0.3001 -0.6676
 1577TIP3    H126146   1.288   0.956  12.961 -1.0939 -0.3939 -1.8339
 1577TIP3    H226147   1.397   1.060  12.940 -0.4018 -0.4698  1.0488
 1578TIP3   OH226148   5.404   3.686   2.468  0.3811 -0.4614 -0.3537
 1578TIP3    H126149   5.361   3.675   2.383  0.8480 -0.4178 -0.5946
 1578TIP3    H226150   5.415   3.780   2.478  0.8360 -0.4986 -0.4978
 1579TIP3   OH226151   6.039   0.350   5.002  0.2044 -0.5027  0.6806
 1579TIP3    H126152   6.120   0.395   5.028  0.1786  0.3185 -0.6017
 1579TIP3    H226153   6.069   0.270   4.960  0.4392  0.4112 -0.9732
 1580TIP3   OH226154   6.484   5.163   4.125 -0.1025  0.1049 -0.2897
 1580TIP3    H126155   6.459   5.095   4.188  2.4501 -0.0178  0.7094
 1580TIP3    H226156   6.562   5.129   4.083  0.5708  1.9375 -0.6056
 1581TIP3   OH226157   5.203   3.005  16.476  0.0324 -0.3656  0.0960
 1581TIP3    H126158   5.192   2.915  16.508 -1.1980  0.3093  1.7360
 1581TIP3    H226159   5.287   3.033  16.511  0.7464 -1.0565 -0.9850
 1582TIP3   OH226160   6.593   0.245  15.690  0.4486 -0.2357  0.3328
 1582TIP3    H126161   6.587   0.338  15.713  2.5999 -0.0203  0.1892
 1582TIP3    H226162   6.547   0.200  15.760 -2.3878  0.9958 -0.5840
 1583TIP3   OH226163   2.688   4.370  12.289 -0.0099 -0.2420  0.0273
 1583TIP3    H126164   2.595   4.354  12.302 -0.2841  0.6165 -0.7517
 1583TIP3    H226165   2.729   4.346  12.372 -0.8567 -1.0949  0.2163
 1584TIP3   OH226166   6.170   6.342  14.360  1.1796  0.2968 -0.1518
 1584TIP3    H126167   6.127   6.331  14.444  1.7500  1.1600  0.2621
 1584TIP3    H226168   6.260   6.314  14.375  1.1659  0.0046 -0.5998
 1585TIP3   OH226169   1.406   2.068  14.062  0.2114  0.1382 -0.1866
 1585TIP3    H126170   1.415   1.979  14.030 -0.4309  0.2341 -0.6633
 1585TIP3    H226171   1.408   2.060  14.157  0.9112 -0.2943 -0.2353
 1586TIP3   OH226172   1.922   1.549   4.558 -0.3112 -0.0608  0.1457
 1586TIP3    H126173   1.843   1.525   4.605 -1.2587  1.0952 -0.7845
 1586TIP3    H226174   1.993   1.508   4.607 -1.4833 -1.1657  0.9638
 1587TIP3   OH226175   4.933   0.822   2.639 -0.4256 -0.2979  0.3722
 1587TIP3    H126176   5.014   0.789   2.677 -0.1448 -1.1997 -0.9080
 1587TIP3    H226177   4.900   0.749   2.585 -0.8576  0.8165 -0.9555
 1588TIP3   OH226178   0.878   0.576  17.053 -0.0702  0.3384 -0.0091
 1588TIP3    H126179   0.869   0.483  17.074 -1.0123  0.2958 -0.4929
 1588TIP3    H226180   0.957   0.604  17.099 -1.4615  0.0613  2.7692
 1589TIP3   OH226181   4.008   0.290   5.129 -0.1824 -0.7415 -0.2594
 1589TIP3    H126182   3.929   0.237   5.143  0.9516 -2.7602 -1.1126
 1589TIP3    H226183   4.080   0.228   5.132  1.3384  0.9286 -0.3424
 1590TIP3   OH226184   6.669   4.981   4.771 -0.0291  0.0635  0.5857
 1590TIP3    H126185   6.592   5.030   4.741  1.2650  1.9224  0.0645
 1590TIP3    H226186   6.659   4.978   4.866 -0.1820  1.3500  0.6359
 1591TIP3   OH226187   5.531   1.718   0.410 -0.0653 -0.2352  0.2398
 1591TIP3    H126188   5.612   1.689   0.451  0.0853 -1.2514 -0.7415
 1591TIP3    H226189   5.508   1.647   0.350 -0.3104  1.1739 -1.3927
 1592TIP3   OH226190   0.014   0.772  11.642 -0.1032 -0.6531  0.6980
 1592TIP3    H126191   0.098   0.750  11.602  0.4866 -0.6412  1.8869
 1592TIP3    H226192  -0.035   0.816  11.572  0.6626 -1.1386 -0.1697
 1593TIP3   OH226193   1.696   2.058  14.971 -0.0396  0.6539  0.2079
 1593TIP3    H126194   1.623   2.000  14.995  0.6538  0.0330  0.8555
 1593TIP3    H226195   1.709   2.113  15.047 -0.0351  0.9809 -0.0284
 1594TIP3   OH226196   0.650   5.787  14.250 -0.0682 -0.6906  0.9832
 1594TIP3    H126197   0.603   5.723  14.302  0.9488 -1.5694  0.8591
 1594TIP3    H226198   0.677   5.739  14.171 -2.4782  0.8633 -0.9446
 1595TIP3   OH226199   5.965   1.667  12.374 -0.1428  0.6500 -0.1079
 1595TIP3    H126200   5.920   1.680  12.458  0.8885 -1.4125  0.8345
 1595TIP3    H226201   5.894   1.655  12.311 -0.9261  0.9537  0.6921
 1596TIP3   OH226202   6.489   2.151  14.932  0.5727  0.2161  0.6059
 1596TIP3    H126203   6.527   2.203  15.003 -0.9123  0.0986  1.5263
 1596TIP3    H226204   6.514   2.061  14.951 -1.8862 -0.1707  2.4684
 1597TIP3   OH226205   3.825   5.254  16.910 -0.4224 -0.0016  0.0862
 1597TIP3    H126206   3.892   5.312  16.945 -2.4764  2.2109  0.6155
 1597TIP3    H226207   3.842   5.170  16.953  2.1879  0.3285 -0.1157
 1598TIP3   OH226208   3.427   4.622   5.461 -0.2097 -0.2332  0.2836
 1598TIP3    H126209   3.438   4.699   5.517  0.8431  0.1895 -0.4726
 1598TIP3    H226210   3.364   4.649   5.394  1.8036  0.7581 -1.2883
 1599TIP3   OH226211   0.679   4.488   5.020  0.2132  0.4415 -0.4102
 1599TIP3    H126212   0.588   4.456   5.019  0.0896  0.4479  2.3427
 1599TIP3    H226213   0.732   4.410   5.007 -0.1931  0.0530  0.1672
 1600TIP3   OH226214   2.468   5.099  11.879 -0.2081 -0.6332 -0.0133
 1600TIP3    H126215   2.405   5.037  11.915  0.9394 -2.2438 -0.6711
 1600TIP3    H226216   2.419   5.181  11.871 -1.8079 -1.4679  0.7613
 1601TIP3   OH226217   3.013   4.387   0.900 -0.4980  0.5377  0.4140
 1601TIP3    H126218   2.977   4.439   0.829 -1.1584 -2.2389 -1.4107
 1601TIP3    H226219   3.104   4.416   0.907 -0.5910  1.2741 -1.1574
 1602TIP3   OH226220   1.044   2.863  12.801 -0.7581 -0.0082  0.1783
 1602TIP3    H126221   0.961   2.906  12.784 -1.0161 -0.1666  0.9679
 1602TIP3    H226222   1.083   2.849  12.715 -0.9774  1.1765 -0.1286
 1603TIP3   OH226223   2.168   6.741   0.060  0.3102 -0.2837 -0.3275
 1603TIP3    H126224   2.226   6.785   0.123  0.2109  0.3535 -0.6701
 1603TIP3    H226225   2.221   6.730  -0.018 -0.2433  1.0564 -0.9359
 1604TIP3   OH226226   2.819   3.498  14.408  0.3094  0.0483 -0.2995
 1604TIP3    H126227   2.731   3.520  14.436 -0.2092 -0.3851 -1.5054
 1604TIP3    H226228   2.807   3.436  14.336  1.5295  1.3520 -1.7097
 1605TIP3   OH226229   3.461   2.430   0.209  0.0337 -0.6831 -0.0890
 1605TIP3    H126230   3.408   2.441   0.130  1.9673  0.5675 -1.2825
 1605TIP3    H226231   3.485   2.337   0.208  0.0299 -0.6859 -0.9734
 1606TIP3   OH226232   0.111   6.387  10.598  0.2297 -0.3374 -0.5113
 1606TIP3    H126233   0.198   6.348  10.588  0.7718  0.7214 -0.1332
 1606TIP3    H226234   0.088   6.371  10.690 -0.0025 -0.6664 -0.6259
 1607TIP3   OH226235   6.676   4.383  13.721  0.4884  0.4676 -0.4394
 1607TIP3    H126236   6.690   4.293  13.692 -0.4937 -0.3692  1.4987
 1607TIP3    H226237   6.596   4.410  13.678 -0.0699 -0.1748  0.1641
 1608TIP3   OH226238   5.719   5.091  14.583 -0.1251  0.2051  0.0994
 1608TIP3    H126239   5.795   5.136  14.545 -0.6981 -0.1536 -1.5339
 1608TIP3    H226240   5.698   5.143  14.662  0.7105  1.3589 -0.4032
 1609TIP3   OH226241   6.614   5.969  13.015  0.0563  0.2225 -0.3773
 1609TIP3    H126242   6.689   5.915  12.991  1.1715  0.8342  1.4914
 1609TIP3    H226243   6.539   5.929  12.970  1.1838 -1.5679 -0.7357
 1610TIP3   OH226244   2.848   2.466   4.414  0.8790  0.7030 -1.0360
 1610TIP3    H126245   2.900   2.540   4.380 -0.2410  2.8056  1.4856
 1610TIP3    H226246   2.784   2.507   4.473 -0.0015 -2.3019  0.2659
 1611TIP3   OH226247   5.423   1.499  12.471  0.0128 -0.3131  0.1269
 1611TIP3    H126248   5.336   1.538  12.464  0.0496  0.1869  1.9743
 1611TIP3    H226249   5.408   1.404  12.468 -0.4456 -0.2201 -0.7927
 1612TIP3   OH226250   1.123   3.959  12.921 -0.3587 -0.1655  0.0991
 1612TIP3    H126251   1.160   3.891  12.864  0.0597  0.5747 -0.5331
 1612TIP3    H226252   1.100   4.030  12.861 -3.4125 -0.7927  0.3592
 1613TIP3   OH226253   0.671   6.254  14.401 -0.2257 -0.0742  0.1971
 1613TIP3    H126254   0.759   6.242  14.367 -0.8303  1.5098 -2.1474
 1613TIP3    H226255   0.622   6.178  14.368 -0.2909  0.3128 -0.6177
 1614TIP3   OH226256   0.137   1.143   3.970 -0.4262  0.2027 -0.0735
 1614TIP3    H126257   0.139   1.162   3.876  0.5521  1.2345  0.1272
 1614TIP3    H226258   0.046   1.160   3.996 -0.1752  2.3899 -0.4010
 1615TIP3   OH226259   5.748   5.434   1.803  0.6710 -0.4780 -0.3566
 1615TIP3    H126260   5.717   5.350   1.838 -0.7705 -0.2301 -0.9882
 1615TIP3    H226261   5.792   5.475   1.877  0.1537 -1.1844  0.3706
 1616TIP3   OH226262   4.706   5.720   4.667 -0.3380 -0.2246 -0.1625
 1616TIP3    H126263   4.716   5.644   4.725  0.8983  1.5564  2.1613
 1616TIP3    H226264   4.612   5.732   4.659 -0.5896 -2.5195 -1.4011
 1617TIP3   OH226265   0.016   2.628   5.998 -0.1868  0.7598 -0.2425
 1617TIP3    H126266   0.097   2.637   5.948 -0.8408  2.3554 -1.0959
 1617TIP3    H226267  -0.047   2.590   5.936 -0.4914  0.9263 -0.0407
 1618TIP3   OH226268   4.367   0.229   3.764  0.4070  0.2002  0.4353
 1618TIP3    H126269   4.301   0.188   3.820  0.7486 -1.2350 -0.1665
 1618TIP3    H226270   4.345   0.323   3.766 -1.0718 -0.1270  0.9896
 1619TIP3   OH226271   0.438   1.339   4.771 -0.1797  0.5246 -0.2711
 1619TIP3    H126272   0.502   1.356   4.702 -1.4590  2.5646 -1.0396
 1619TIP3    H226273   0.441   1.244   4.784 -0.2011 -0.0104 -3.4667
 1620TIP3   OH226274   1.029   1.330   2.105  0.1870 -0.3008  0.3748
 1620TIP3    H126275   0.946   1.315   2.060  0.1283  0.4499  0.2254
 1620TIP3    H226276   1.037   1.425   2.110  0.4838 -0.3639  1.4102
 1621TIP3   OH226277   0.926   4.809   5.539 -0.2544 -0.3990  0.5591
 1621TIP3    H126278   1.000   4.832   5.595  2.0785 -2.9859 -1.1865
 1621TIP3    H226279   0.941   4.717   5.517 -3.1795 -0.5592 -1.1704
 1622TIP3   OH226280   0.488   4.354   1.053  0.5554 -0.2652  0.6021
 1622TIP3    H126281   0.428   4.399   0.994  1.5638 -0.1058 -0.3410
 1622TIP3    H226282   0.471   4.393   1.139 -0.9296 -0.4974  0.4332
 1623TIP3   OH226283   3.092   0.127   2.850  0.4714  0.4048 -0.3296
 1623TIP3    H126284   2.997   0.129   2.855  0.4154  1.6961 -1.3518
 1623TIP3    H226285   3.121   0.196   2.910  0.8134 -0.4518  0.5186
 1624TIP3   OH226286   6.772   2.821   5.208  0.3953  0.2836 -0.4172
 1624TIP3    H126287   6.731   2.841   5.123  0.8346  1.4609 -0.3586
 1624TIP3    H226288   6.699   2.817   5.269  0.2234  0.9086 -0.5815
 1625TIP3   OH226289   3.996   4.655  12.257 -0.2941  0.3667  0.2960
 1625TIP3    H126290   4.033   4.697  12.334 -0.6023  1.0744  0.0628
 1625TIP3    H226291   3.902   4.658  12.270 -0.3062 -0.8560  0.5831
 1626TIP3   OH226292   5.492   6.417   0.105  0.3548  0.0562  0.2990
 1626TIP3    H126293   5.540   6.397   0.185  0.0839 -0.3069  0.3769
 1626TIP3    H226294   5.414   6.464   0.134  0.5520  0.4429  0.1960
 1627TIP3   OH226295   5.599   3.117   0.781 -0.0303  0.1106  0.1772
 1627TIP3    H126296   5.617   3.069   0.700  0.1631 -0.8347  0.7616
 1627TIP3    H226297   5.666   3.087   0.842 -0.3476  0.5907  0.7757
 1628TIP3   OH226298   2.756   4.548   2.583  0.3916  0.2260 -0.0396
 1628TIP3    H126299   2.726   4.634   2.612 -0.1284 -0.6431  2.1901
 1628TIP3    H226300   2.696   4.486   2.625  0.1056 -1.2217 -2.4165
 1629TIP3   OH226301   5.993   1.556   0.607 -0.6377 -0.3335  0.2136
 1629TIP3    H126302   6.067   1.568   0.547 -1.9402 -0.4024 -1.4915
 1629TIP3    H226303   5.970   1.645   0.634 -0.9869 -0.1537 -0.6306
 1630TIP3   OH226304   5.653   1.514   4.940 -0.4731  0.2562  0.0934
 1630TIP3    H126305   5.740   1.517   4.900 -0.8496  1.4563 -0.7180
 1630TIP3    H226306   5.606   1.446   4.891 -0.3109  0.3401 -0.1840
 1631TIP3   OH226307   4.820   0.773  12.040  0.3524  0.8680 -0.1910
 1631TIP3    H126308   4.819   0.677  12.044  1.4117  0.8927  1.5996
 1631TIP3    H226309   4.733   0.796  12.006 -1.6165 -0.6498  3.3142
 1632TIP3   OH226310   0.553   3.326   2.272 -0.1801 -0.2878 -0.1048
 1632TIP3    H126311   0.593   3.243   2.300  0.0116  0.1443  0.9416
 1632TIP3    H226312   0.459   3.312   2.283 -0.0774  0.2314  1.9009
 1633TIP3   OH226313   3.659   6.444  14.656  0.0688 -0.2858  0.6387
 1633TIP3    H126314   3.687   6.486  14.575 -0.4914 -0.2192  0.4793
 1633TIP3    H226315   3.580   6.396  14.633 -0.8821  0.8365  1.4358
 1634TIP3   OH226316   0.373   0.113   0.804 -0.2928  0.1369  0.2963
 1634TIP3    H126317   0.292   0.116   0.854 -1.7477  0.4426 -1.9397
 1634TIP3    H226318   0.378   0.022   0.772  1.3077 -0.4249  1.9544
 1635TIP3   OH226319   6.317   6.409  14.040 -0.2025 -0.0922  0.1496
 1635TIP3    H126320   6.379   6.472  14.077 -0.2345  0.1792 -0.2533
 1635TIP3    H226321   6.351   6.391  13.952 -0.9657  0.4535 -0.2733
 1636TIP3   OH226322   0.099   6.048  14.512  0.6570  0.8548 -0.4319
 1636TIP3    H126323   0.109   6.042  14.607 -2.5047  0.3261 -0.0093
 1636TIP3    H226324   0.106   5.958  14.481 -1.4610  0.5475 -0.1917
 1637TIP3   OH226325   6.140   0.506  13.336 -0.7381 -0.6543  0.2189
 1637TIP3    H126326   6.163   0.419  13.368 -0.4817 -0.6341  0.0907
 1637TIP3    H226327   6.049   0.498  13.308 -0.3527 -1.1971 -0.9150
 1638TIP3   OH226328   4.421   2.540  15.897  0.4986 -0.0492  0.8386
 1638TIP3    H126329   4.483   2.586  15.840  0.4639 -2.1514 -1.0010
 1638TIP3    H226330   4.335   2.574  15.871  0.5965  0.0873  0.6923
 1639TIP3   OH226331   3.459   1.899  16.480  0.1775 -0.4503 -0.3214
 1639TIP3    H126332   3.519   1.971  16.460  0.3772 -0.1298  1.2972
 1639TIP3    H226333   3.372   1.935  16.465  0.3044 -0.0673 -0.1590
 1640TIP3   OH226334   4.727   5.072  14.479  0.0279  0.4024  0.3131
 1640TIP3    H126335   4.788   5.078  14.553  0.0110  0.4551  0.3233
 1640TIP3    H226336   4.641   5.082  14.519 -0.0214 -0.2061  0.3670
 1641TIP3   OH226337   6.377   5.863  12.870 -0.5917  0.0299  0.0233
 1641TIP3    H126338   6.341   5.927  12.808  0.0886 -0.1876 -0.6099
 1641TIP3    H226339   6.384   5.782  12.820  1.5809  0.2767 -0.1598
 1642TIP3   OH226340   2.516   3.075   0.700  0.0495 -0.5005  0.0028
 1642TIP3    H126341   2.470   3.028   0.630  1.3610 -0.6150 -0.8084
 1642TIP3    H226342   2.446   3.118   0.750 -0.8953 -0.1155 -1.5795
 1643TIP3   OH226343   4.479   4.902  15.073 -0.0210  0.5479  0.3836
 1643TIP3    H126344   4.525   4.969  15.123 -0.9190  0.4038  1.4548
 1643TIP3    H226345   4.388   4.931  15.072 -0.2697 -0.2215  0.1378
 1644TIP3   OH226346   3.708   4.687   2.567 -0.7326 -0.1561 -0.2316
 1644TIP3    H126347   3.677   4.635   2.492  0.6427 -1.4511  0.0490
 1644TIP3    H226348   3.750   4.763   2.528 -1.2093 -0.1314 -0.7137
 1645TIP3   OH226349   0.242   6.276   1.897  0.0569 -0.7807  0.6052
 1645TIP3    H126350   0.258   6.364   1.931 -0.5294 -0.3636 -0.1461
 1645TIP3    H226351   0.236   6.288   1.802  2.6425 -2.0413  0.1793
 1646TIP3   OH226352   6.130   0.967  13.063  0.5114 -0.2264  0.2157
 1646TIP3    H126353   6.074   1.029  13.016  1.4227  1.7558  1.5838
 1646TIP3    H226354   6.148   0.898  13.000 -0.9085  0.6834 -1.2567
 1647TIP3   OH226355   6.313   6.404  12.149 -0.5060 -0.2060  0.2828
 1647TIP3    H126356   6.311   6.368  12.237 -2.2410 -1.6059 -0.2792
 1647TIP3    H226357   6.396   6.452  12.145 -0.0673 -0.6818  2.4256
 1648TIP3   OH226358   0.644   0.783  12.403  0.9251 -0.0511  0.2127
 1648TIP3    H126359   0.720   0.726  12.410 -0.5775 -2.1751  0.3274
 1648TIP3    H226360   0.607   0.784  12.491  1.3109  1.7445  0.3888
 1649TIP3   OH226361   4.239   3.245   0.051  0.3852 -1.1765 -0.2325
 1649TIP3    H126362   4.185   3.308   0.002  1.3940  0.2055  0.3398
 1649TIP3    H226363   4.225   3.162   0.007 -0.3805 -0.3917 -1.5449
 1650TIP3   OH226364   5.929   4.961  12.981  0.8481  0.5115 -0.0207
 1650TIP3    H126365   5.945   4.870  13.006  1.4934  0.7406  0.4517
 1650TIP3    H226366   5.856   4.989  13.037  2.3873  1.0697  1.8508
 1651TIP3   OH226367   2.485   6.688   2.664 -0.0651  0.5866  0.1315
 1651TIP3    H126368   2.564   6.721   2.705 -0.5559  0.5266  1.1440
 1651TIP3    H226369   2.426   6.667   2.736 -0.4033 -0.9264 -0.5290
 1652TIP3   OH226370   1.593   4.367  11.794  0.0788  0.0999  0.1646
 1652TIP3    H126371   1.688   4.376  11.791  0.1376 -0.7474 -0.7399
 1652TIP3    H226372   1.573   4.361  11.888  1.0903 -1.3251  0.3237
 1653TIP3   OH226373   5.041   0.344  14.882  0.4222  0.1428 -0.0329
 1653TIP3    H126374   5.088   0.265  14.909  0.6276 -0.0459 -0.9067
 1653TIP3    H226375   4.959   0.341  14.931  1.5406  0.7984  1.9921
 1654TIP3   OH226376   2.874   4.355  16.144  0.7464  0.8609  0.1384
 1654TIP3    H126377   2.937   4.419  16.112  1.0097  1.0226  0.9745
 1654TIP3    H226378   2.802   4.407  16.180  0.2053  0.6796 -0.6456
 1655TIP3   OH226379   2.311   6.559   2.380  0.5489 -0.0153  0.6500
 1655TIP3    H126380   2.288   6.526   2.467  0.7140 -0.3978  0.5493
 1655TIP3    H226381   2.300   6.654   2.387 -0.1311 -0.1043  0.8801
 1656TIP3   OH226382   4.513   0.031  14.612 -0.0113 -0.6004  0.4094
 1656TIP3    H126383   4.424   0.024  14.577 -0.3198 -0.5259  1.1485
 1656TIP3    H226384   4.566  -0.025  14.555 -0.2997  0.2919 -0.7666
 1657TIP3   OH226385   3.301   1.203   1.308 -0.2769 -0.1371 -0.0010
 1657TIP3    H126386   3.271   1.147   1.236  0.2850  0.5523 -0.7843
 1657TIP3    H226387   3.308   1.143   1.383 -4.8318 -0.1599  0.6565
 1658TIP3   OH226388   0.679   1.536   2.970 -0.4810 -0.2271 -0.0811
 1658TIP3    H126389   0.654   1.461   3.024 -1.0396  0.5106  0.6901
 1658TIP3    H226390   0.707   1.603   3.032  0.3120  0.1066 -0.7826
 1659TIP3   OH226391   0.767   4.983  16.170 -0.2784 -0.1589  0.6724
 1659TIP3    H126392   0.862   4.982  16.177 -0.1735 -0.9821 -0.4936
 1659TIP3    H226393   0.750   4.985  16.075 -1.4282  2.5456  0.8571
 1660TIP3   OH226394   4.202   3.100  10.715  0.0064 -0.4080 -0.3770
 1660TIP3    H126395   4.256   3.168  10.756  1.1615 -0.4425 -1.7445
 1660TIP3    H226396   4.226   3.104  10.622 -4.4753  1.5898 -1.7122
 1661TIP3   OH226397   2.735   2.906  16.710  0.8732  0.1160 -0.3355
 1661TIP3    H126398   2.759   2.843  16.778  1.5486  0.2402 -0.4453
 1661TIP3    H226399   2.719   2.852  16.633 -0.3473 -0.0617  0.0321
 1662TIP3   OH226400   2.623   0.319   3.601  0.0839  0.0660  0.0542
 1662TIP3    H126401   2.556   0.315   3.670  0.9907 -0.2059  0.9369
 1662TIP3    H226402   2.680   0.244   3.618  0.1027 -0.2540 -1.2554
 1663TIP3   OH226403   0.875   0.854  15.023 -0.2141 -0.3680  0.6023
 1663TIP3    H126404   0.899   0.812  15.106  0.5381 -0.7450  0.1944
 1663TIP3    H226405   0.895   0.789  14.956 -0.9102 -0.0995  0.1260
 1664TIP3   OH226406   3.428   4.910  13.262  0.6213 -0.0682  0.3239
 1664TIP3    H126407   3.349   4.934  13.310 -0.0330 -1.0842 -0.2198
 1664TIP3    H226408   3.424   4.962  13.181  0.0684 -0.7199 -0.0806
 1665TIP3   OH226409   3.844   2.212   1.715  1.1919  0.4708 -0.5890
 1665TIP3    H126410   3.837   2.143   1.649  1.2383  0.9023 -1.0490
 1665TIP3    H226411   3.754   2.224   1.746  1.4070 -0.8918  0.6372
 1666TIP3   OH226412   2.401   1.740   4.603 -0.6073 -0.0274  0.1973
 1666TIP3    H126413   2.486   1.750   4.560  0.6074 -1.3040  2.1331
 1666TIP3    H226414   2.361   1.827   4.599  0.9986  0.7200 -0.3225
 1667TIP3   OH226415   0.728   0.361  13.383 -0.0361 -0.4562  0.3115
 1667TIP3    H126416   0.718   0.348  13.289 -1.5944  0.5125  0.3110
 1667TIP3    H226417   0.734   0.273  13.419  0.5093 -0.8398 -0.6664
 1668TIP3   OH226418   5.681   2.222   2.176  0.5053 -1.2325  0.0996
 1668TIP3    H126419   5.622   2.204   2.250 -0.9681  0.4707 -0.5849
 1668TIP3    H226420   5.623   2.256   2.107  2.3301  0.9345 -0.4667
 1669TIP3   OH226421   0.656   2.171   5.250  0.1087 -0.4912 -0.3818
 1669TIP3    H126422   0.736   2.184   5.301 -0.5774  4.5033 -0.0388
 1669TIP3    H226423   0.679   2.197   5.161 -1.1247  1.5111 -0.1744
 1670TIP3   OH226424   4.504   0.205  13.885 -0.4788  0.5369 -0.0195
 1670TIP3    H126425   4.506   0.155  13.967 -1.4368  2.6421  1.3965
 1670TIP3    H226426   4.532   0.293  13.910  0.0399  1.0458 -2.1666
 1671TIP3   OH226427   0.994   4.053  12.493 -0.3151  1.2199 -0.0519
 1671TIP3    H126428   1.056   4.032  12.422  0.9163 -0.9585  1.5513
 1671TIP3    H226429   0.921   3.993  12.480 -1.4277  2.7039 -1.0036
 1672TIP3   OH226430   1.422   6.583  16.954  0.7799  0.3413  0.2954
 1672TIP3    H126431   1.428   6.601  17.048  0.6745 -0.9858  0.5770
 1672TIP3    H226432   1.465   6.658  16.912 -0.5358  1.7177  1.3158
 1673TIP3   OH226433   0.687   1.316  15.966  0.3115  0.5094  0.0495
 1673TIP3    H126434   0.681   1.234  15.917 -1.2680 -0.4895  1.7789
 1673TIP3    H226435   0.629   1.303  16.041 -0.0067  3.2444  0.3677
 1674TIP3   OH226436   4.824   6.134   0.902  0.3540 -0.1513  0.2405
 1674TIP3    H126437   4.881   6.192   0.952 -0.0750  1.5294 -1.0976
 1674TIP3    H226438   4.788   6.073   0.966  0.5250  1.3234  1.7991
 1675TIP3   OH226439   5.512   3.076   2.495  0.2808 -0.3830 -0.1217
 1675TIP3    H126440   5.419   3.082   2.516  0.2858  0.0262 -0.2106
 1675TIP3    H226441   5.528   3.147   2.432  0.4624 -1.0208 -0.8025
 1676TIP3   OH226442   4.400   0.506   3.327  0.5082  0.1886  0.6312
 1676TIP3    H126443   4.422   0.503   3.420  0.7691 -0.9539  0.5482
 1676TIP3    H226444   4.425   0.420   3.293  1.3368  0.9170 -0.7195
 1677TIP3   OH226445   6.045   4.785  14.811 -0.5053 -0.5058  0.2051
 1677TIP3    H126446   6.064   4.712  14.753 -0.1244  0.1868 -0.5574
 1677TIP3    H226447   5.997   4.745  14.884 -1.8206 -1.2676 -1.0035
 1678TIP3   OH226448   3.821   4.226   2.277  0.9053  0.0283 -0.5901
 1678TIP3    H126449   3.869   4.237   2.195  1.9363  0.0469  0.0032
 1678TIP3    H226450   3.826   4.133   2.296  1.9709  0.2337  0.2102
 1679TIP3   OH226451   3.711   4.542  11.770  0.3814  0.7778 -0.4884
 1679TIP3    H126452   3.693   4.490  11.848  1.2489 -1.2285 -1.5367
 1679TIP3    H226453   3.784   4.599  11.796 -1.0210  2.0234  0.8814
 1680TIP3   OH226454   2.259   1.719  11.146 -0.3355  0.0874 -0.2433
 1680TIP3    H126455   2.277   1.628  11.120  0.6251  0.2954 -0.3388
 1680TIP3    H226456   2.164   1.725  11.145 -0.4620 -1.2276  0.8272
 1681TIP3   OH226457   4.228   3.208   2.020  0.3122 -0.3061 -0.3537
 1681TIP3    H126458   4.244   3.155   1.941 -0.5238  0.9390 -1.4042
 1681TIP3    H226459   4.180   3.150   2.079 -0.4598 -0.7825 -1.4175
 1682TIP3   OH226460   3.197   4.409  12.418 -0.2511 -0.2055 -0.4998
 1682TIP3    H126461   3.247   4.335  12.454  0.3001  0.4485  0.0989
 1682TIP3    H226462   3.215   4.406  12.324 -1.1352 -1.5016 -0.6601
 1683TIP3   OH226463   4.691   5.561  11.529 -0.1410 -0.3212  0.0262
 1683TIP3    H126464   4.662   5.648  11.557 -0.3630 -0.8764  1.6099
 1683TIP3    H226465   4.754   5.579  11.459  1.0162  1.2073  1.3812
 1684TIP3   OH226466   4.741   3.571  15.316 -0.3271 -0.7407  0.2396
 1684TIP3    H126467   4.701   3.484  15.314 -1.1317 -0.4305 -2.6476
 1684TIP3    H226468   4.674   3.627  15.354 -0.1333 -1.2323  1.3295
 1685TIP3   OH226469   3.130   4.323   2.222 -0.4994  0.4526  0.3239
 1685TIP3    H126470   3.182   4.300   2.298 -0.8761  2.3389  1.2044
 1685TIP3    H226471   3.148   4.416   2.207  0.1404  0.0029 -2.3646
 1686TIP3   OH226472   2.408   2.507  12.599 -0.2965  0.1273  0.4406
 1686TIP3    H126473   2.415   2.596  12.635  0.3670  0.0483  0.5084
 1686TIP3    H226474   2.439   2.514  12.509  0.6241 -0.2120  0.7242
 1687TIP3   OH226475   1.847   4.793  12.620  0.1391  0.2679 -0.5359
 1687TIP3    H126476   1.892   4.784  12.536  0.5505 -1.3458 -0.1915
 1687TIP3    H226477   1.763   4.832  12.599  0.6292  0.8055 -1.5603
 1688TIP3   OH226478   6.295   1.891   5.882  0.2463  0.1686 -0.1701
 1688TIP3    H126479   6.327   1.835   5.953 -1.4652 -1.5502 -0.6903
 1688TIP3    H226480   6.302   1.980   5.917  0.2073 -0.5769  1.8573
 1689TIP3   OH226481   3.222   3.429   2.970 -0.3521  0.3539  0.3097
 1689TIP3    H126482   3.272   3.347   2.962 -0.7130  0.2719 -1.3109
 1689TIP3    H226483   3.257   3.485   2.901 -2.5908  0.2326 -1.0176
 1690TIP3   OH226484   3.141   2.057  12.117  0.4665  0.4679 -0.3747
 1690TIP3    H126485   3.148   2.068  12.211  0.2353  0.3043 -0.3383
 1690TIP3    H226486   3.126   2.146  12.083  0.6358  0.5375 -0.2671
 1691TIP3   OH226487   4.366   2.952  13.733  0.4398 -0.1197 -0.0081
 1691TIP3    H126488   4.283   2.922  13.768  1.2255 -1.9815  0.3541
 1691TIP3    H226489   4.355   3.047  13.723 -2.3328 -0.5000 -1.6948
 1692TIP3   OH226490   0.961   6.059  14.958 -0.2090  0.7048 -0.0603
 1692TIP3    H126491   0.978   6.152  14.966 -1.6591  1.2552 -2.3790
 1692TIP3    H226492   1.011   6.031  14.881 -1.6543  0.1457 -0.8399
 1693TIP3   OH226493   1.848   6.452   1.185 -0.1033  0.2421  0.6157
 1693TIP3    H126494   1.879   6.528   1.233 -1.0232  2.1113 -1.5624
 1693TIP3    H226495   1.796   6.488   1.114  1.3425 -2.3239 -1.9464
 1694TIP3   OH226496   5.489   3.968  12.949 -0.1232 -0.2035  0.2438
 1694TIP3    H126497   5.560   3.988  12.888 -0.7708  0.2630 -0.3746
 1694TIP3    H226498   5.410   3.998  12.904 -0.6317 -0.0073  1.2480
 1695TIP3   OH226499   1.696   5.126   3.217 -0.3228 -0.4395 -0.1555
 1695TIP3    H126500   1.680   5.164   3.131  1.6328  2.6825  0.7247
 1695TIP3    H226501   1.618   5.148   3.268 -0.4693 -0.2097 -0.4727
 1696TIP3   OH226502   6.601   2.107  11.521 -0.0519 -0.8041 -0.4824
 1696TIP3    H126503   6.531   2.136  11.580 -2.4499 -1.1298 -2.9715
 1696TIP3    H226504   6.589   2.012  11.514 -1.0252 -0.5732 -2.7963
 1697TIP3   OH226505   5.864   1.353   3.166  0.3605 -0.3046  0.5284
 1697TIP3    H126506   5.831   1.268   3.136  0.0310 -0.7537  2.0885
 1697TIP3    H226507   5.894   1.396   3.086 -0.9429 -1.2325 -0.5093
 1698TIP3   OH226508   0.190   1.849  15.004 -0.2093 -0.3193  0.1100
 1698TIP3    H126509   0.099   1.875  15.021 -0.0981 -1.0504  2.1269
 1698TIP3    H226510   0.183   1.774  14.945 -0.9357 -0.5284  0.4496
 1699TIP3   OH226511   4.019   6.571   0.413  0.4970  0.7134 -0.0460
 1699TIP3    H126512   4.082   6.502   0.433  0.4925 -0.1433 -2.6419
 1699TIP3    H226513   3.949   6.526   0.365 -0.6858  2.1541  0.2422
 1700TIP3   OH226514   3.357   5.360  16.440  0.5494  0.4074 -0.1881
 1700TIP3    H126515   3.423   5.424  16.466  0.0593  1.0546 -0.5172
 1700TIP3    H226516   3.336   5.313  16.521  2.3281 -0.7054 -0.3023
 1701TIP3   OH226517   2.520   2.759  12.682 -0.6231 -0.2812 -0.2801
 1701TIP3    H126518   2.516   2.798  12.594  0.2652  0.8619  0.1552
 1701TIP3    H226519   2.596   2.800  12.722  0.3870 -2.5031  0.2322
 1702TIP3   OH226520   3.302   2.979  11.959  0.0871  0.0777 -0.6138
 1702TIP3    H126521   3.347   2.968  11.875 -0.0070  1.5568 -0.8887
 1702TIP3    H226522   3.251   3.059  11.948 -1.1654 -0.5647  0.3359
 1703TIP3   OH226523   4.247   5.913  12.166  0.1435 -0.1020  0.3901
 1703TIP3    H126524   4.210   5.892  12.081 -0.3968 -1.4836  0.9320
 1703TIP3    H226525   4.268   5.828  12.205  1.0454  0.5283  1.3551
 1704TIP3   OH226526   6.508   1.403  16.796  0.5602 -0.3231 -0.0340
 1704TIP3    H126527   6.415   1.427  16.793  0.7960  0.8031  0.7940
 1704TIP3    H226528   6.526   1.365  16.710 -0.4042  0.4826 -0.6190
 1705TIP3   OH226529   2.161   6.147   1.850  0.3203 -0.2588 -0.2352
 1705TIP3    H126530   2.190   6.179   1.764 -0.3100 -0.1872 -0.4252
 1705TIP3    H226531   2.121   6.062   1.832  0.4324 -0.3708  0.0325
 1706TIP3   OH226532   2.754   3.908  14.591  0.0916 -0.3974  0.6316
 1706TIP3    H126533   2.696   3.868  14.527  0.7756 -1.0448  0.3986
 1706TIP3    H226534   2.699   3.971  14.638 -1.0882 -1.7799  1.1746
 1707TIP3   OH226535   0.656   0.659   1.765  0.5334 -0.6906  0.0075
 1707TIP3    H126536   0.662   0.567   1.793  1.0807 -1.3360 -2.0685
 1707TIP3    H226537   0.709   0.663   1.686  0.5576  1.4575  0.0955
 1708TIP3   OH226538   2.401   3.673   0.437 -0.0626 -0.2544 -0.0948
 1708TIP3    H126539   2.345   3.636   0.368 -0.6861 -1.5108  1.0443
 1708TIP3    H226540   2.443   3.748   0.395 -1.5141 -0.1196 -1.4175
 1709TIP3   OH226541   5.592   1.205  12.299 -0.2560 -0.5981 -0.1970
 1709TIP3    H126542   5.576   1.199  12.394  0.8323  0.3208  0.0634
 1709TIP3    H226543   5.593   1.114  12.270 -0.8534 -0.8887  0.6268
 1710TIP3   OH226544   0.389   3.687   2.544  0.0408 -0.4868 -0.0590
 1710TIP3    H126545   0.405   3.779   2.524 -0.0471  0.0943  2.2804
 1710TIP3    H226546   0.475   3.645   2.535  0.1071 -0.1760 -0.9807
 1711TIP3   OH226547   2.077   4.997   3.460 -0.1618  0.0882  0.2567
 1711TIP3    H126548   2.111   4.938   3.528 -2.0027 -0.0071  1.1395
 1711TIP3    H226549   2.098   5.085   3.491  1.9399 -0.0092 -0.7095
 1712TIP3   OH226550   6.016   0.697   3.429 -0.1975 -0.2905 -0.7159
 1712TIP3    H126551   5.921   0.695   3.420 -0.2270 -1.6214 -0.4044
 1712TIP3    H226552   6.031   0.678   3.522  0.3645  1.1340 -0.4807
 1713TIP3   OH226553   1.230   0.122   3.398  0.4746  0.1428 -0.1180
 1713TIP3    H126554   1.163   0.191   3.402 -0.7618 -1.0283  0.1944
 1713TIP3    H226555   1.232   0.086   3.487 -0.4364 -1.5842 -0.7444
 1714TIP3   OH226556   6.017   0.669   2.063 -0.2621 -0.4555 -0.5600
 1714TIP3    H126557   5.932   0.626   2.067  0.2080 -1.3310  0.2187
 1714TIP3    H226558   6.044   0.661   1.972 -2.0916  2.0029 -1.4141
 1715TIP3   OH226559   0.670   2.126   1.634 -0.5167 -0.1055  0.2102
 1715TIP3    H126560   0.685   2.200   1.692  1.2453  1.0540 -1.6191
 1715TIP3    H226561   0.733   2.060   1.662  1.9495  1.3053 -1.6914
 1716TIP3   OH226562   6.638   2.915   2.478 -0.0391 -0.2840  0.8185
 1716TIP3    H126563   6.560   2.884   2.524 -1.9391  1.5738 -0.9245
 1716TIP3    H226564   6.630   2.879   2.389  2.2033 -1.7150  1.1222
 1717TIP3   OH226565   1.557   2.562  14.627 -0.0058  0.2830 -0.9443
 1717TIP3    H126566   1.589   2.588  14.541  0.4025  0.8391 -0.6318
 1717TIP3    H226567   1.471   2.603  14.633 -0.1967 -0.0715 -1.2377
 1718TIP3   OH226568   3.859   2.432   2.398  0.5909 -0.0551 -0.5816
 1718TIP3    H126569   3.839   2.525   2.390 -0.3249 -0.1964 -0.1229
 1718TIP3    H226570   3.948   2.423   2.364  1.4951  1.3088  1.2714
 1719TIP3   OH226571   0.829   4.070  14.830 -0.4202 -0.0386 -0.0344
 1719TIP3    H126572   0.903   4.013  14.809 -1.2985 -0.9894 -0.6702
 1719TIP3    H226573   0.812   4.054  14.922  0.3519  0.4193  0.1959
 1720TIP3   OH226574   3.173   6.694  11.441  0.2084 -0.5405 -0.2951
 1720TIP3    H126575   3.205   6.642  11.515  1.8262  1.5675  0.6169
 1720TIP3    H226576   3.103   6.748  11.479 -0.8443 -1.3469 -1.0170
 1721TIP3   OH226577   2.618   6.007   0.070  0.5789 -0.1623  0.6401
 1721TIP3    H126578   2.663   5.926   0.093  0.5401 -0.6557 -0.9136
 1721TIP3    H226579   2.579   5.990  -0.016 -1.3129  0.7549  1.2385
 1722TIP3   OH226580   5.726   0.597  15.218  0.3635 -0.6484 -0.0202
 1722TIP3    H126581   5.740   0.526  15.156  0.9926 -0.1443 -0.4737
 1722TIP3    H226582   5.812   0.613  15.256 -0.0307 -1.0091  1.0556
 1723TIP3   OH226583   5.078   4.455  12.458  0.0275  0.5110  0.3229
 1723TIP3    H126584   5.173   4.450  12.461  0.1954  0.3237 -2.4662
 1723TIP3    H226585   5.049   4.364  12.443 -0.2811  0.9170 -2.0233
 1724TIP3   OH226586   0.504   2.983   3.729 -0.4062 -0.0991  0.2989
 1724TIP3    H126587   0.542   2.911   3.779  0.8872  0.1262 -0.3071
 1724TIP3    H226588   0.446   2.942   3.665 -0.6972 -0.5021  0.8185
 1725TIP3   OH226589   1.482   1.918   0.250  0.1675 -0.1137 -0.4698
 1725TIP3    H126590   1.482   1.994   0.308  0.4262  0.4308 -1.1784
 1725TIP3    H226591   1.574   1.892   0.243  0.0977 -0.4007 -0.3546
 1726TIP3   OH226592   5.910   3.554   5.927  0.1406  0.6149 -0.0784
 1726TIP3    H126593   5.916   3.574   5.834  0.4139 -0.5391 -0.3221
 1726TIP3    H226594   5.992   3.589   5.964  0.9111 -0.5952 -0.6074
 1727TIP3   OH226595   2.912   6.555  14.249  0.5794  0.0427  0.0815
 1727TIP3    H126596   2.846   6.540  14.317  0.5979  1.2007  0.3824
 1727TIP3    H226597   2.988   6.588  14.297  0.2639  1.8264 -0.5386
 1728TIP3   OH226598   3.454   3.859   4.949 -0.1862  0.4427  0.4558
 1728TIP3    H126599   3.462   3.767   4.974  0.0850  0.5754  0.8543
 1728TIP3    H226600   3.517   3.905   5.004 -0.6831  0.9349  0.6231
 1729TIP3   OH226601   3.531   4.130   4.313 -0.1722  0.3693 -0.5010
 1729TIP3    H126602   3.623   4.126   4.340 -0.4421 -1.1516  0.2890
 1729TIP3    H226603   3.509   4.041   4.288 -1.3571  0.7782 -0.9986
 1730TIP3   OH226604   0.167   0.533  11.023 -0.0809 -0.4659  0.6014
 1730TIP3    H126605   0.092   0.556  11.079 -0.3596  1.6360 -0.5474
 1730TIP3    H226606   0.133   0.466  10.964 -0.5074 -0.8625  1.2804
 1731TIP3   OH226607   3.175   0.768   0.005  0.3362  0.1899 -0.1216
 1731TIP3    H126608   3.210   0.733  -0.077  2.6030  0.8817  0.4655
 1731TIP3    H226609   3.137   0.853  -0.020 -0.4085 -0.2992 -0.6865
 1732TIP3   OH226610   1.677   1.526   5.090  0.1558  0.4328 -0.3366
 1732TIP3    H126611   1.602   1.546   5.034 -0.3503  0.1157  0.2136
 1732TIP3    H226612   1.642   1.467   5.157  1.2426 -1.0185 -0.9885
 1733TIP3   OH226613   1.583   4.617  14.862 -0.3543  0.8393 -0.9077
 1733TIP3    H126614   1.658   4.594  14.807  0.4383 -0.3029  0.5911
 1733TIP3    H226615   1.517   4.551  14.842  0.7933 -1.0563  1.1298
 1734TIP3   OH226616   3.123   1.412  16.510 -0.7547  0.9461  0.1756
 1734TIP3    H126617   3.173   1.466  16.571 -0.9539 -0.2563  1.4709
 1734TIP3    H226618   3.187   1.349  16.477 -0.7527  1.3019 -0.4982
 1735TIP3   OH226619   3.029   4.788  16.986  0.1537  0.5478  0.6236
 1735TIP3    H126620   2.958   4.753  17.039  0.3424 -0.6604  0.1332
 1735TIP3    H226621   3.098   4.811  17.049 -0.7407  1.9797  1.1212
 1736TIP3   OH226622   6.542   4.247   2.108 -0.2756  0.6352  0.4815
 1736TIP3    H126623   6.567   4.269   2.018  0.1600  3.2036  1.1674
 1736TIP3    H226624   6.504   4.159   2.101  1.9474 -0.2948 -1.8217
 1737TIP3   OH226625   3.475   5.650   0.272  0.0355  0.6326  0.3029
 1737TIP3    H126626   3.497   5.616   0.359 -1.7094 -1.8498 -0.1176
 1737TIP3    H226627   3.380   5.658   0.273 -0.0307  0.4019 -1.4048
 1738TIP3   OH226628   0.299   1.721  14.128 -0.2920  0.0994 -0.2957
 1738TIP3    H126629   0.381   1.764  14.150  0.9110 -2.1651 -0.0249
 1738TIP3    H226630   0.294   1.727  14.033  0.8624 -0.8072 -0.4406
 1739TIP3   OH226631   2.926   4.532  11.199  0.0554 -0.1519  0.4705
 1739TIP3    H126632   2.981   4.602  11.164 -0.9236  0.5625  0.3415
 1739TIP3    H226633   2.924   4.549  11.294  2.4154 -1.8809  0.9262
 1740TIP3   OH226634   5.570   5.847  11.895  0.1479  0.1552  0.0019
 1740TIP3    H126635   5.493   5.803  11.859  0.8891 -1.6569  0.5180
 1740TIP3    H226636   5.638   5.834  11.828  0.1428  1.3327 -0.2450
 1741TIP3   OH226637   0.734   1.618  15.595 -0.0110 -0.7101 -0.7654
 1741TIP3    H126638   0.708   1.692  15.540 -0.8100 -0.4947 -0.1122
 1741TIP3    H226639   0.663   1.555  15.585  0.1786 -0.9649 -0.5225
 1742TIP3   OH226640   0.768   3.882   5.422  0.3746  0.1587  0.4206
 1742TIP3    H126641   0.743   3.953   5.482 -1.7303 -1.2435  1.3036
 1742TIP3    H226642   0.806   3.815   5.479  2.2529  0.4674 -0.3941
 1743TIP3   OH226643   3.971   1.133   6.413 -0.1451 -0.0821  0.2223
 1743TIP3    H126644   3.957   1.061   6.474 -1.6408  0.2289  0.2963
 1743TIP3    H226645   3.923   1.207   6.453 -1.0251  0.1678 -1.2241
 1744TIP3   OH226646   4.101   1.695   6.909  0.7883  0.6911 -0.2934
 1744TIP3    H126647   4.007   1.699   6.892  0.4337 -0.8543  0.9973
 1744TIP3    H226648   4.142   1.723   6.827 -0.7872  0.2144 -1.2891
 1745TIP3   OH226649   6.686   3.184   4.422  0.4198 -0.0523 -0.2045
 1745TIP3    H126650   6.628   3.193   4.347 -0.5434  1.3687  0.6766
 1745TIP3    H226651   6.762   3.137   4.388 -0.3878 -0.2325 -1.8368
 1746TIP3   OH226652   5.020   3.955   5.087  0.9300 -0.3033 -0.9179
 1746TIP3    H126653   5.004   4.026   5.024  0.5579  1.6064  1.2047
 1746TIP3    H226654   5.099   3.981   5.134  0.3763 -0.8937  0.3974
 1747TIP3   OH226655   1.320   0.672   1.866 -0.2016  0.1052  0.3610
 1747TIP3    H126656   1.282   0.680   1.779  0.1648 -0.5701  0.1336
 1747TIP3    H226657   1.407   0.711   1.858 -0.3458  0.4777  0.5548
 1748TIP3   OH226658   1.284   3.704  16.243  0.1392 -0.4117 -0.1633
 1748TIP3    H126659   1.274   3.799  16.254 -2.2149 -0.4449 -1.3800
 1748TIP3    H226660   1.203   3.668  16.279  0.5562 -1.8851 -0.6620
 1749TIP3   OH226661   1.843   6.531   5.713  0.8357  0.9124 -0.4176
 1749TIP3    H126662   1.843   6.625   5.696 -0.8033  1.3658  1.7782
 1749TIP3    H226663   1.924   6.515   5.761  0.0500  1.6416  1.1958
 1750TIP3   OH226664   6.243   2.956  12.939  0.0410  0.4931 -0.1820
 1750TIP3    H126665   6.278   2.942  13.028  0.0825  1.6806  0.0084
 1750TIP3    H226666   6.150   2.974  12.953 -0.1862 -0.3840 -0.4910
 1751TIP3   OH226667   4.422   2.501   3.032  0.5144  0.2788  0.0539
 1751TIP3    H126668   4.388   2.481   3.119  1.1887  1.0242  0.5011
 1751TIP3    H226669   4.344   2.500   2.976  0.3734 -2.8679  0.1172
 1752TIP3   OH226670   4.801   1.675   4.592 -0.9339 -0.6755  0.3861
 1752TIP3    H126671   4.766   1.621   4.664  0.6367 -3.1888 -0.6013
 1752TIP3    H226672   4.747   1.651   4.516 -1.3290  0.5030  0.2787
 1753TIP3   OH226673   6.634   3.780  15.338 -0.1682 -0.3612 -0.6068
 1753TIP3    H126674   6.630   3.875  15.351 -1.1373 -0.6065  1.3525
 1753TIP3    H226675   6.718   3.754  15.377 -1.1844 -0.5986  1.5420
 1754TIP3   OH226676   5.881   4.975   2.973 -0.4792 -0.6275 -0.8339
 1754TIP3    H126677   5.875   5.070   2.964  2.3589 -0.3429 -0.5297
 1754TIP3    H226678   5.864   4.942   2.884  0.1797  0.3096 -1.3286
 1755TIP3   OH226679   0.582   6.682   1.540 -0.3211  0.1935 -0.5317
 1755TIP3    H126680   0.556   6.590   1.552  0.3097 -0.2039 -2.0092
 1755TIP3    H226681   0.677   6.682   1.551 -0.3889  0.8155  0.1603
 1756TIP3   OH226682   3.612   5.681  12.971 -0.0694 -0.1912  0.4819
 1756TIP3    H126683   3.527   5.638  12.982  0.2870 -0.8235  0.8349
 1756TIP3    H226684   3.591   5.766  12.932 -0.8178 -0.5441  0.0982
 1757TIP3   OH226685   1.703   6.258  17.003 -0.0554 -0.2934 -0.4336
 1757TIP3    H126686   1.657   6.187  17.047 -1.6891  0.3765 -0.9790
 1757TIP3    H226687   1.740   6.311  17.074 -0.3731 -0.6776  0.0233
 1758TIP3   OH226688   5.441   5.027   5.341  0.1732  0.1749 -0.2143
 1758TIP3    H126689   5.512   5.071   5.387  0.0136 -1.3198  1.6112
 1758TIP3    H226690   5.451   4.934   5.365  1.2624 -1.1699 -4.7829
 1759TIP3   OH226691   6.686   4.421   0.589  0.0990  0.1483  0.6538
 1759TIP3    H126692   6.706   4.512   0.567 -1.2085 -0.0288 -1.5689
 1759TIP3    H226693   6.772   4.378   0.591  0.5599  0.8195 -1.4606
 1760TIP3   OH226694   1.022   3.786  15.518 -0.4705  0.4343  0.0390
 1760TIP3    H126695   0.966   3.750  15.586 -1.7890 -0.5474 -1.4924
 1760TIP3    H226696   0.970   3.778  15.438  1.2027  1.1039 -1.1645
 1761TIP3   OH226697   4.445   4.008  13.309  0.0580 -0.6318  0.1802
 1761TIP3    H126698   4.419   4.046  13.226 -0.1758  0.6573  0.8172
 1761TIP3    H226699   4.395   3.926  13.315  1.2444 -1.5602 -1.6250
 1762TIP3   OH226700   5.826   4.006  11.435  0.3135 -0.0564  0.1194
 1762TIP3    H126701   5.839   3.941  11.504  0.7942  1.0744  1.1284
 1762TIP3    H226702   5.900   4.066  11.444  0.2165  0.2912 -1.1913
 1763TIP3   OH226703   2.866   4.824  15.587  0.6347 -0.7431  1.0403
 1763TIP3    H126704   2.870   4.877  15.508  1.1114 -0.6248  1.1456
 1763TIP3    H226705   2.910   4.877  15.654  2.3633 -1.8357  0.8248
 1764TIP3   OH226706   3.061   3.297  12.314 -0.0106  0.2752 -0.5415
 1764TIP3    H126707   2.999   3.229  12.284  0.1385 -0.6515  1.1309
 1764TIP3    H226708   3.088   3.267  12.400 -0.5686  2.8978  0.6265
 1765TIP3   OH226709   6.205   6.747  13.439 -0.5574  0.1958 -0.4134
 1765TIP3    H126710   6.194   6.679  13.506 -3.1756  0.6987 -0.2308
 1765TIP3    H226711   6.258   6.815  13.482 -2.6241  0.7486  1.4238
 1766TIP3   OH226712   2.182   1.258  17.034 -0.4315 -0.1450  0.1046
 1766TIP3    H126713   2.125   1.307  17.093 -0.4886 -1.7595  1.4724
 1766TIP3    H226714   2.171   1.167  17.061 -0.5149 -0.9630 -2.4860
 1767TIP3   OH226715   3.567   3.322   2.920  0.3944  0.1567 -0.1323
 1767TIP3    H126716   3.564   3.305   2.826  0.8345  1.4036 -0.3918
 1767TIP3    H226717   3.475   3.322   2.947  0.3044 -1.0137 -0.3996
 1768TIP3   OH226718   2.805   0.884   4.872  0.4236  0.0548  0.1986
 1768TIP3    H126719   2.771   0.816   4.814 -0.3656 -1.0097  1.8430
 1768TIP3    H226720   2.829   0.838   4.953  0.3066  1.6553  1.2060
 1769TIP3   OH226721   2.396   2.255  15.909 -0.0803  0.3509 -0.6759
 1769TIP3    H126722   2.439   2.177  15.874  1.0954 -0.1533  1.6553
 1769TIP3    H226723   2.468   2.313  15.933 -0.6776  0.2272  1.6992
 1770TIP3   OH226724   3.970   4.451  14.604 -0.0447  0.4233  0.6626
 1770TIP3    H126725   3.878   4.428  14.590  0.1519  0.1864 -0.3161
 1770TIP3    H226726   3.998   4.396  14.677 -0.7290  0.6532  1.1107
 1771TIP3   OH226727   6.199   2.719   1.314 -0.5623  0.1537 -0.2789
 1771TIP3    H126728   6.234   2.799   1.353 -0.5871 -0.7465  1.7107
 1771TIP3    H226729   6.243   2.713   1.229  0.1589  1.7624 -0.0597
 1772TIP3   OH226730   1.924   1.359  17.138  0.4968 -0.2859 -0.0002
 1772TIP3    H126731   1.920   1.312  17.221  0.3086  0.4956  0.4401
 1772TIP3    H226732   1.854   1.424  17.144  2.0398  1.4235  0.2504
 1773TIP3   OH226733   4.197   0.286   0.204 -0.8730 -0.2744 -0.6626
 1773TIP3    H126734   4.256   0.250   0.269 -0.4817 -0.5988 -1.1955
 1773TIP3    H226735   4.140   0.213   0.179 -1.0995 -0.1218 -0.6039
 1774TIP3   OH226736   2.674   2.315   6.342  0.2348 -0.2029  0.0832
 1774TIP3    H126737   2.734   2.303   6.416  0.4455 -0.6652 -0.1592
 1774TIP3    H226738   2.610   2.378   6.374  0.0046 -0.8127  0.8547
 1775TIP3   OH226739   2.485   3.104  12.854  0.1929 -0.6394  0.4314
 1775TIP3    H126740   2.482   3.189  12.810  0.4186 -0.5659  0.5583
 1775TIP3    H226741   2.566   3.064  12.823  0.8718 -0.1652  1.5529
 1776TIP3   OH226742   4.824   0.809   0.344  0.1899 -0.6829  0.1236
 1776TIP3    H126743   4.825   0.903   0.327  1.6265 -0.8431 -0.9347
 1776TIP3    H226744   4.752   0.796   0.405  1.2716  1.3989  1.9977
 1777TIP3   OH226745   1.278   5.707   5.223 -0.3871 -0.4063  0.2450
 1777TIP3    H126746   1.244   5.776   5.279  0.7482 -0.2635  0.7774
 1777TIP3    H226747   1.363   5.739   5.194  0.3934 -1.7881  0.9065
 1778TIP3   OH226748   0.697   6.011  16.567 -0.2990 -0.0988  0.9753
 1778TIP3    H126749   0.683   6.104  16.586 -2.3047  0.8613 -3.7536
 1778TIP3    H226750   0.788   5.996  16.593  0.1467  3.1744  1.8815
 1779TIP3   OH226751   6.111   3.515  14.967 -0.4429  0.1455  0.2233
 1779TIP3    H126752   6.056   3.437  14.974 -1.4104  0.5852 -1.8317
 1779TIP3    H226753   6.095   3.562  15.049  1.5009 -2.5275  2.3405
 1780TIP3   OH226754   4.045   0.271   5.749  0.9886 -0.0403 -0.2873
 1780TIP3    H126755   4.029   0.248   5.658  1.3603  0.6715 -0.5425
 1780TIP3    H226756   4.039   0.366   5.751 -1.5923 -0.1557  0.9563
 1781TIP3   OH226757   3.326   2.873   1.854  0.0150 -0.0324 -0.0037
 1781TIP3    H126758   3.270   2.936   1.899  1.1666  0.2512  1.0745
 1781TIP3    H226759   3.289   2.868   1.765 -2.4263 -0.7556  0.9573
 1782TIP3   OH226760   4.671   5.392  14.224  0.4118 -0.4557 -0.4251
 1782TIP3    H126761   4.587   5.410  14.181 -1.0453 -1.9763  1.5534
 1782TIP3    H226762   4.674   5.454  14.296 -0.6359 -2.3845  1.4045
 1783TIP3   OH226763   4.381   3.005  16.822  0.4656 -0.3060 -0.3399
 1783TIP3    H126764   4.409   2.919  16.792 -0.5907  0.0997 -2.6279
 1783TIP3    H226765   4.288   2.996  16.839  0.1747  0.5736 -1.3879
 1784TIP3   OH226766   5.254   2.578   3.000  0.1831 -0.2935 -0.1935
 1784TIP3    H126767   5.249   2.664   3.043  1.0320  1.1318 -2.6995
 1784TIP3    H226768   5.171   2.569   2.954  1.3837  0.9724 -2.8405
 1785TIP3   OH226769   4.774   0.585  11.789 -0.8772  0.9683 -0.5874
 1785TIP3    H126770   4.717   0.508  11.784 -1.4931  1.1912  1.6872
 1785TIP3    H226771   4.858   0.550  11.818 -0.1783  0.8163 -2.6231
 1786TIP3   OH226772   3.023   2.791   5.082 -0.7883 -0.7092  0.1975
 1786TIP3    H126773   3.092   2.724   5.087 -0.1549 -0.2553 -1.5788
 1786TIP3    H226774   2.954   2.750   5.029  0.6604  0.7650 -3.1220
 1787TIP3   OH226775   1.598   2.006  11.864  0.1614 -0.1982 -0.1996
 1787TIP3    H126776   1.529   2.073  11.862  0.3483  0.0040  0.0057
 1787TIP3    H226777   1.677   2.055  11.885  0.2005 -0.5720  0.5425
 1788TIP3   OH226778   6.312   5.015  13.285 -0.1402 -0.2824  0.1493
 1788TIP3    H126779   6.250   4.988  13.353 -1.2130  2.0713  0.2056
 1788TIP3    H226780   6.261   5.073  13.228  1.3469 -0.4008 -1.3629
 1789TIP3   OH226781   6.676   5.211   5.956 -0.1617 -0.9103  0.4534
 1789TIP3    H126782   6.692   5.139   5.895 -0.0203 -0.3906 -0.1266
 1789TIP3    H226783   6.735   5.280   5.928 -0.9570 -0.2292  0.4357
 1790TIP3   OH226784   2.691   1.023   5.665 -0.6374 -0.5254  0.7795
 1790TIP3    H126785   2.620   0.993   5.722  0.9822  0.0721  3.2851
 1790TIP3    H226786   2.769   1.017   5.720  0.9605  0.7074 -1.2312
 1791TIP3   OH226787   2.977   2.593   0.025 -0.4644 -0.3211 -0.0125
 1791TIP3    H126788   3.056   2.566   0.073 -1.4284 -0.6339  1.4721
 1791TIP3    H226789   2.963   2.523  -0.038  1.3338  0.5284 -1.4634
 1792TIP3   OH226790   5.039   4.204  16.600 -0.0496 -0.1981 -0.1775
 1792TIP3    H126791   5.110   4.184  16.660  0.8926 -2.7189 -1.9576
 1792TIP3    H226792   4.959   4.180  16.648  0.1987  2.3137  1.6974
 1793TIP3   OH226793   0.044   1.182  16.099 -0.0977  0.2290  0.1875
 1793TIP3    H126794   0.080   1.155  16.015 -0.4766  1.5368 -0.4135
 1793TIP3    H226795   0.007   1.102  16.136  1.3176 -0.6607 -0.2241
 1794TIP3   OH226796   6.081   4.014  14.359  0.3272 -0.2878 -0.2148
 1794TIP3    H126797   6.020   4.075  14.401 -1.1580 -0.6784 -1.6949
 1794TIP3    H226798   6.072   4.032  14.265  1.2672 -1.5041 -0.5653
 1795TIP3   OH226799   1.599   6.231  13.700  0.2948 -0.4029 -0.2842
 1795TIP3    H126800   1.584   6.319  13.734  0.8095  0.0971 -1.2833
 1795TIP3    H226801   1.633   6.246  13.611 -3.0078 -1.6467 -1.8929
 1796TIP3   OH226802   2.670   0.373  11.638  0.2202 -0.1445  0.2528
 1796TIP3    H126803   2.636   0.299  11.689 -0.2264 -1.1638 -1.4194
 1796TIP3    H226804   2.634   0.451  11.680 -1.1995 -1.0207  0.7155
 1797TIP3   OH226805   6.528   0.534   1.191  0.2203  0.3898  0.1905
 1797TIP3    H126806   6.468   0.605   1.214 -1.5173 -0.3415 -1.7822
 1797TIP3    H226807   6.546   0.489   1.274 -4.0572 -0.9030  0.6339
 1798TIP3   OH226808   2.804   1.636   1.268  0.1577  0.4807  0.0271
 1798TIP3    H126809   2.860   1.559   1.258  1.2764  0.6774  3.4789
 1798TIP3    H226810   2.716   1.600   1.277  0.4829 -0.2934  0.1985
 1799TIP3   OH226811   6.764   0.617   4.408 -0.3674  0.3134  0.2821
 1799TIP3    H126812   6.827   0.555   4.445 -0.3608  1.4238  2.2641
 1799TIP3    H226813   6.801   0.703   4.429 -0.1263  1.0961 -2.8090
 1800TIP3   OH226814   1.672   2.400  11.142  0.7608  0.6204 -0.1708
 1800TIP3    H126815   1.711   2.485  11.165  0.0801  0.5517  1.3830
 1800TIP3    H226816   1.596   2.423  11.089 -0.4949  1.1663  1.7479
 1801TIP3   OH226817   3.035   4.444   0.193 -0.1283 -0.1307  0.1838
 1801TIP3    H126818   2.940   4.450   0.195 -0.1759 -0.8858  1.5565
 1801TIP3    H226819   3.061   4.491   0.113 -1.5503  1.3213  0.5220
 1802TIP3   OH226820   2.254   6.765  14.135  0.2958 -1.0650 -0.1126
 1802TIP3    H126821   2.167   6.726  14.128  0.2952 -1.9580  3.3437
 1802TIP3    H226822   2.305   6.703  14.186  2.5927  0.0751 -0.8658
 1803TIP3   OH226823   2.415   0.378  13.685  0.5720 -0.0742 -0.1269
 1803TIP3    H126824   2.395   0.458  13.637 -0.6340 -0.5597 -0.4677
 1803TIP3    H226825   2.410   0.404  13.777  0.5429  0.3195 -0.2367
 1804TIP3   OH226826   2.522   3.482  14.270  0.0983  0.0976  0.5200
 1804TIP3    H126827   2.517   3.554  14.206 -3.4285  0.5805  1.1518
 1804TIP3    H226828   2.570   3.520  14.344 -0.5073  1.3895  0.2896
 1805TIP3   OH226829   4.352   2.948  15.941 -0.5143  0.1695  0.3098
 1805TIP3    H126830   4.272   3.001  15.931 -1.7419 -1.7412 -0.5924
 1805TIP3    H226831   4.324   2.873  15.994  0.4796 -0.9295 -0.6741
 1806TIP3   OH226832   5.754   6.071   6.704  0.6376  0.2032  0.3023
 1806TIP3    H126833   5.825   6.011   6.682  1.2026  0.6698  0.8144
 1806TIP3    H226834   5.795   6.157   6.706 -0.0780  0.5591 -0.0088
 1807TIP3   OH226835   4.985   2.254   4.765  0.5898 -0.0763  0.0286
 1807TIP3    H126836   5.037   2.332   4.785  0.9317 -0.7939  2.1968
 1807TIP3    H226837   5.040   2.181   4.794 -0.4092 -1.0351 -0.4403
 1808TIP3   OH226838   0.250   0.404   2.166 -0.1600  0.0230 -0.1234
 1808TIP3    H126839   0.224   0.321   2.208  1.8030  0.5076  2.2989
 1808TIP3    H226840   0.178   0.464   2.184 -0.9031 -0.7287 -0.5317
 1809TIP3   OH226841   1.020   4.087  11.163 -0.3107  0.1682  0.0010
 1809TIP3    H126842   1.000   4.134  11.244  1.8532  1.2107 -0.0024
 1809TIP3    H226843   1.048   4.001  11.192 -2.2356 -0.4650  0.1376
 1810TIP3   OH226844   0.049   6.662  12.636 -0.0215 -0.6086 -0.0539
 1810TIP3    H126845   0.068   6.731  12.699  0.6394 -0.0269 -0.8731
 1810TIP3    H226846  -0.027   6.616  12.673  1.9545 -2.0419  2.5943
 1811TIP3   OH226847   6.525   0.709   5.394  0.0464  0.0994 -0.0784
 1811TIP3    H126848   6.495   0.663   5.472  2.2907 -0.6360  0.4403
 1811TIP3    H226849   6.536   0.640   5.329  0.9354  0.2579 -0.1139
 1812TIP3   OH226850   2.381   5.982  12.980  0.0775  0.0013  0.8390
 1812TIP3    H126851   2.330   6.063  12.992 -0.8526 -0.7997  2.6915
 1812TIP3    H226852   2.459   5.996  13.033 -0.2267 -0.4009  1.4096
 1813TIP3   OH226853   5.276   3.072  15.685  0.0952 -0.5333  0.2838
 1813TIP3    H126854   5.357   3.023  15.671 -0.3248 -1.3947  0.8054
 1813TIP3    H226855   5.245   3.045  15.771  0.1257  1.0650  0.8236
 1814TIP3   OH226856   1.569   5.753   1.833 -0.4448 -0.1224  0.2730
 1814TIP3    H126857   1.519   5.797   1.901 -0.4487  1.6468 -0.8235
 1814TIP3    H226858   1.538   5.662   1.836 -1.7982  0.3411  1.3662
 1815TIP3   OH226859   3.962   0.168   3.253 -0.0298 -0.5226  0.0616
 1815TIP3    H126860   3.957   0.159   3.348 -1.6514 -0.0531  0.0545
 1815TIP3    H226861   3.992   0.258   3.239 -0.0985 -0.4861  0.1426
 1816TIP3   OH226862   3.665   3.035   4.984 -0.4877 -0.0877 -0.1338
 1816TIP3    H126863   3.650   2.987   4.903  1.7032 -0.1869 -0.5384
 1816TIP3    H226864   3.626   2.980   5.052 -0.9648 -0.7822 -0.9456
 1817TIP3   OH226865   6.273   4.522   6.423  0.0451 -0.2293  0.3487
 1817TIP3    H126866   6.329   4.582   6.472 -0.7249 -0.4566  1.5377
 1817TIP3    H226867   6.331   4.451   6.397  0.3748 -0.3126  1.2998
 1818TIP3   OH226868   4.075   6.126  11.946 -0.5236 -0.2491 -0.0614
 1818TIP3    H126869   4.105   6.041  11.915  0.5712  0.5854 -1.3829
 1818TIP3    H226870   4.078   6.119  12.041 -1.7753 -2.1189 -0.1077
 1819TIP3   OH226871   3.930   2.843  16.380  0.1063  0.1356  0.5519
 1819TIP3    H126872   3.997   2.795  16.429  0.4494  0.4818  0.4312
 1819TIP3    H226873   3.980   2.900  16.321 -0.3000  0.0314  0.0999
 1820TIP3   OH226874   4.979   6.705   5.603 -0.3120 -0.1863 -0.1620
 1820TIP3    H126875   4.966   6.668   5.515  0.7528  0.5109 -0.6320
 1820TIP3    H226876   4.905   6.765   5.614 -0.8831 -0.8636 -0.2571
 1821TIP3   OH226877   6.663   6.145  15.898 -0.4367 -0.2477  0.5692
 1821TIP3    H126878   6.721   6.220  15.911 -1.0371  0.2038  0.7210
 1821TIP3    H226879   6.678   6.090  15.975 -3.0651  1.8126  2.7564
 1822TIP3   OH226880   3.726   4.766  14.409 -0.4662 -0.4871 -0.2255
 1822TIP3    H126881   3.799   4.803  14.459 -0.2016  0.3920 -1.2340
 1822TIP3    H226882   3.764   4.689  14.366 -0.2114 -0.2176 -0.4908
 1823TIP3   OH226883   0.137   5.782   6.041 -0.0324  0.8003  0.0149
 1823TIP3    H126884   0.168   5.800   6.130  1.3531  0.4674 -0.3849
 1823TIP3    H226885   0.067   5.718   6.052  0.4578  0.3987  0.8245
 1824TIP3   OH226886   1.925   0.455   3.386  0.1975  0.1864 -0.5732
 1824TIP3    H126887   1.958   0.366   3.377  0.6504  0.3647 -0.6980
 1824TIP3    H226888   1.994   0.502   3.433 -0.2448  0.3542 -0.0750
 1825TIP3   OH226889   1.162   0.132  12.086 -0.1360 -0.6253  0.0117
 1825TIP3    H126890   1.228   0.170  12.144  1.7967 -0.2806 -2.2885
 1825TIP3    H226891   1.212   0.090  12.016 -2.3503 -0.4197 -1.8120
 1826TIP3   OH226892   5.584   1.045   6.025  0.2765 -0.2475 -0.2797
 1826TIP3    H126893   5.603   1.138   6.020 -1.6035  0.1112 -1.8836
 1826TIP3    H226894   5.513   1.039   6.090  1.4072 -0.7834  0.9507
 1827TIP3   OH226895   3.989   5.976   4.013 -0.7355  0.2899  0.0954
 1827TIP3    H126896   4.036   6.017   4.086  0.9122 -0.8523 -0.2625
 1827TIP3    H226897   3.946   6.049   3.968  0.9211  1.4585  0.3008
 1828TIP3   OH226898   6.122   4.016  12.347  0.0321  0.1996 -0.4395
 1828TIP3    H126899   6.087   3.929  12.366  0.5850  0.3487  1.4852
 1828TIP3    H226900   6.184   4.002  12.275 -0.4835 -0.8411 -0.7058
 1829TIP3   OH226901   4.373   4.610   3.607 -0.2484 -0.6377 -0.4532
 1829TIP3    H126902   4.465   4.636   3.601 -0.5535  1.3527  1.8896
 1829TIP3    H226903   4.363   4.578   3.696 -1.8115 -1.0595 -0.7474
 1830TIP3   OH226904   5.449   4.204   1.347  0.1011 -0.4325  0.2875
 1830TIP3    H126905   5.427   4.140   1.415 -1.1993  0.7614  1.0630
 1830TIP3    H226906   5.444   4.289   1.391  1.3835  0.2551 -0.8053
 1831TIP3   OH226907   2.694   6.029   4.115 -0.8981 -0.4238 -1.1263
 1831TIP3    H126908   2.612   6.071   4.090 -1.1015 -1.5235 -2.3753
 1831TIP3    H226909   2.762   6.092   4.090 -1.3373  1.3212  1.5627
 1832TIP3   OH226910   0.863   3.623   3.493 -0.9780  0.1121  0.0387
 1832TIP3    H126911   0.838   3.686   3.561 -0.1403  1.0617 -0.5038
 1832TIP3    H226912   0.783   3.572   3.478 -1.5163  0.6597  0.8963
 1833TIP3   OH226913   4.048   2.075   0.438 -0.3594 -0.2030  0.2605
 1833TIP3    H126914   4.043   2.010   0.509  2.9753 -1.9599 -0.8984
 1833TIP3    H226915   4.125   2.128   0.459 -0.5867  0.6649 -0.9829
 1834TIP3   OH226916   3.978   4.258  13.207  0.2408 -0.5539 -0.3694
 1834TIP3    H126917   3.914   4.299  13.264  2.6759  0.5275  1.7946
 1834TIP3    H226918   4.060   4.305  13.224  2.0059 -2.8867 -1.7355
 1835TIP3   OH226919   1.767   3.562   3.969  0.3200 -0.3246 -0.1997
 1835TIP3    H126920   1.773   3.590   4.060 -1.6805 -2.6067  0.7138
 1835TIP3    H226921   1.858   3.558   3.939  0.9367  2.2505  1.0265
 1836TIP3   OH226922   1.322   5.578   4.739  0.0752  0.2292 -0.4042
 1836TIP3    H126923   1.416   5.565   4.726  0.2356 -0.3161  1.0774
 1836TIP3    H226924   1.315   5.671   4.760 -0.0363  0.8135 -2.7933
 1837TIP3   OH226925   3.578   1.275  10.476 -0.1311 -0.5263 -0.3632
 1837TIP3    H126926   3.504   1.265  10.536 -1.4149  2.8460 -1.1601
 1837TIP3    H226927   3.562   1.210  10.408 -2.2916 -0.0258 -0.3970
 1838TIP3   OH226928   4.899   5.690   4.454  0.7383 -0.3207 -0.4750
 1838TIP3    H126929   4.828   5.695   4.518  1.3126 -1.7845  0.3324
 1838TIP3    H226930   4.855   5.683   4.369 -0.1145 -1.4309  0.0259
 1839TIP3   OH226931   4.827   4.150   5.369  0.1909  0.4325  0.1854
 1839TIP3    H126932   4.807   4.075   5.312 -1.8380  1.7265 -0.9831
 1839TIP3    H226933   4.875   4.210   5.312  0.1987  0.7607  0.5401
 1840TIP3   OH226934   6.772   2.285   3.198 -0.2688 -0.2119 -0.3161
 1840TIP3    H126935   6.680   2.258   3.201 -0.4945  0.4193 -1.2735
 1840TIP3    H226936   6.773   2.370   3.242  0.3577 -1.4440  2.2407
 1841TIP3   OH226937   2.372   2.164   0.689 -0.2021 -0.3955 -0.0071
 1841TIP3    H126938   2.318   2.213   0.627 -0.4934 -0.2178  0.3834
 1841TIP3    H226939   2.437   2.118   0.635 -0.5405 -0.3482 -0.4488
 1842TIP3   OH226940   5.776   3.612   3.192 -0.3378  0.5421 -0.2435
 1842TIP3    H126941   5.792   3.519   3.179 -0.1023  0.4289  0.8056
 1842TIP3    H226942   5.682   3.622   3.182 -0.2293  0.4205 -1.6419
 1843TIP3   OH226943   1.513   6.165   6.323  0.7520  0.4387 -0.1091
 1843TIP3    H126944   1.431   6.207   6.350  0.2966  1.4594 -2.7605
 1843TIP3    H226945   1.576   6.237   6.318  0.8834  0.2670 -1.3148
 1844TIP3   OH226946   5.236   5.686   4.269  0.4765 -0.6123  0.0960
 1844TIP3    H126947   5.209   5.710   4.358 -0.1481 -1.6222  0.1974
 1844TIP3    H226948   5.323   5.650   4.280  0.1368 -1.3643  0.4128
 1845TIP3   OH226949   3.866   3.767  12.382  0.2873  0.0340 -0.0401
 1845TIP3    H126950   3.921   3.837  12.417 -2.3254  1.7605  0.9811
 1845TIP3    H226951   3.777   3.790  12.411 -1.1687 -1.9326 -2.5061
 1846TIP3   OH226952   2.584   0.287   3.059  0.5927 -0.0513  0.3989
 1846TIP3    H126953   2.578   0.315   3.150  0.1683  0.2457  0.2834
 1846TIP3    H226954   2.626   0.361   3.014 -2.9327  1.6623 -0.4156
 1847TIP3   OH226955   4.619   2.919   5.590 -0.2910  0.0244 -0.6383
 1847TIP3    H126956   4.634   2.970   5.510 -0.4860 -1.4471 -1.6486
 1847TIP3    H226957   4.577   2.839   5.560 -2.2800  0.2750  1.1549
 1848TIP3   OH226958   3.171   1.681  16.477 -0.5200  0.2088 -0.3205
 1848TIP3    H126959   3.180   1.722  16.562  0.7341  1.0813 -0.8521
 1848TIP3    H226960   3.164   1.753  16.415  0.9731 -0.3512 -1.1931
 1849TIP3   OH226961   0.128   6.674   3.145 -0.1294 -0.1740 -0.2531
 1849TIP3    H126962   0.131   6.758   3.098 -0.8828  0.1868  0.3220
 1849TIP3    H226963   0.124   6.698   3.238 -0.7158 -0.8280 -0.0943
 1850TIP3   OH226964   5.594   4.060  15.750 -0.6668 -0.5289 -0.0617
 1850TIP3    H126965   5.524   4.123  15.770  0.1155  0.9752 -1.8343
 1850TIP3    H226966   5.569   4.021  15.667  0.3124 -0.3695 -0.4475
 1851TIP3   OH226967   5.755   1.555  14.081 -0.0572 -0.0100 -0.2975
 1851TIP3    H126968   5.725   1.644  14.099  0.2464 -0.0378  0.3444
 1851TIP3    H226969   5.812   1.564  14.005  2.1307  0.7672  1.3399
 1852TIP3   OH226970   6.069   5.946  17.121 -0.4480 -0.0687  0.1263
 1852TIP3    H126971   5.979   5.914  17.125 -0.5652  0.3312  0.9433
 1852TIP3    H226972   6.121   5.872  17.152 -0.6653  0.2830  1.4060
 1853TIP3   OH226973   3.054   5.906   2.665 -0.1935 -0.5810  0.0664
 1853TIP3    H126974   3.015   5.929   2.750 -0.3249 -0.2840 -0.0752
 1853TIP3    H226975   3.048   5.986   2.613  0.5364 -0.5550  0.0166
 1854TIP3   OH226976   2.640   3.052  14.547 -0.3526  0.6563  0.2356
 1854TIP3    H126977   2.680   3.137  14.565  0.4312  0.2403  0.5185
 1854TIP3    H226978   2.655   3.038  14.454  1.0516  0.0782  0.5197
 1855TIP3   OH226979   1.353   4.284  14.477  0.0005 -0.5663  0.2331
 1855TIP3    H126980   1.387   4.270  14.389  0.0996 -2.8003  0.5744
 1855TIP3    H226981   1.264   4.248  14.474 -0.2358 -0.0609  0.8801
 1856TIP3   OH226982   6.628   0.760   4.079  0.4338  0.3004  0.2973
 1856TIP3    H126983   6.615   0.828   4.014  2.1237 -0.9861 -1.5145
 1856TIP3    H226984   6.563   0.693   4.056 -0.2127  0.6311  1.1259
 1857TIP3   OH226985   1.441   6.669   4.791  0.2468  0.0525 -0.2558
 1857TIP3    H126986   1.450   6.691   4.884  0.6590  1.3119 -0.5736
 1857TIP3    H226987   1.447   6.753   4.746  0.2188 -0.5611 -1.4406
 1858TIP3   OH226988   6.453   2.738   5.963 -0.1905 -0.3105  0.3937
 1858TIP3    H126989   6.374   2.791   5.959  0.9091  1.3446 -0.6065
 1858TIP3    H226990   6.443   2.675   5.891 -0.7617 -0.3874  0.5343
 1859TIP3   OH226991   2.786   2.552  14.358  0.4152  0.1622  0.1813
 1859TIP3    H126992   2.747   2.613  14.295  0.7680 -0.5186 -0.7103
 1859TIP3    H226993   2.734   2.473  14.351 -0.7063  0.6670  2.1055
 1860TIP3   OH226994   2.530   5.507  14.561  0.1363 -0.0428  0.3931
 1860TIP3    H126995   2.591   5.487  14.633  0.3506 -0.6476  0.0525
 1860TIP3    H226996   2.457   5.445  14.574  0.1612 -0.1317  0.1099
 1861TIP3   OH226997   4.953   3.956  11.556  0.3900 -0.1303 -0.4505
 1861TIP3    H126998   4.966   3.989  11.645 -0.2106  1.7537 -1.0143
 1861TIP3    H226999   5.022   3.999  11.505  0.4270 -0.8147 -0.9847
 1862TIP3   OH227000   5.240   6.444   1.012 -0.0506  0.0706  0.4503
 1862TIP3    H127001   5.213   6.401   0.931  0.0783 -0.9810  0.9464
 1862TIP3    H227002   5.316   6.496   0.988 -1.3075  1.5194 -0.5495
 1863TIP3   OH227003   3.960   4.009   3.583 -0.1000 -0.0797 -0.0242
 1863TIP3    H127004   4.045   4.036   3.549 -0.2397  2.8659  1.6192
 1863TIP3    H227005   3.975   3.923   3.622  1.5251 -0.6452 -1.7882
 1864TIP3   OH227006   5.140   3.107  10.430  0.4966  0.0957 -0.3000
 1864TIP3    H127007   5.070   3.079  10.371  0.5394  0.2653 -0.4331
 1864TIP3    H227008   5.178   3.026  10.462 -0.2749 -0.0067  0.3930
 1865TIP3   OH227009   5.992   5.056   3.207 -0.2819 -0.4334 -0.1246
 1865TIP3    H127010   5.942   5.028   3.130  1.0370 -2.2269 -0.3833
 1865TIP3    H227011   6.083   5.057   3.179  0.1691 -0.4853  1.2374
 1866TIP3   OH227012   0.452   3.934  13.041  0.0038  0.0653 -0.2260
 1866TIP3    H127013   0.357   3.942  13.037  0.0135  0.0909 -0.3833
 1866TIP3    H227014   0.482   4.019  13.074  0.0754  0.5619 -1.5046
 1867TIP3   OH227015   2.214   4.231   0.791 -0.3008 -0.2240  0.0237
 1867TIP3    H127016   2.232   4.212   0.699  2.4641  2.6302 -0.1964
 1867TIP3    H227017   2.237   4.150   0.837 -1.3590 -1.5729 -1.7115
 1868TIP3   OH227018   4.075   0.551   5.214 -0.2209 -0.3700  0.4900
 1868TIP3    H127019   4.009   0.614   5.185 -0.5846 -0.0260  1.9603
 1868TIP3    H227020   4.042   0.466   5.185 -0.4853 -0.0354 -0.1977
 1869TIP3   OH227021   3.581   3.396   5.176 -0.0705  0.3099  0.0411
 1869TIP3    H127022   3.659   3.355   5.138  1.7206  2.2743  1.4144
 1869TIP3    H227023   3.553   3.459   5.109  0.7325  0.9735  0.3019
 1870TIP3   OH227024   3.110   1.686   2.755  0.1259 -0.0653 -0.0222
 1870TIP3    H127025   3.184   1.626   2.751 -0.7586 -1.1440 -0.5747
 1870TIP3    H227026   3.093   1.696   2.849  0.0593 -0.9544  0.0664
 1871TIP3   OH227027   2.714   1.755   2.989  0.2143  0.1962 -0.0230
 1871TIP3    H127028   2.646   1.731   3.052 -0.7982  0.9520 -0.7933
 1871TIP3    H227029   2.785   1.694   3.007 -0.6515 -0.6114  0.8258
 1872TIP3   OH227030   3.161   2.241   3.249  0.2531 -0.4162 -0.0478
 1872TIP3    H127031   3.224   2.188   3.298 -0.9294 -0.8989  1.0048
 1872TIP3    H227032   3.211   2.318   3.221  1.4666 -1.0967  0.1687
 1873TIP3   OH227033   1.516   6.482  13.445 -0.4146 -0.1532  0.1614
 1873TIP3    H127034   1.499   6.507  13.354  1.2971  0.6266  0.0073
 1873TIP3    H227035   1.552   6.561  13.485  1.2693 -1.1911  0.7971
 1874TIP3   OH227036   2.604   2.404  13.569 -1.0229 -0.1105 -0.2446
 1874TIP3    H127037   2.590   2.483  13.517  0.4896  0.9208  0.8163
 1874TIP3    H227038   2.517   2.382  13.603 -1.1603  2.7673  1.6627
 1875TIP3   OH227039   1.907   0.869  12.512  0.6426 -0.0994 -0.0011
 1875TIP3    H127040   1.896   0.962  12.530  0.1122 -0.4949  1.9866
 1875TIP3    H227041   1.853   0.853  12.434 -1.7681  0.7131  1.4032
 1876TIP3   OH227042   6.479   2.343  15.246 -0.0889  0.3372 -0.6022
 1876TIP3    H127043   6.544   2.382  15.188  0.1851 -1.8546 -1.8966
 1876TIP3    H227044   6.438   2.417  15.291  1.5997  1.9264 -1.5532
 1877TIP3   OH227045   3.991   3.976   4.829 -0.6018  0.1392  0.1346
 1877TIP3    H127046   4.066   4.015   4.875 -0.8697  1.4179 -0.4746
 1877TIP3    H227047   3.964   3.903   4.885  1.9335 -1.2579 -0.3007
 1878TIP3   OH227048   1.481   6.594  13.180  0.4251  0.1016  0.1466
 1878TIP3    H127049   1.445   6.566  13.095  1.1375 -1.7607  0.4206
 1878TIP3    H227050   1.574   6.609  13.163  0.3925  0.6235  0.4099
 1879TIP3   OH227051   6.292   0.843  14.814 -0.4696  0.6296  0.5753
 1879TIP3    H127052   6.326   0.834  14.903 -0.0218 -1.3895  0.2533
 1879TIP3    H227053   6.336   0.774  14.764 -0.6863  1.7261 -1.2407
 1880TIP3   OH227054   3.918   3.525   4.665  0.6654 -0.1830 -0.0146
 1880TIP3    H127055   3.861   3.602   4.669 -0.3780 -0.9728  1.0961
 1880TIP3    H227056   3.865   3.459   4.621  1.1363 -0.6042  0.0430
 1881TIP3   OH227057   3.000   1.523  12.343  0.6323  0.0188 -0.2759
 1881TIP3    H127058   2.971   1.501  12.254 -1.0573 -0.5372  0.3586
 1881TIP3    H227059   2.945   1.468  12.399  2.2755 -0.2862  1.0951
 1882TIP3   OH227060   2.947   5.802   6.355  0.3829  0.6052 -0.1615
 1882TIP3    H127061   2.996   5.827   6.277  1.2524 -1.4314 -0.3400
 1882TIP3    H227062   3.007   5.819   6.428  0.8266 -0.4917 -0.2504
 1883TIP3   OH227063   4.463   0.743   1.047 -0.1720 -0.0311  0.6501
 1883TIP3    H127064   4.531   0.752   1.114  0.0049 -1.4689  0.6983
 1883TIP3    H227065   4.438   0.651   1.051  0.0017 -0.2153 -1.4177
 1884TIP3   OH227066   4.199   1.565   5.632 -0.5056  0.2204 -0.1385
 1884TIP3    H127067   4.245   1.637   5.590 -0.7880 -0.0931 -0.9926
 1884TIP3    H227068   4.139   1.532   5.566 -0.1653 -0.9958  0.1295
 1885TIP3   OH227069   4.660   6.471  13.398  0.3127 -0.4564  0.2411
 1885TIP3    H127070   4.597   6.496  13.329  1.5022  2.7319  0.1453
 1885TIP3    H227071   4.623   6.509  13.478  0.9803 -0.5487  0.5952
 1886TIP3   OH227072   6.096   2.855  15.532 -0.0548  0.4625 -0.0438
 1886TIP3    H127073   6.013   2.856  15.581  0.2418 -3.7163  0.8909
 1886TIP3    H227074   6.069   2.853  15.440 -1.0955 -1.1439  0.2471
 1887TIP3   OH227075   2.285   3.191  15.061 -0.1787  0.2436  0.8404
 1887TIP3    H127076   2.288   3.095  15.067 -2.0243 -0.0039 -1.0442
 1887TIP3    H227077   2.343   3.212  14.988 -0.2832  0.5013  0.8320
 1888TIP3   OH227078   0.167   0.522   3.846  0.2197  0.2144  0.5885
 1888TIP3    H127079   0.105   0.453   3.872  1.8324 -0.8009  1.9343
 1888TIP3    H227080   0.115   0.602   3.850 -0.7807 -0.4306  2.8526
 1889TIP3   OH227081   4.980   0.779  15.726 -0.3213  0.2498  0.1595
 1889TIP3    H127082   4.937   0.799  15.809 -1.0352  1.9453 -0.5815
 1889TIP3    H227083   4.939   0.697  15.697  0.8188 -1.0602  2.0200
 1890TIP3   OH227084   3.298   1.636   5.204 -0.5256  0.3627  0.0089
 1890TIP3    H127085   3.235   1.640   5.132  0.1660 -0.3433 -0.6490
 1890TIP3    H227086   3.252   1.677   5.278 -0.9581  1.8007 -1.0160
 1891TIP3   OH227087   5.021   5.332   1.900 -0.7468 -0.6077  0.2590
 1891TIP3    H127088   5.009   5.285   1.982  0.2873  1.5902  1.7838
 1891TIP3    H227089   5.057   5.267   1.840  0.1705 -1.8955  2.0923
 1892TIP3   OH227090   3.364   1.834  14.312  0.7681 -0.1957 -0.2790
 1892TIP3    H127091   3.353   1.907  14.250  0.9014 -0.0564 -0.1389
 1892TIP3    H227092   3.336   1.870  14.396  0.0872 -0.5412 -0.3485
 1893TIP3   OH227093   2.829   1.403  12.132  0.3547  0.4599 -0.3209
 1893TIP3    H127094   2.785   1.477  12.089  1.1332  1.2451  0.1761
 1893TIP3    H227095   2.786   1.394  12.216 -0.8278 -0.7436 -1.0221
 1894TIP3   OH227096   4.042   0.933   5.697  0.0754 -0.2890 -0.8339
 1894TIP3    H127097   4.090   1.013   5.717  0.2030 -0.0725 -1.9291
 1894TIP3    H227098   4.018   0.897   5.782  0.0159  0.9120 -0.3280
 1895TIP3   OH227099   1.409   0.802  12.250 -0.8679  0.7809 -0.1504
 1895TIP3    H127100   1.372   0.855  12.180 -0.3834  0.1999 -0.8598
 1895TIP3    H227101   1.465   0.738  12.205 -2.8335 -1.5314  0.4753
 1896TIP3   OH227102   0.058   1.395   3.770 -0.3782 -0.6115 -0.1181
 1896TIP3    H127103   0.037   1.469   3.712  0.0448  0.4837  1.0839
 1896TIP3    H227104   0.064   1.320   3.711 -0.3485  0.3927 -1.4431
 1897TIP3   OH227105   5.255   4.977  12.612  0.2561 -0.3777  0.0743
 1897TIP3    H127106   5.286   4.926  12.687  0.2214 -2.2172 -1.0867
 1897TIP3    H227107   5.161   4.986  12.626  0.3282 -0.2582  0.4954
 1898TIP3   OH227108   3.916   5.430  14.387 -0.0096  0.6817 -0.3083
 1898TIP3    H127109   3.866   5.429  14.469 -1.1147 -0.2593 -0.9600
 1898TIP3    H227110   4.007   5.423  14.415 -0.3826  0.1411  0.8497
 1899TIP3   OH227111   6.169   2.144  12.112  0.1905 -0.4084  0.2344
 1899TIP3    H127112   6.205   2.112  12.194  0.0511 -1.2247 -0.0160
 1899TIP3    H227113   6.193   2.237  12.110  0.4683 -0.4535  1.0405
 1900TIP3   OH227114   1.824   4.734   6.779  0.3376 -0.0074  0.0279
 1900TIP3    H127115   1.758   4.711   6.845  0.8190  1.2275  0.9826
 1900TIP3    H227116   1.802   4.679   6.704 -0.8709 -0.7030  0.8396
 1901TIP3   OH227117   2.404   2.853   4.429  0.7696  0.0974  0.4127
 1901TIP3    H127118   2.439   2.767   4.406  1.4631  1.0319 -2.4546
 1901TIP3    H227119   2.312   2.849   4.404  0.2209 -0.4407  2.3424
 1902TIP3   OH227120   6.687   4.789  13.418 -0.3198 -0.5558 -0.2059
 1902TIP3    H127121   6.660   4.852  13.485 -0.5458 -2.3453  1.4526
 1902TIP3    H227122   6.729   4.843  13.351 -1.1536  1.4349  0.7892
 1903TIP3   OH227123   6.398   5.096   2.208  1.1925  0.3545  0.2169
 1903TIP3    H127124   6.313   5.138   2.214  0.3637 -1.0921 -0.7769
 1903TIP3    H227125   6.431   5.097   2.298 -1.1563 -1.5199  1.2139
 1904TIP3   OH227126   3.861   2.493  14.906  0.8773 -0.3909 -0.2097
 1904TIP3    H127127   3.907   2.436  14.844  1.0621 -0.6164  0.1284
 1904TIP3    H227128   3.927   2.557  14.933  1.0196 -0.7621  0.3354
 1905TIP3   OH227129   0.172   2.678  15.533  0.5446  0.4202  0.0268
 1905TIP3    H127130   0.227   2.632  15.596  1.1107  0.2373 -0.5859
 1905TIP3    H227131   0.165   2.767  15.568  0.5380  0.2197  0.5396
 1906TIP3   OH227132   3.741   4.641   4.814 -0.0755  0.1476  0.0556
 1906TIP3    H127133   3.800   4.566   4.803  2.4537  1.6833  2.0779
 1906TIP3    H227134   3.714   4.637   4.906  1.0510  2.2842  0.5413
 1907TIP3   OH227135   0.642   5.693   4.572  0.5709  0.2523  0.3259
 1907TIP3    H127136   0.630   5.688   4.666 -0.1248  2.0188  0.3795
 1907TIP3    H227137   0.649   5.602   4.543  1.1302 -0.2996  2.1037
 1908TIP3   OH227138   3.496   0.010   2.724  0.5460 -0.3374 -0.2440
 1908TIP3    H127139   3.458   0.098   2.727 -0.2907 -0.7215  0.8754
 1908TIP3    H227140   3.428  -0.044   2.684  1.0081 -0.5112 -0.8101
 1909TIP3   OH227141   0.996   1.881  11.420  0.3722  0.4355  0.1803
 1909TIP3    H127142   0.982   1.975  11.419  0.2790  0.4137 -0.5557
 1909TIP3    H227143   0.966   1.850  11.335  0.6238 -0.2293  0.3208
 1910TIP3   OH227144   4.553   3.538  12.784 -0.2390 -0.1017 -0.0199
 1910TIP3    H127145   4.523   3.619  12.824  0.0749 -0.7579  1.6135
 1910TIP3    H227146   4.540   3.551  12.690  1.0832  2.3630  0.0593
 1911TIP3   OH227147   5.083   1.899  10.644 -1.5189  0.3028 -0.3816
 1911TIP3    H127148   5.014   1.914  10.709  0.8798  1.1756  2.1526
 1911TIP3    H227149   5.132   1.981  10.642  1.7152 -1.4401  0.8758
 1912TIP3   OH227150   4.824   3.758   1.293  0.5895 -0.1193 -0.2937
 1912TIP3    H127151   4.836   3.841   1.339 -0.5644 -0.5775  0.8947
 1912TIP3    H227152   4.858   3.692   1.353 -2.5541 -0.9108  0.8142
 1913TIP3   OH227153   4.839   2.533  14.722  0.0266 -0.2705 -0.2691
 1913TIP3    H127154   4.897   2.519  14.647  1.6764 -0.5123  0.9859
 1913TIP3    H227155   4.861   2.621  14.753 -0.1606 -0.4272  0.3184
 1914TIP3   OH227156   2.282   2.117   5.287 -0.0120  0.1264 -0.2636
 1914TIP3    H127157   2.330   2.124   5.370 -0.2207  0.9461 -0.2012
 1914TIP3    H227158   2.349   2.096   5.222  0.2458  0.0648  0.0175
 1915TIP3   OH227159   1.284   2.584  13.356 -0.1654 -0.3785 -0.1365
 1915TIP3    H127160   1.202   2.537  13.373 -0.0915 -0.1219  1.0052
 1915TIP3    H227161   1.351   2.516  13.352 -0.2194 -0.4703  0.4242
 1916TIP3   OH227162   6.190   4.490   5.376  0.4069 -0.5893 -0.0942
 1916TIP3    H127163   6.203   4.533   5.460 -1.3736  0.2393 -0.2104
 1916TIP3    H227164   6.102   4.454   5.380  0.9248 -2.0397 -0.9738
 1917TIP3   OH227165   4.612   5.253   0.633 -0.5696  0.0369  0.3083
 1917TIP3    H127166   4.535   5.309   0.619 -0.0121  1.1353  1.3324
 1917TIP3    H227167   4.576   5.165   0.641 -1.8870  0.6474  1.8471
 1918TIP3   OH227168   6.046   6.457  13.876 -0.5258 -0.4283 -0.4113
 1918TIP3    H127169   6.105   6.482  13.947 -2.8193  1.8314  0.8591
 1918TIP3    H227170   5.958   6.469  13.912 -1.8566 -3.1134 -2.3861
 1919TIP3   OH227171   4.045   5.176   5.453 -0.7124 -0.0674 -0.3677
 1919TIP3    H127172   3.991   5.179   5.375 -1.4012 -0.7319  0.0729
 1919TIP3    H227173   4.028   5.090   5.491 -0.9056  0.5032  0.8794
 1920TIP3   OH227174   4.583   2.170  17.069  0.2139 -0.7229 -0.1945
 1920TIP3    H127175   4.528   2.219  17.008  1.4029 -0.8553 -1.4319
 1920TIP3    H227176   4.586   2.081  17.033 -0.0819 -1.1359  0.7701
 1921TIP3   OH227177   6.066   0.457   3.300  0.1619  0.1800  0.9667
 1921TIP3    H127178   6.054   0.538   3.350 -0.3582  1.0394 -0.4906
 1921TIP3    H227179   5.985   0.448   3.250  0.4066 -0.9995  0.7707
 1922TIP3   OH227180   4.824   5.284  15.186 -0.0413 -0.2621 -0.0409
 1922TIP3    H127181   4.892   5.337  15.228  1.2631 -0.7343 -1.4601
 1922TIP3    H227182   4.786   5.342  15.120 -0.7194 -0.1458  0.4459
 1923TIP3   OH227183   4.510   2.743  13.627 -0.3435  0.3111 -0.8953
 1923TIP3    H127184   4.470   2.810  13.682  1.0087  0.3737  0.0900
 1923TIP3    H227185   4.501   2.775  13.538 -0.3369  1.4744 -0.4898
 1924TIP3   OH227186   5.641   2.695   3.450  0.0198  0.6261 -0.1160
 1924TIP3    H127187   5.583   2.680   3.525 -0.0619 -0.0603 -0.3137
 1924TIP3    H227188   5.666   2.787   3.458 -3.1991  1.7226 -1.4997
 1925TIP3   OH227189   2.129   2.794   6.264 -0.2499 -0.1648  0.0028
 1925TIP3    H127190   2.090   2.728   6.321 -1.8463  0.6818 -0.0413
 1925TIP3    H227191   2.222   2.772   6.261 -0.8531 -3.0487 -0.8703
 1926TIP3   OH227192   5.782   0.636   4.020  0.0471  0.0430  0.0945
 1926TIP3    H127193   5.874   0.611   4.012  0.3097  1.1549 -0.5326
 1926TIP3    H227194   5.734   0.562   3.982  0.6973 -0.3213 -0.0386
 1927TIP3   OH227195   0.014   4.718  14.669 -0.0136 -0.7777  0.1858
 1927TIP3    H127196  -0.007   4.642  14.615  1.0357 -1.7364  1.0899
 1927TIP3    H227197   0.093   4.693  14.717 -0.3561  0.4156  1.4370
 1928TIP3   OH227198   3.210   4.127   2.920 -0.5129 -0.1174  0.1126
 1928TIP3    H127199   3.255   4.062   2.866  1.6439  1.2136  0.1919
 1928TIP3    H227200   3.272   4.199   2.928 -2.4251  1.5446  0.8750
 1929TIP3   OH227201   3.797   5.726  15.571 -0.2746 -0.3586  0.1218
 1929TIP3    H127202   3.822   5.723  15.664 -0.7101 -0.0401  0.2534
 1929TIP3    H227203   3.703   5.746  15.572 -0.1712  0.1625 -0.4034
 1930TIP3   OH227204   1.736   6.143  15.710  0.0432  0.1470 -0.4356
 1930TIP3    H127205   1.784   6.199  15.770  1.5660 -1.8388  0.3236
 1930TIP3    H227206   1.775   6.159  15.624  1.4970 -0.7599  0.0224
 1931TIP3   OH227207   4.410   4.249   4.160  0.1196 -0.1466 -0.1685
 1931TIP3    H127208   4.439   4.217   4.245  0.6477  2.5216  0.7531
 1931TIP3    H227209   4.441   4.340   4.157 -0.2406 -0.0336 -3.0464
 1932TIP3   OH227210   5.074   1.908  14.219  1.4314  0.2823  0.3632
 1932TIP3    H127211   5.138   1.945  14.158  2.4759  1.6455  2.2040
 1932TIP3    H227212   5.125   1.852  14.277  0.5571 -0.4546  0.4470
 1933TIP3   OH227213   3.767   2.923   4.335 -0.4365 -0.4462 -0.3489
 1933TIP3    H127214   3.811   2.956   4.413 -1.9137 -0.0309  0.3423
 1933TIP3    H227215   3.837   2.913   4.270  0.6836 -0.0011  0.7566
 1934TIP3   OH227216   5.697   2.775  12.875 -0.0535 -0.1025 -0.5758
 1934TIP3    H127217   5.611   2.741  12.852 -0.7916  0.8730  0.6099
 1934TIP3    H227218   5.737   2.799  12.791 -0.2949 -1.9529 -1.2672
 1935TIP3   OH227219   3.072   4.760   5.152  0.3045  0.5798  0.4035
 1935TIP3    H127220   2.986   4.758   5.196 -0.0189 -1.2614 -0.2134
 1935TIP3    H227221   3.116   4.682   5.184  1.1709  0.7166 -0.4354
 1936TIP3   OH227222   6.686   6.339   1.811 -0.4251  0.1144  0.0177
 1936TIP3    H127223   6.728   6.266   1.765 -1.7830 -1.2160  0.8174
 1936TIP3    H227224   6.664   6.401   1.741 -0.3218 -0.7801 -0.8304
 1937TIP3   OH227225   0.755   5.964   4.832 -0.2775 -0.3065 -0.7712
 1937TIP3    H127226   0.665   5.944   4.857 -0.3445  0.4487 -0.3895
 1937TIP3    H227227   0.808   5.903   4.883 -0.4813  0.4138  0.3270
 1938TIP3   OH227228   5.604   6.431   5.442 -0.4913  0.2574  0.4297
 1938TIP3    H127229   5.564   6.501   5.494 -0.8075  0.9887 -0.7438
 1938TIP3    H227230   5.693   6.461   5.427 -0.9050  0.9111 -0.8836
 1939TIP3   OH227231   1.479   0.633   4.958  0.2356  0.3984  0.3457
 1939TIP3    H127232   1.460   0.546   4.922  1.1859 -1.0480  3.0812
 1939TIP3    H227233   1.548   0.667   4.901 -2.1072  0.7426 -2.5550
 1940TIP3   OH227234   0.187   5.135   2.041 -0.5147 -0.3668  0.2843
 1940TIP3    H127235   0.113   5.161   2.095  0.3422 -0.5058  1.5712
 1940TIP3    H227236   0.169   5.044   2.018 -1.0298 -0.2152  0.0602
 1941TIP3   OH227237   4.899   5.151  15.438  0.3508  0.1993  0.2162
 1941TIP3    H127238   4.858   5.064  15.435  0.4011  0.0182  2.5310
 1941TIP3    H227239   4.826   5.212  15.429  0.5220  0.0692 -3.6942
 1942TIP3   OH227240   0.738   4.897   1.610  0.0454 -0.0240  0.5055
 1942TIP3    H127241   0.690   4.851   1.540 -0.0288 -1.0084  1.1809
 1942TIP3    H227242   0.811   4.838   1.631  0.5708  0.6746  0.6590
 1943TIP3   OH227243   6.017   3.475  13.595  0.6759  0.1003 -0.4308
 1943TIP3    H127244   6.095   3.530  13.589  0.6977  0.2866  1.0904
 1943TIP3    H227245   6.020   3.439  13.684 -1.7003  1.2249  0.1725
 1944TIP3   OH227246   6.578   1.878   5.134  0.3046 -0.0442 -0.1822
 1944TIP3    H127247   6.516   1.874   5.207  0.2000  1.6809 -0.1336
 1944TIP3    H227248   6.523   1.896   5.058  0.6658  0.8874 -0.2337
 1945TIP3   OH227249   3.470   5.886   3.161 -0.1020 -0.2500 -0.0023
 1945TIP3    H127250   3.536   5.878   3.229 -0.2351  0.1703  0.1783
 1945TIP3    H227251   3.483   5.808   3.106 -0.2349 -0.7883  0.7121
 1946TIP3   OH227252   5.248   4.892   2.629 -0.1531 -0.3228  0.3613
 1946TIP3    H127253   5.164   4.872   2.586  0.8339 -0.0416 -1.8269
 1946TIP3    H227254   5.312   4.838   2.583  1.2267  1.2405  0.3472
 1947TIP3   OH227255   3.590   3.356   5.830 -0.3573 -0.3891  0.0725
 1947TIP3    H127256   3.660   3.397   5.779 -0.2050  0.8082  1.1727
 1947TIP3    H227257   3.517   3.349   5.769  0.0249  0.3905 -0.5041
 1948TIP3   OH227258   6.301   4.429  15.562  0.2644  0.8254 -0.5609
 1948TIP3    H127259   6.293   4.344  15.518  1.9777  1.5546 -2.4505
 1948TIP3    H227260   6.380   4.421  15.617  1.0150  1.4600 -1.5117
 1949TIP3   OH227261   6.363   4.478  13.869  0.8551  0.0989  0.2757
 1949TIP3    H127262   6.394   4.563  13.838 -3.4732  2.3646  1.2701
 1949TIP3    H227263   6.318   4.440  13.794  2.2813 -1.1228  0.0012
 1950TIP3   OH227264   4.963   5.579   4.084 -0.6927 -0.3003 -0.3780
 1950TIP3    H127265   4.999   5.612   4.167  0.3855 -1.3696 -0.3963
 1950TIP3    H227266   4.889   5.525   4.110 -1.4793  0.8037 -0.2472
 1951TIP3   OH227267   1.811   0.336   5.669 -0.1301  0.2562 -0.2086
 1951TIP3    H127268   1.822   0.316   5.576  0.0087  0.6023 -0.2681
 1951TIP3    H227269   1.737   0.282   5.696  2.1013 -2.8118  0.3957
 1952TIP3   OH227270   1.050   4.910  13.469  0.3515  0.4376 -0.2916
 1952TIP3    H127271   1.111   4.937  13.538  1.7083 -1.2526 -0.7636
 1952TIP3    H227272   0.971   4.962  13.485  0.7851  0.4475  2.2302
 1953TIP3   OH227273   0.176   2.005  13.624 -0.7909  0.1759 -0.1706
 1953TIP3    H127274   0.247   1.967  13.572 -1.8025 -0.8455 -0.8317
 1953TIP3    H227275   0.119   1.932  13.645 -1.2501  0.8491  1.0506
 1954TIP3   OH227276   4.825   3.235  12.725  0.3193  0.3947  0.2691
 1954TIP3    H127277   4.832   3.323  12.762 -0.1316  1.0636 -1.1697
 1954TIP3    H227278   4.776   3.186  12.791 -0.4603  1.5415  0.5749
 1955TIP3   OH227279   4.085   0.543  14.762  0.4265  0.8128  0.2851
 1955TIP3    H127280   4.118   0.454  14.771 -2.1196 -0.2757 -0.4563
 1955TIP3    H227281   4.130   0.578  14.685  0.8421 -0.0851  0.1085
 1956TIP3   OH227282   2.235   0.078  14.672 -0.0169  0.0479  0.2163
 1956TIP3    H127283   2.232   0.173  14.683  0.7203 -0.0701  1.5475
 1956TIP3    H227284   2.179   0.044  14.742 -2.5607 -0.4480 -1.8994
 1957TIP3   OH227285   3.326   5.582  16.947 -0.7360 -0.2673  0.4157
 1957TIP3    H127286   3.388   5.521  16.906 -2.2584 -3.0094  1.9272
 1957TIP3    H227287   3.263   5.602  16.879 -0.4689 -0.7455  0.0199
 1958TIP3   OH227288   3.970   2.128   0.867  0.3305 -0.0518  0.1538
 1958TIP3    H127289   4.026   2.198   0.833 -0.0944  1.0006  1.5268
 1958TIP3    H227290   4.031   2.067   0.908  0.5872  0.3924  0.4403
 1959TIP3   OH227291   5.942   1.720   0.917 -0.2904 -0.5262 -0.4782
 1959TIP3    H127292   6.009   1.726   0.848 -1.7295 -1.5152 -2.0219
 1959TIP3    H227293   5.990   1.685   0.993  1.1190 -0.3911 -1.2607
 1960TIP3   OH227294   6.462   3.030   1.151 -0.0767 -0.8066 -0.0494
 1960TIP3    H127295   6.488   3.121   1.165 -0.6393 -0.7016  0.3305
 1960TIP3    H227296   6.401   3.033   1.077  0.5412 -0.9828 -0.5755
 1961TIP3   OH227297   6.240   5.086   0.085  0.4001 -0.0458 -0.4564
 1961TIP3    H127298   6.169   5.123   0.138  1.1887  2.1023 -0.7901
 1961TIP3    H227299   6.306   5.060   0.149 -0.7620 -2.4381 -0.1134
 1962TIP3   OH227300   4.917   1.741  13.561 -0.0539 -0.0356 -0.2611
 1962TIP3    H127301   4.971   1.798  13.615  0.2109 -0.8265  0.3238
 1962TIP3    H227302   4.958   1.745  13.474 -0.0345  0.6447 -0.2281
 1963TIP3   OH227303   5.243   5.664   3.142 -1.0307 -0.0335 -0.1008
 1963TIP3    H127304   5.297   5.585   3.153 -0.2343  0.7350  2.1575
 1963TIP3    H227305   5.166   5.634   3.094 -0.4387 -2.0537  0.1132
 1964TIP3   OH227306   3.711   3.773   4.818 -0.2631 -0.5417  0.1608
 1964TIP3    H127307   3.732   3.699   4.877 -1.3892 -0.4718  0.6779
 1964TIP3    H227308   3.653   3.735   4.753 -0.4104 -0.2316  0.1121
 1965TIP3   OH227309   1.425   1.156  17.078 -0.6911 -0.3196  0.0495
 1965TIP3    H127310   1.438   1.084  17.016 -0.9419 -0.6384  0.3625
 1965TIP3    H227311   1.486   1.138  17.150 -1.0816 -0.4698  0.3447
 1966TIP3   OH227312   4.410   0.460   5.490 -0.0139  0.4461  0.2639
 1966TIP3    H127313   4.498   0.499   5.493  0.8736 -1.4421  0.0568
 1966TIP3    H227314   4.424   0.369   5.516 -1.5966 -0.4288 -1.7130
 1967TIP3   OH227315   5.362   5.387   4.084 -0.1061 -0.4604  0.3957
 1967TIP3    H127316   5.411   5.306   4.095  2.0418  0.7004 -0.1509
 1967TIP3    H227317   5.417   5.441   4.028 -1.2223  1.6031  1.1774
 1968TIP3   OH227318   6.705   5.217  12.659 -0.5395  0.0351  0.1511
 1968TIP3    H127319   6.730   5.227  12.567  0.8407  1.5971  0.6305
 1968TIP3    H227320   6.779   5.172  12.699 -0.2017  1.1762  0.8533
 1969TIP3   OH227321   0.993   5.949  13.765 -0.0900 -0.6903 -0.0996
 1969TIP3    H127322   0.975   6.037  13.799  1.0333 -1.1573  1.8505
 1969TIP3    H227323   0.911   5.901  13.777 -0.0132 -0.5556  1.1241
 1970TIP3   OH227324   2.400   3.903   2.685  0.7521 -0.8336 -0.0348
 1970TIP3    H127325   2.493   3.898   2.660  0.7815  0.8198 -0.3550
 1970TIP3    H227326   2.399   3.872   2.776  1.6190 -0.9679 -0.0567
 1971TIP3   OH227327   2.789   5.033  12.290 -0.1284 -0.7311 -0.4785
 1971TIP3    H127328   2.795   5.050  12.196 -2.5325  1.6952 -0.3238
 1971TIP3    H227329   2.697   5.049  12.311  0.7945  1.3886  2.6937
 1972TIP3   OH227330   1.109   5.796  11.544 -0.1771 -0.2996 -0.8139
 1972TIP3    H127331   1.172   5.735  11.584 -1.7243 -1.3873  0.0351
 1972TIP3    H227332   1.164   5.863  11.503  1.5500 -1.4699 -0.5173
 1973TIP3   OH227333   1.584   4.562  16.194 -0.0436 -0.3412  0.1243
 1973TIP3    H127334   1.525   4.633  16.166  0.1955  0.1623  0.8877
 1973TIP3    H227335   1.671   4.592  16.168  0.1012 -0.1815  0.7976
 1974TIP3   OH227336   1.778   2.076  10.650 -0.0824  0.0281  0.6915
 1974TIP3    H127337   1.716   2.148  10.662  1.3149  1.6458 -1.2286
 1974TIP3    H227338   1.864   2.117  10.657  0.7473 -1.2299 -1.3829
 1975TIP3   OH227339   0.170   4.949  13.337 -0.1570 -0.0059 -0.4956
 1975TIP3    H127340   0.094   4.984  13.291  0.2474  1.2321 -0.2668
 1975TIP3    H227341   0.150   4.961  13.430  0.2765  0.2523 -0.4302
 1976TIP3   OH227342   4.540   0.071  16.507  0.2603  0.1439  0.1726
 1976TIP3    H127343   4.585   0.076  16.591  0.4072 -3.6162  0.4883
 1976TIP3    H227344   4.453   0.038  16.527  0.1742 -0.4864 -1.0924
 1977TIP3   OH227345   1.372   4.794  12.174  0.2356 -0.2894  0.0990
 1977TIP3    H127346   1.409   4.858  12.112  0.1209 -0.3367 -0.0175
 1977TIP3    H227347   1.447   4.739  12.198  0.2204 -0.4496 -0.2164
 1978TIP3   OH227348   1.627   1.831   5.554 -0.1174 -0.3066  0.4553
 1978TIP3    H127349   1.570   1.905   5.533  0.4414  0.7639  2.5108
 1978TIP3    H227350   1.686   1.826   5.479 -0.8937  0.5933 -0.2476
 1979TIP3   OH227351   5.764   3.844   4.512  0.1701  0.2839 -0.7432
 1979TIP3    H127352   5.772   3.939   4.501  2.2362  0.1167 -0.9510
 1979TIP3    H227353   5.715   3.815   4.435 -1.2345  1.2587 -0.2535
 1980TIP3   OH227354   4.986   4.102   2.685  0.0405  0.6387  0.2054
 1980TIP3    H127355   5.008   4.083   2.594 -0.0049  1.4995  0.0082
 1980TIP3    H227356   4.901   4.146   2.682 -0.7694 -0.8284  0.8095
 1981TIP3   OH227357   5.693   5.666   6.023  0.2464  0.2539  0.3686
 1981TIP3    H127358   5.742   5.725   6.080  0.8698 -0.7680  0.9212
 1981TIP3    H227359   5.719   5.693   5.934  0.2878  0.9931  0.5938
 1982TIP3   OH227360   1.755   5.299  16.484 -0.3983 -0.6930 -0.2859
 1982TIP3    H127361   1.729   5.210  16.510 -0.7419 -0.0555  1.7554
 1982TIP3    H227362   1.830   5.319  16.541 -0.5719  0.4551 -0.4418
 1983TIP3   OH227363   2.952   3.612   5.743  0.1594 -0.8267  0.6107
 1983TIP3    H127364   2.970   3.557   5.667  1.6719 -0.7206  0.8620
 1983TIP3    H227365   3.039   3.634   5.778 -0.4708  0.1562  1.6282
 1984TIP3   OH227366   1.471   2.034   5.462 -0.3489 -0.1730  0.0023
 1984TIP3    H127367   1.429   2.013   5.378 -0.3448  0.2747 -0.1174
 1984TIP3    H227368   1.523   2.112   5.443 -0.7127  0.2003  0.5339
 1985TIP3   OH227369   5.349   2.880   1.622 -0.1450  0.4478  0.1812
 1985TIP3    H127370   5.405   2.813   1.661 -0.8284 -0.6533 -0.6745
 1985TIP3    H227371   5.381   2.891   1.533 -0.8894  0.2615 -0.1180
 1986TIP3   OH227372   2.722   1.883   5.403  0.4223 -0.0136  0.2184
 1986TIP3    H127373   2.636   1.858   5.370  0.4464 -3.5363  2.2980
 1986TIP3    H227374   2.781   1.870   5.328 -0.6460  1.3665 -0.9129
 1987TIP3   OH227375   1.820   2.931   1.316  0.1679  0.0522  0.0684
 1987TIP3    H127376   1.856   2.989   1.248 -1.2107  2.0671  0.9827
 1987TIP3    H227377   1.866   2.956   1.396  1.5862 -2.1289  0.0459
 1988TIP3   OH227378   2.439   1.276  11.734  0.0346 -0.4190 -0.1616
 1988TIP3    H127379   2.442   1.290  11.828  0.0102  1.1090 -0.3596
 1988TIP3    H227380   2.528   1.250  11.710  0.6638  1.4428 -0.0011
 1989TIP3   OH227381   4.724   3.262   1.707  0.0035  0.1011 -0.1886
 1989TIP3    H127382   4.804   3.275   1.655 -0.2155  1.5881 -0.1866
 1989TIP3    H227383   4.654   3.264   1.642 -0.1644  0.6223  0.0035
 1990TIP3   OH227384   3.783   3.945   3.383 -0.0484 -0.1901  0.8731
 1990TIP3    H127385   3.752   3.857   3.408  0.8010 -0.6150  0.4663
 1990TIP3    H227386   3.840   3.971   3.455  1.3732 -0.8727  0.0374
 1991TIP3   OH227387   4.485   4.732   3.973 -0.0090 -0.5155  0.6448
 1991TIP3    H127388   4.469   4.807   3.915 -1.9219  0.1738  1.9565
 1991TIP3    H227389   4.533   4.769   4.047 -0.3623 -0.7207  0.9780
 1992TIP3   OH227390   4.140   4.719   3.502 -0.4829 -0.2066 -0.2173
 1992TIP3    H127391   4.161   4.810   3.521  0.9178 -0.6699  0.5890
 1992TIP3    H227392   4.221   4.672   3.517 -1.3076 -1.6688 -0.1394
 1993TIP3   OH227393   6.029   6.560  12.836  0.1303 -0.0653  0.1050
 1993TIP3    H127394   6.066   6.486  12.788  0.1718  0.3522 -0.5205
 1993TIP3    H227395   5.954   6.523  12.882 -0.5246 -0.2742 -1.0927
 1994TIP3   OH227396   6.402   2.658   3.412 -0.2848 -0.0906 -0.5103
 1994TIP3    H127397   6.400   2.693   3.323  0.7654  1.6549  0.1224
 1994TIP3    H227398   6.486   2.613   3.419 -0.9005 -1.3408 -0.7629
 1995TIP3   OH227399   3.296   2.172   5.307  0.0558  0.1382  0.3152
 1995TIP3    H127400   3.322   2.086   5.341  0.9715 -0.0330 -0.7833
 1995TIP3    H227401   3.201   2.165   5.297 -0.0803 -0.2277  1.6311
 1996TIP3   OH227402   6.498   0.750   3.357  0.6309 -0.4601  0.5609
 1996TIP3    H127403   6.442   0.679   3.328 -1.0483  1.1224 -0.2918
 1996TIP3    H227404   6.515   0.801   3.277  0.4976  0.9495  1.4097
 1997TIP3   OH227405   4.934   0.449  16.361  0.2809  0.1782 -0.3626
 1997TIP3    H127406   4.843   0.466  16.387 -0.0531 -1.2852 -0.4750
 1997TIP3    H227407   4.983   0.449  16.443 -0.3293 -1.7992  0.0747
 1998TIP3   OH227408   6.243   6.228   2.107  0.1862  0.5109  0.1531
 1998TIP3    H127409   6.163   6.257   2.064 -0.6645 -1.4053  0.3336
 1998TIP3    H227410   6.311   6.238   2.040 -0.4282  0.9971 -0.4105
 1999TIP3   OH227411   3.740   2.481  10.992  0.1540  0.0175 -0.0885
 1999TIP3    H127412   3.762   2.566  11.031 -0.1248  0.2581 -0.4548
 1999TIP3    H227413   3.790   2.478  10.910  0.5935 -0.4094  0.1875
 2000TIP3   OH227414   2.223   4.448   5.248  0.2588  0.4433 -0.2177
 2000TIP3    H127415   2.141   4.404   5.226  0.2960 -0.5486  1.4241
 2000TIP3    H227416   2.273   4.449   5.167 -1.9419  2.4991 -1.7138
 2001TIP3   OH227417   5.692   4.994  15.495 -0.2902 -0.0482 -0.6259
 2001TIP3    H127418   5.677   4.920  15.552 -1.6579  1.5520  1.2249
 2001TIP3    H227419   5.605   5.032  15.480  0.3485  1.1705 -1.5410
 2002TIP3   OH227420   5.869   0.255   4.244 -0.0499 -0.0754  0.1679
 2002TIP3    H127421   5.906   0.245   4.156 -0.2908 -1.1290  0.1655
 2002TIP3    H227422   5.928   0.315   4.289 -0.4806  1.3005 -1.0206
 2003TIP3   OH227423   6.633   0.175  13.421  0.3069  0.1880 -0.6018
 2003TIP3    H127424   6.696   0.176  13.493 -2.4976  0.7375  2.0601
 2003TIP3    H227425   6.625   0.083  13.398  0.0930 -0.2241  0.9646
 2004TIP3   OH227426   3.345   5.577   2.012  0.1074  0.1713 -0.2708
 2004TIP3    H127427   3.347   5.670   1.989  1.9682 -0.0618 -1.2239
 2004TIP3    H227428   3.437   5.552   2.020 -0.3091 -0.8092  3.4081
 2005TIP3   OH227429   1.491   1.284  15.225  0.0830 -0.0288  0.2590
 2005TIP3    H127430   1.401   1.311  15.241 -0.2946 -0.1998 -1.3841
 2005TIP3    H227431   1.541   1.318  15.300 -1.0477  1.5950  0.3132
 2006TIP3   OH227432   6.732   4.757   4.602 -0.0435  0.4428  0.2208
 2006TIP3    H127433   6.704   4.785   4.689  0.4382  2.7213 -0.2842
 2006TIP3    H227434   6.698   4.825   4.543  0.1340 -0.7377 -1.3030
 2007TIP3   OH227435   0.690   1.517   5.109  0.3252 -0.3889 -0.2992
 2007TIP3    H127436   0.723   1.488   5.024  1.4648 -0.9048  0.2874
 2007TIP3    H227437   0.607   1.470   5.120 -0.4942  0.6815 -1.6690
 2008TIP3   OH227438   2.683   0.311  15.629 -0.0312 -0.1940 -0.2532
 2008TIP3    H127439   2.638   0.307  15.714 -0.0491 -0.9365 -0.2905
 2008TIP3    H227440   2.774   0.331  15.651 -0.1117 -0.0130 -0.0848
 2009TIP3   OH227441   6.679   5.854   3.390  0.6660 -0.3307 -0.5330
 2009TIP3    H127442   6.709   5.896   3.471  0.5150 -0.7847 -0.2358
 2009TIP3    H227443   6.755   5.858   3.332  0.7559  0.0547 -0.3961
 2010TIP3   OH227444   2.506   3.115  16.662  0.0761  0.0753 -0.2340
 2010TIP3    H127445   2.522   3.169  16.584 -0.5524  1.0260  0.2716
 2010TIP3    H227446   2.577   3.052  16.663 -0.2846 -0.3903 -1.9537
 2011TIP3   OH227447   0.744   1.352   1.239  0.4651 -0.4279  0.1915
 2011TIP3    H127448   0.659   1.311   1.221 -0.4829  0.2312  2.6551
 2011TIP3    H227449   0.727   1.409   1.314  3.4769 -1.6615  1.9970
 2012TIP3   OH227450   5.171   2.899  13.923 -0.6081  0.4217 -0.2512
 2012TIP3    H127451   5.206   2.988  13.915 -2.6974  1.4162  0.8232
 2012TIP3    H227452   5.210   2.852  13.850  1.5253  1.8614 -0.1358
 2013TIP3   OH227453   3.739   4.217  15.745 -0.1136  0.5874  0.0126
 2013TIP3    H127454   3.817   4.181  15.703 -0.2879 -2.0364  1.6814
 2013TIP3    H227455   3.766   4.234  15.835 -1.3999 -0.3090  0.6017
 2014TIP3   OH227456   0.218   1.145   3.242  0.4283  0.2749 -0.3433
 2014TIP3    H127457   0.245   1.201   3.170 -1.5519  0.1217 -1.2646
 2014TIP3    H227458   0.180   1.068   3.200 -1.4297  0.4955  0.8010
 2015TIP3   OH227459   3.505   4.609  16.201  0.0837  0.3853 -0.4377
 2015TIP3    H127460   3.595   4.575  16.208  0.7586  2.3650  2.4318
 2015TIP3    H227461   3.506   4.663  16.123  1.3861  0.2915 -0.5147
 2016TIP3   OH227462   0.889   3.675  15.720  0.3120 -0.0743 -0.3587
 2016TIP3    H127463   0.970   3.664  15.770  0.5583  1.8540 -0.2707
 2016TIP3    H227464   0.828   3.716  15.781 -0.5116 -0.8256 -0.6505
 2017TIP3   OH227465   2.727   0.254  13.709 -0.3402  0.5546 -0.1151
 2017TIP3    H127466   2.672   0.200  13.652 -0.1439 -1.0381  1.1157
 2017TIP3    H227467   2.811   0.257  13.665 -0.3678 -0.1434 -0.2373
 2018TIP3   OH227468   4.285   6.726  15.377 -0.4869  0.0531 -0.6038
 2018TIP3    H127469   4.334   6.662  15.326  0.9891 -0.1432  0.9585
 2018TIP3    H227470   4.341   6.803  15.380 -1.6014  0.9198 -1.2250
 2019TIP3   OH227471   5.875   6.696   6.172  0.2811 -0.4449 -0.3473
 2019TIP3    H127472   5.854   6.758   6.241  1.0252 -0.3156 -0.2365
 2019TIP3    H227473   5.942   6.639   6.209 -0.0427 -1.0156 -0.6158
 2020TIP3   OH227474   5.795   3.919  10.939 -0.0471  0.4106  0.0984
 2020TIP3    H127475   5.880   3.957  10.959 -0.4711  0.4864  1.9220
 2020TIP3    H227476   5.814   3.829  10.911  0.7767  1.1694 -1.9745
 2021TIP3   OH227477   1.434   6.296  16.945  0.0177  0.7582  0.2918
 2021TIP3    H127478   1.520   6.264  16.973 -0.3989  0.4358  1.2670
 2021TIP3    H227479   1.430   6.385  16.979  0.0983  0.8909 -0.0463
 2022TIP3   OH227480   1.670   4.331  13.210 -0.1697  0.3290  0.0258
 2022TIP3    H127481   1.644   4.261  13.270  1.5014 -0.6404 -0.3231
 2022TIP3    H227482   1.723   4.391  13.263  0.3390  0.0867 -0.2010
 2023TIP3   OH227483   3.604   5.978   5.740 -0.3664 -0.6674 -0.3025
 2023TIP3    H127484   3.560   5.911   5.793 -0.8024  0.6274  1.0615
 2023TIP3    H227485   3.571   6.061   5.775  0.7076  0.2796 -1.4461
 2024TIP3   OH227486   4.029   6.716   3.692 -0.3619  0.1144 -0.2579
 2024TIP3    H127487   4.012   6.722   3.786  1.7518 -1.6797  0.3203
 2024TIP3    H227488   4.124   6.703   3.685 -0.4574  0.2187 -2.6485
 2025TIP3   OH227489   0.695   1.683   3.552  0.1484  0.0170 -0.2914
 2025TIP3    H127490   0.623   1.695   3.491 -0.7923 -1.0351  0.5849
 2025TIP3    H227491   0.655   1.649   3.632  1.5876 -0.4599  0.2743
 2026TIP3   OH227492   2.821   0.729   6.469 -0.0491 -0.2956 -0.0302
 2026TIP3    H127493   2.836   0.699   6.559  0.4500 -0.7185 -0.2448
 2026TIP3    H227494   2.908   0.727   6.428 -0.3173 -0.4315 -0.6127
 2027TIP3   OH227495   0.050   4.792   3.053  0.3911 -0.5855 -0.3420
 2027TIP3    H127496   0.065   4.735   2.977 -0.4810  0.1549 -1.0816
 2027TIP3    H227497  -0.044   4.810   3.052 -0.1572 -2.5612  2.3732
 2028TIP3   OH227498   5.613   6.080   5.191  0.0105 -0.6491  0.0422
 2028TIP3    H127499   5.554   6.153   5.173  0.2139 -0.0853  1.5558
 2028TIP3    H227500   5.699   6.120   5.200  0.1914 -1.1341  0.4787
 2029TIP3   OH227501   6.672   5.059  14.247  0.1042 -0.7504 -0.3731
 2029TIP3    H127502   6.608   5.125  14.222  0.0429 -0.6152  0.1488
 2029TIP3    H227503   6.754   5.090  14.210 -0.1295 -0.9579 -1.1050
 2030TIP3   OH227504   4.031   5.050  14.764 -0.1995 -0.5747  0.2043
 2030TIP3    H127505   4.093   4.978  14.749  1.0571 -0.1485  2.7822
 2030TIP3    H227506   3.957   5.010  14.809  0.4895 -0.3260  1.6181
 2031TIP3   OH227507   1.880   6.304   2.698 -0.1002 -0.3709  0.1586
 2031TIP3    H127508   1.893   6.210   2.686 -0.9675 -0.4918  0.0529
 2031TIP3    H227509   1.878   6.316   2.793  1.5002 -0.2183  0.1959
 2032TIP3   OH227510   6.718   5.239  16.297 -0.5346 -0.4834  0.6719
 2032TIP3    H127511   6.707   5.332  16.314  1.8886 -0.0003  0.0083
 2032TIP3    H227512   6.735   5.234  16.203  0.6171 -1.4142  0.8999
 2033TIP3   OH227513   3.972   5.865   3.493  0.1696  0.5435 -0.5851
 2033TIP3    H127514   3.949   5.936   3.433  0.0473  0.4492 -0.6495
 2033TIP3    H227515   3.935   5.786   3.453  2.1233  0.0868 -1.6351
 2034TIP3   OH227516   2.112   6.772  12.721  0.4056 -0.2607 -0.3756
 2034TIP3    H127517   2.021   6.743  12.716  0.4680 -0.6099  0.3809
 2034TIP3    H227518   2.163   6.693  12.707  0.5865 -0.2420  0.1610
 2035TIP3   OH227519   4.692   1.172   2.202  0.6755  0.1793  0.0109
 2035TIP3    H127520   4.738   1.133   2.128  0.6101 -0.8444  0.4935
 2035TIP3    H227521   4.658   1.255   2.169  1.7427  0.3382 -0.7325
 2036TIP3   OH227522   1.062   4.690   2.750 -0.5038  0.1282  0.6808
 2036TIP3    H127523   1.047   4.598   2.773 -1.1236  0.6199  2.4086
 2036TIP3    H227524   1.076   4.733   2.834  0.0550  1.5804 -0.1293
 2037TIP3   OH227525   3.916   6.706  15.792  0.0944 -0.1250 -0.5084
 2037TIP3    H127526   3.840   6.652  15.810 -0.6249  1.0874  0.2321
 2037TIP3    H227527   3.884   6.776  15.736  0.4110  0.9310  0.5702
 2038TIP3   OH227528   5.078   6.073   2.179  0.2810 -0.6085 -0.3361
 2038TIP3    H127529   5.064   6.028   2.096  0.7960  0.2745 -0.9226
 2038TIP3    H227530   5.115   6.006   2.237  2.4641 -0.6227 -1.6298
 2039TIP3   OH227531   3.171   2.385   5.651  0.1149  0.0755  0.6322
 2039TIP3    H127532   3.156   2.471   5.690  0.2717  1.1560 -1.5652
 2039TIP3    H227533   3.236   2.400   5.583  0.3605 -1.8551  0.3776
 2040TIP3   OH227534   6.015   2.911  17.205 -0.4774  0.5808 -0.2498
 2040TIP3    H127535   6.111   2.903  17.208 -0.3552  1.1337 -1.9527
 2040TIP3    H227536   5.994   2.969  17.278  0.2592 -1.1428  1.4257
 2041TIP3   OH227537   5.438   6.285   1.308 -0.3921 -0.1999  0.1638
 2041TIP3    H127538   5.445   6.293   1.404 -0.8289 -0.3488  0.2134
 2041TIP3    H227539   5.344   6.276   1.293 -0.2416 -1.2544 -0.1969
 2042TIP3   OH227540   5.432   5.420   0.814 -0.0880 -0.4507  0.1065
 2042TIP3    H127541   5.340   5.426   0.788 -0.4189  0.0045  1.3210
 2042TIP3    H227542   5.477   5.482   0.756 -1.1324  2.1761  1.8769
 2043TIP3   OH227543   1.667   3.255   3.645  0.0015 -0.4515 -0.3658
 2043TIP3    H127544   1.650   3.317   3.717  0.1937 -0.1094 -0.6129
 2043TIP3    H227545   1.657   3.307   3.566  0.4571 -0.6689 -0.5679
 2044TIP3   OH227546   3.543   4.287   2.602 -0.5175  0.0742 -0.2506
 2044TIP3    H127547   3.528   4.378   2.628 -0.0321  0.5030 -1.3896
 2044TIP3    H227548   3.554   4.291   2.507  1.7070 -0.8581 -0.0966
 2045TIP3   OH227549   2.416   6.161   5.772  0.3571 -0.2990 -0.1827
 2045TIP3    H127550   2.393   6.253   5.789  0.7827 -0.3653  0.8567
 2045TIP3    H227551   2.393   6.116   5.853  0.2500 -1.0971 -0.6524
 2046TIP3   OH227552   6.293   2.555   6.490 -0.0439  0.2083 -0.4178
 2046TIP3    H127553   6.211   2.515   6.460 -0.9401  1.5829  0.1074
 2046TIP3    H227554   6.357   2.531   6.423 -0.7049 -1.4517 -0.4974
 2047TIP3   OH227555   5.044   6.603  15.237 -0.3150  0.5429  0.4373
 2047TIP3    H127556   4.967   6.632  15.286 -1.0898 -0.7253 -0.0006
 2047TIP3    H227557   5.068   6.680  15.184 -0.4893  1.3669  1.5142
 2048TIP3   OH227558   1.415   0.962  14.242 -0.1783 -0.2021 -0.0721
 2048TIP3    H127559   1.416   1.036  14.303 -1.4055 -1.2832  1.3388
 2048TIP3    H227560   1.507   0.949  14.218  0.0868  1.5776 -0.1501
 2049TIP3   OH227561   1.908   1.391  16.118  0.2106  0.0349  0.1733
 2049TIP3    H127562   1.903   1.361  16.209 -0.1710 -0.9812 -0.1614
 2049TIP3    H227563   1.853   1.329  16.070  0.4908  0.5003 -0.7677
 2050TIP3   OH227564   5.080   5.631  15.626 -0.2957  0.2588 -0.8011
 2050TIP3    H127565   5.071   5.538  15.648 -0.3387  0.4220 -0.1251
 2050TIP3    H227566   4.994   5.669  15.642 -0.6154  0.1985 -2.2123
 2051TIP3   OH227567   6.219   2.114  15.565  0.0664  0.1524 -0.4868
 2051TIP3    H127568   6.302   2.125  15.611  0.9101 -1.2707 -1.5830
 2051TIP3    H227569   6.193   2.024  15.584 -1.6544  0.7846  0.4378
 2052TIP3   OH227570   5.339   6.088  10.782  0.1319  0.2232 -0.3915
 2052TIP3    H127571   5.381   6.019  10.731 -0.1765 -0.4548  0.2361
 2052TIP3    H227572   5.411   6.138  10.820  0.3661 -0.0866 -0.4250
 2053TIP3   OH227573   4.652   0.884  15.794  0.3836  0.4740  0.6624
 2053TIP3    H127574   4.664   0.930  15.711  0.0573 -1.2482 -0.3907
 2053TIP3    H227575   4.561   0.901  15.818  0.0996 -0.0445 -0.0146
 2054TIP3   OH227576   2.338   2.204  11.791  0.0402  0.1574  0.0302
 2054TIP3    H127577   2.339   2.166  11.703 -1.4207  0.6304 -0.2139
 2054TIP3    H227578   2.265   2.265  11.790  0.6422  0.9300  1.2742
 2055TIP3   OH227579   6.115   0.389  13.009  0.3683 -0.0294  0.7283
 2055TIP3    H127580   6.149   0.460  13.062  0.6269 -0.3112  0.9460
 2055TIP3    H227581   6.057   0.341  13.068  2.2156 -1.5538  1.4182
 2056TIP3   OH227582   4.671   4.796  13.282 -0.1657 -0.0024 -0.0547
 2056TIP3    H127583   4.712   4.716  13.315 -2.4432 -0.7697  1.1099
 2056TIP3    H227584   4.619   4.768  13.207 -0.6159  0.4526  0.0765
 2057TIP3   OH227585   3.731   0.272  16.171  0.2958 -0.1242  0.0635
 2057TIP3    H127586   3.641   0.302  16.157 -0.1280 -1.1976  0.3899
 2057TIP3    H227587   3.769   0.336  16.230 -0.2300  0.3831 -0.1415
 2058TIP3   OH227588   6.608   5.750   5.343  0.3234  0.3886  0.2417
 2058TIP3    H127589   6.552   5.757   5.420 -0.4931 -1.0637 -0.1902
 2058TIP3    H227590   6.552   5.778   5.270 -0.0550 -1.5349 -0.2565
 2059TIP3   OH227591   6.223   1.052   4.950 -0.5631 -0.4596  0.2245
 2059TIP3    H127592   6.302   1.021   4.906 -0.3754  1.6379 -1.0307
 2059TIP3    H227593   6.155   1.046   4.883 -0.7729  0.6746  0.3255
 2060TIP3   OH227594   4.213   2.082  12.037  0.3195  0.2242 -0.2619
 2060TIP3    H127595   4.179   2.020  11.972 -0.3847  0.4298 -0.0938
 2060TIP3    H227596   4.137   2.107  12.088  0.9853 -0.4539  1.1008
 2061TIP3   OH227597   0.475   2.409  14.169 -0.9909 -0.0738 -0.7830
 2061TIP3    H127598   0.419   2.460  14.110  1.2008  0.6451 -2.3720
 2061TIP3    H227599   0.537   2.366  14.112 -0.2068 -1.2595  0.8761
 2062TIP3   OH227600   1.885   4.468  10.990 -0.6655 -0.1286  0.3598
 2062TIP3    H127601   1.968   4.421  10.998 -1.4871 -1.7255  0.0796
 2062TIP3    H227602   1.840   4.424  10.917 -0.8881  2.1001 -0.9230
 2063TIP3   OH227603   5.296   5.075  13.665  0.0209 -0.7642  0.0994
 2063TIP3    H127604   5.380   5.093  13.706  0.5716  1.7195 -1.9113
 2063TIP3    H227605   5.318   5.027  13.586 -0.5249 -0.7131 -0.0874
 2064TIP3   OH227606   3.088   4.449  16.527  0.0089  0.1976 -0.0546
 2064TIP3    H127607   3.044   4.377  16.483  0.7954 -0.7727  0.7060
 2064TIP3    H227608   3.178   4.446  16.495  0.4534 -0.1814  1.1738
 2065TIP3   OH227609   2.487   5.130  12.388 -0.3289 -0.4710 -0.0147
 2065TIP3    H127610   2.404   5.089  12.365  0.5586 -1.6479 -1.3307
 2065TIP3    H227611   2.492   5.122  12.483 -3.2590  2.7914  0.6275
 2066TIP3   OH227612   0.585   4.408   3.415 -0.2996  0.3233  0.0348
 2066TIP3    H127613   0.597   4.501   3.396  0.7582  0.1565 -0.2153
 2066TIP3    H227614   0.550   4.371   3.333  2.5086 -0.0615 -1.1458
 2067TIP3   OH227615   5.475   3.869  11.329  0.0327  0.4403  0.4388
 2067TIP3    H127616   5.540   3.921  11.376 -0.0643 -0.2597  1.3711
 2067TIP3    H227617   5.394   3.919  11.336 -0.0047  0.2975  1.1169
 2068TIP3   OH227618   5.253   0.137   4.441 -0.2578  0.4341 -0.2962
 2068TIP3    H127619   5.194   0.130   4.366  0.2523  1.1274 -0.7780
 2068TIP3    H227620   5.269   0.046   4.468  0.1036  0.1384 -1.4695
 2069TIP3   OH227621   3.600   5.234   3.438  0.0010  0.0990  0.3931
 2069TIP3    H127622   3.573   5.221   3.529  1.3581  0.4954  0.8742
 2069TIP3    H227623   3.631   5.324   3.435 -0.7249  0.3328 -0.6594
 2070TIP3   OH227624   4.782   6.152   3.747 -0.0531  0.0441 -0.0667
 2070TIP3    H127625   4.777   6.248   3.750 -0.1880  0.0504 -0.4091
 2070TIP3    H227626   4.721   6.128   3.677 -0.1080 -0.2994  0.1011
 2071TIP3   OH227627   6.425   1.763  15.089 -0.8618 -0.5310 -0.5986
 2071TIP3    H127628   6.356   1.783  15.027  0.7227 -0.2579 -2.3827
 2071TIP3    H227629   6.410   1.821  15.163 -1.0249  1.4825 -2.1233
 2072TIP3   OH227630   4.277   4.120  15.283 -0.1921  1.3682  0.5419
 2072TIP3    H127631   4.258   4.185  15.350 -3.0074  0.6142  0.5817
 2072TIP3    H227632   4.226   4.043  15.308  3.0668 -1.0164  0.5536
 2073TIP3   OH227633   5.897   2.655  14.635  0.1744  0.0840 -0.6913
 2073TIP3    H127634   5.928   2.571  14.671 -0.3249 -1.0562 -2.7551
 2073TIP3    H227635   5.804   2.642  14.621  0.0439  1.1018 -0.8067
 2074TIP3   OH227636   5.496   3.098  11.576  0.5168 -0.5172  0.1584
 2074TIP3    H127637   5.429   3.165  11.562 -0.3356 -1.5335 -0.7875
 2074TIP3    H227638   5.556   3.137  11.640 -2.5348 -0.6181  3.4081
 2075TIP3   OH227639   3.296   3.485   3.530  0.0378  0.0285 -0.4845
 2075TIP3    H127640   3.363   3.417   3.519  0.4384 -0.1159  2.2304
 2075TIP3    H227641   3.304   3.512   3.621 -1.9442  1.8266 -0.7696
 2076TIP3   OH227642   5.392   4.907   1.999  0.4072  0.2318  0.2386
 2076TIP3    H127643   5.393   4.998   1.970 -0.5215  0.6509  1.4550
 2076TIP3    H227644   5.407   4.912   2.094  3.0962 -1.0667 -0.0235
 2077TIP3   OH227645   1.330   4.085  13.795 -0.1294 -0.1084  0.6408
 2077TIP3    H127646   1.309   4.120  13.708 -1.6900 -1.1108  0.5662
 2077TIP3    H227647   1.388   4.010  13.777 -1.7462 -1.3322  0.2803
 2078TIP3   OH227648   1.255   5.734  16.608 -0.0663 -0.4981 -0.4035
 2078TIP3    H127649   1.223   5.645  16.588 -1.1657 -0.4824  1.1231
 2078TIP3    H227650   1.215   5.755  16.692  1.5414  0.8008  0.0745
 2079TIP3   OH227651   0.342   5.434  16.920  0.4974 -0.7352  0.2740
 2079TIP3    H127652   0.263   5.466  16.876  0.3197  0.7244  1.5432
 2079TIP3    H227653   0.311   5.363  16.976  0.5897 -2.0315 -1.2356
 2080TIP3   OH227654   3.312   3.114  13.792 -0.4528 -0.2606  0.0207
 2080TIP3    H127655   3.271   3.061  13.860  0.5532 -0.4427  0.5065
 2080TIP3    H227656   3.292   3.069  13.711 -1.5692 -0.1058  0.1934
 2081TIP3   OH227657   5.227   3.240  12.115  0.5954 -0.0154  0.5060
 2081TIP3    H127658   5.274   3.175  12.063  0.1691  0.6906 -0.8388
 2081TIP3    H227659   5.169   3.283  12.052  0.4515  1.2641  1.4665
 2082TIP3   OH227660   2.403   4.046  11.182  0.1589 -0.3995 -0.1120
 2082TIP3    H127661   2.463   4.075  11.113  0.0095  1.4682  0.4850
 2082TIP3    H227662   2.334   3.999  11.135  1.2032 -1.1191 -0.9780
 2083TIP3   OH227663   1.713   0.749  16.712 -0.2930 -0.0506 -0.2365
 2083TIP3    H127664   1.684   0.680  16.772  1.9363  0.0490  1.0708
 2083TIP3    H227665   1.632   0.788  16.680 -1.6127 -0.7010  2.0646
 2084TIP3   OH227666   1.224   1.202  11.550  0.6452  0.0755  0.0601
 2084TIP3    H127667   1.315   1.223  11.570  1.3661 -2.6984  0.0677
 2084TIP3    H227668   1.191   1.161  11.630 -0.4168  0.4298 -0.1790
 2085TIP3   OH227669   1.416   3.910   5.797  0.0093  0.3979 -0.2248
 2085TIP3    H127670   1.444   3.952   5.878  2.0255 -0.1466 -0.5979
 2085TIP3    H227671   1.476   3.943   5.730 -1.8208  1.1180 -1.6197
 2086TIP3   OH227672   4.008   5.342  12.397 -0.3668 -0.3224 -0.9460
 2086TIP3    H127673   3.926   5.292  12.391 -0.9831  0.4576  0.4065
 2086TIP3    H227674   3.982   5.432  12.380 -0.0568  0.1275  0.7745
 2087TIP3   OH227675   0.514   3.292   5.094  0.0229 -0.3330  0.0127
 2087TIP3    H127676   0.513   3.254   5.006 -0.1783 -1.6477  0.5432
 2087TIP3    H227677   0.585   3.355   5.093  0.2492 -0.5887 -0.9942
 2088TIP3   OH227678   3.654   6.090  11.387  0.4563 -0.1200 -0.1188
 2088TIP3    H127679   3.694   6.118  11.469 -0.0880  0.2712  0.0159
 2088TIP3    H227680   3.711   6.128  11.319 -0.1017  1.0949  0.0648
 2089TIP3   OH227681   6.106   4.227   5.645 -0.0508  0.1133 -0.0351
 2089TIP3    H127682   6.088   4.320   5.632  0.1655  0.0788 -0.6269
 2089TIP3    H227683   6.193   4.224   5.685 -0.3257  0.1883  0.5699
 2090TIP3   OH227684   6.016   4.461   3.249  0.0995  0.6263  0.2499
 2090TIP3    H127685   6.061   4.456   3.164 -1.7993  1.0258 -0.8420
 2090TIP3    H227686   6.045   4.544   3.287  1.6381  0.0408  0.4380
 2091TIP3   OH227687   4.432   5.803  15.463 -0.2732  0.0482  0.1537
 2091TIP3    H127688   4.418   5.857  15.541  0.2816  2.3536 -1.2384
 2091TIP3    H227689   4.358   5.742  15.463 -1.6301  1.5862  1.2247
 2092TIP3   OH227690   5.990   3.092  16.988 -0.2791  0.2618  0.2463
 2092TIP3    H127691   5.969   3.022  17.049 -1.0411  0.5008  0.2728
 2092TIP3    H227692   6.002   3.169  17.043  0.9786  0.0776  0.2536
 2093TIP3   OH227693   3.232   2.358   0.902 -0.0503 -0.0011  0.2460
 2093TIP3    H127694   3.174   2.424   0.864 -0.3479 -0.4196 -0.0509
 2093TIP3    H227695   3.292   2.335   0.832 -1.6111 -1.9433 -0.5779
 2094TIP3   OH227696   2.631   5.803   0.296  0.2235 -0.3585 -0.7654
 2094TIP3    H127697   2.550   5.842   0.329 -1.0063 -1.6866 -2.1075
 2094TIP3    H227698   2.679   5.777   0.376 -1.0181 -0.2555  0.0355
 2095TIP3   OH227699   4.227   6.635  12.165 -0.0514 -0.0568  0.1786
 2095TIP3    H127700   4.169   6.673  12.099 -1.3249 -0.3758  1.0896
 2095TIP3    H227701   4.220   6.540  12.151  1.4835 -0.0755 -0.7116
 2096TIP3   OH227702   5.747   5.752  16.817 -0.1307  0.3214  0.6398
 2096TIP3    H127703   5.695   5.794  16.749  1.0895  2.2555  0.8230
 2096TIP3    H227704   5.778   5.824  16.871  2.7233 -0.7039  0.5323
 2097TIP3   OH227705   5.438   6.481   3.611 -0.0666  0.5420  0.4401
 2097TIP3    H127706   5.393   6.396   3.616  0.5324  0.2686  1.3620
 2097TIP3    H227707   5.519   6.462   3.564  0.6873  0.3206  1.8024
 2098TIP3   OH227708   6.023   3.522   3.302  0.0843 -0.1973  0.2837
 2098TIP3    H127709   5.948   3.562   3.258  0.4522 -0.3073 -0.4388
 2098TIP3    H227710   6.096   3.533   3.242  0.6833 -0.0036  1.0286
 2099TIP3   OH227711   1.631   2.823   1.044 -0.1806 -0.3109 -0.1506
 2099TIP3    H127712   1.638   2.906   1.092  1.5510 -1.5895  1.9597
 2099TIP3    H227713   1.553   2.834   0.989 -0.9913  2.0742  1.3331
 2100TIP3   OH227714   4.123   3.374   4.023 -0.0085  0.0199  0.2313
 2100TIP3    H127715   4.108   3.288   3.984  0.4369  0.1277 -0.1832
 2100TIP3    H227716   4.211   3.398   3.995 -0.6566  1.2345 -0.8288
 2101TIP3   OH227717   5.508   6.126   2.212  0.5922  0.2955  0.3250
 2101TIP3    H127718   5.561   6.112   2.290  1.5220  0.5341 -0.2451
 2101TIP3    H227719   5.520   6.046   2.160  0.5963  0.4527  0.0814
 2102TIP3   OH227720   5.276   1.105   4.355 -0.2124  0.4137 -0.5435
 2102TIP3    H127721   5.181   1.104   4.358 -0.1915  0.2427  0.4786
 2102TIP3    H227722   5.303   1.133   4.442  0.6863 -0.7284 -0.4174
 2103TIP3   OH227723   1.872   4.106  17.250  0.1476  0.3374 -0.1709
 2103TIP3    H127724   1.847   4.070  17.335  1.8757 -0.5124  0.0299
 2103TIP3    H227725   1.963   4.078  17.239  0.9115  2.8991 -0.9897
 2104TIP3   OH227726   5.915   2.064  12.009  0.6449  0.5240  0.3798
 2104TIP3    H127727   5.917   2.054  11.914  1.0827  2.5020  0.1335
 2104TIP3    H227728   6.005   2.082  12.034  0.3235  1.4164  0.9685
 2105TIP3   OH227729   3.193   0.047   1.769  0.2150  0.0489 -0.3787
 2105TIP3    H127730   3.119   0.030   1.711 -1.4811  0.4002  1.5278
 2105TIP3    H227731   3.218   0.138   1.751 -0.2697  0.1439 -0.5902
 2106TIP3   OH227732   1.072   6.497  10.617  0.8815 -0.4149 -0.1702
 2106TIP3    H127733   1.140   6.559  10.646  0.2268  0.4157 -0.3608
 2106TIP3    H227734   1.004   6.553  10.579  0.2715 -1.2647 -0.3471
 2107TIP3   OH227735   6.653   4.135   5.631 -0.7368  0.4377  0.4914
 2107TIP3    H127736   6.730   4.168   5.585 -0.0597 -0.5412  0.9013
 2107TIP3    H227737   6.602   4.089   5.564 -0.2038 -0.2103  0.5244
 2108TIP3   OH227738   1.714   0.974   5.682  0.7736 -0.0793 -0.2722
 2108TIP3    H127739   1.714   0.882   5.654  0.0510 -0.4850  1.0045
 2108TIP3    H227740   1.623   0.991   5.705  1.1580  0.5607  0.7937
 2109TIP3   OH227741   1.968   0.253   2.709 -0.1374  0.1913  0.2878
 2109TIP3    H127742   1.941   0.165   2.735 -1.3476  0.4791  0.0499
 2109TIP3    H227743   2.057   0.262   2.744  0.4300 -1.5118 -0.5910
 2110TIP3   OH227744   3.606   1.076  14.153  0.2097  0.0332 -0.1493
 2110TIP3    H127745   3.582   1.144  14.215 -1.8232 -0.7482 -0.0315
 2110TIP3    H227746   3.661   1.121  14.088  1.5822  1.0464  1.6415
 2111TIP3   OH227747   5.518   3.052  12.735 -0.4949  0.7402 -0.2675
 2111TIP3    H127748   5.602   3.019  12.705 -0.2168  1.6160 -0.5009
 2111TIP3    H227749   5.495   2.996  12.809 -0.0737  0.0207 -0.6655
 2112TIP3   OH227750   1.796   0.614  11.952 -0.0086  0.0303  0.0684
 2112TIP3    H127751   1.783   0.643  11.862 -1.8254  0.4052  0.4142
 2112TIP3    H227752   1.891   0.602  11.960  0.2512  0.6564 -1.6738
 2113TIP3   OH227753   1.524   4.584  12.355 -0.2939 -0.2391 -0.0951
 2113TIP3    H127754   1.454   4.556  12.414 -0.2833  1.6082  0.8742
 2113TIP3    H227755   1.605   4.557  12.398 -0.3333 -0.0726  0.0871
 2114TIP3   OH227756   2.653   5.353   6.189  0.0845  0.3004  0.9351
 2114TIP3    H127757   2.683   5.414   6.256  1.8416  0.5170  0.0189
 2114TIP3    H227758   2.562   5.377   6.172  0.1000  1.2402  2.1286
 2115TIP3   OH227759   6.677   4.866  16.074  0.1595 -0.6623 -0.1965
 2115TIP3    H127760   6.652   4.834  16.161 -1.0941 -1.1722 -0.7146
 2115TIP3    H227761   6.594   4.882  16.030  0.7584 -1.1473 -1.5692
 2116TIP3   OH227762   6.187   3.904  11.770  0.5845 -0.5951  0.0462
 2116TIP3    H127763   6.257   3.947  11.721 -0.4626 -0.8066 -1.7076
 2116TIP3    H227764   6.131   3.976  11.801 -0.3903 -0.5551 -1.6828
 2117TIP3   OH227765   4.194   3.925   5.752 -0.0285  0.1385  0.1859
 2117TIP3    H127766   4.280   3.889   5.774  0.6733  2.2340  1.1354
 2117TIP3    H227767   4.192   3.923   5.656  1.3735  0.6743  0.1167
 2118TIP3   OH227768   2.710   4.946   3.357 -0.8877 -0.0312 -0.5631
 2118TIP3    H127769   2.729   4.977   3.269 -1.4839  0.0290 -0.6797
 2118TIP3    H227770   2.624   4.983   3.377 -0.8637 -0.2414 -0.0512
 2119TIP3   OH227771   1.660   4.232   6.677 -0.1141 -0.1791  0.5324
 2119TIP3    H127772   1.666   4.223   6.582  0.7029 -1.0998  0.6636
 2119TIP3    H227773   1.616   4.316   6.690 -0.9779 -0.4266 -0.6641
 2120TIP3   OH227774   3.655   4.475   5.317  0.1664  0.2076 -0.3852
 2120TIP3    H127775   3.720   4.438   5.377  1.9247  0.5130 -1.9915
 2120TIP3    H227776   3.604   4.535   5.371  1.9803  0.8142  0.7544
 2121TIP3   OH227777   2.508   1.626   3.921 -0.4997  0.4956  0.3553
 2121TIP3    H127778   2.413   1.635   3.909 -0.6493  0.1354  1.2381
 2121TIP3    H227779   2.519   1.543   3.967  0.4462 -0.8798 -2.1786
 2122TIP3   OH227780   4.210   1.334   1.538 -0.0445  0.2538 -0.1730
 2122TIP3    H127781   4.175   1.255   1.579 -0.0522  0.4835  0.2726
 2122TIP3    H227782   4.300   1.341   1.570  0.0130  0.3285 -0.3506
 2123TIP3   OH227783   2.314   3.234   3.818  0.0436 -0.2753  0.0922
 2123TIP3    H127784   2.221   3.220   3.835 -0.0399 -0.8294 -0.7527
 2123TIP3    H227785   2.342   3.297   3.885 -1.3743  1.3385 -0.7412
 2124TIP3   OH227786   5.957   4.787   2.260  0.5783  0.2477 -0.6662
 2124TIP3    H127787   5.964   4.813   2.352 -2.0218  0.5167 -0.4908
 2124TIP3    H227788   5.975   4.693   2.260 -3.0786 -0.6188  0.8020
 2125TIP3   OH227789   4.807   0.968   1.648  0.2976 -0.2063  0.0760
 2125TIP3    H127790   4.838   0.999   1.733  2.0136  1.4069 -1.0538
 2125TIP3    H227791   4.712   0.967   1.656  0.3964  0.6577  1.7772
 2126TIP3   OH227792   0.827   6.233   2.324 -0.1896 -0.4950 -0.1785
 2126TIP3    H127793   0.797   6.238   2.415  0.8128 -0.3008  0.1623
 2126TIP3    H227794   0.798   6.316   2.285 -0.0377 -0.2768  0.1619
 2127TIP3   OH227795   5.227   0.330   6.044  0.2390 -0.0360 -0.2743
 2127TIP3    H127796   5.300   0.269   6.055 -1.6437 -2.2008  1.0146
 2127TIP3    H227797   5.215   0.369   6.130  0.5382  1.1724 -0.7576
 2128TIP3   OH227798   1.071   4.306   1.183  0.7459 -0.5149  0.6622
 2128TIP3    H127799   1.073   4.278   1.091  0.1152 -1.0513  0.8095
 2128TIP3    H227800   1.095   4.228   1.232  0.3027 -0.4395  0.9994
 2129TIP3   OH227801   2.337   4.445   4.999  0.1102  0.9194 -0.2821
 2129TIP3    H127802   2.280   4.409   4.931  0.4157 -0.1379  0.0140
 2129TIP3    H227803   2.424   4.412   4.977 -0.1136 -1.2528  1.8262
 2130TIP3   OH227804   0.954   4.087  13.619 -0.2951  0.1281  0.2537
 2130TIP3    H127805   0.970   4.072  13.713  1.2784 -0.6650 -0.0995
 2130TIP3    H227806   0.966   4.001  13.579 -1.3085  0.3898 -0.6510
 2131TIP3   OH227807   0.173   5.314  11.767 -0.4775  0.4283 -0.1384
 2131TIP3    H127808   0.176   5.282  11.677  2.2641  1.0903 -0.3598
 2131TIP3    H227809   0.158   5.408  11.759 -3.9218  0.0762  0.3532
 2132TIP3   OH227810   5.988   6.172  13.816 -0.2043 -0.3366 -0.6331
 2132TIP3    H127811   5.996   6.268  13.816 -2.5440 -0.0655  0.7292
 2132TIP3    H227812   6.015   6.146  13.904  2.0667 -1.1992 -1.5031
 2133TIP3   OH227813   0.103   6.675   1.880  0.1976  0.4105 -0.3380
 2133TIP3    H127814   0.072   6.677   1.790 -1.5215 -0.0619  0.1956
 2133TIP3    H227815   0.023   6.671   1.932  1.1878 -1.6291  1.1474
 2134TIP3   OH227816   1.735   5.566  16.628  0.1139 -0.2865 -0.8886
 2134TIP3    H127817   1.717   5.603  16.541 -1.4041  1.5162  0.1064
 2134TIP3    H227818   1.819   5.523  16.619  1.6198  2.6763 -2.4678
 2135TIP3   OH227819   0.626   5.268  11.476  0.1569 -0.3879 -0.3151
 2135TIP3    H127820   0.678   5.322  11.416  0.0987 -1.0321 -0.9644
 2135TIP3    H227821   0.541   5.261  11.432 -0.7583  1.2441  1.0616
 2136TIP3   OH227822   5.884   3.861   4.083  0.5135  0.3882  0.0848
 2136TIP3    H127823   5.848   3.812   4.009 -0.6334 -0.2398  1.0121
 2136TIP3    H227824   5.841   3.946   4.079  1.5772  0.9085 -0.8094
 2137TIP3   OH227825   5.339   4.294  13.360  0.5293  0.0404  0.7912
 2137TIP3    H127826   5.413   4.291  13.299 -1.1830  0.6016 -1.4301
 2137TIP3    H227827   5.334   4.385  13.387  0.4447  0.0777  0.6527
 2138TIP3   OH227828   2.528   5.040  12.645  0.3459  0.3644  0.0676
 2138TIP3    H127829   2.492   4.955  12.620  1.4469  0.2394 -1.2397
 2138TIP3    H227830   2.614   5.019  12.683 -0.4208  0.7320  2.1350
 2139TIP3   OH227831   5.039   1.363  15.257  0.5921  0.2236 -0.2231
 2139TIP3    H127832   5.056   1.392  15.346 -2.1124  1.2512  0.0306
 2139TIP3    H227833   5.041   1.267  15.262 -1.4969  0.1959  1.4469
 2140TIP3   OH227834   6.313   1.091  13.498  0.7026  0.3860  0.7472
 2140TIP3    H127835   6.388   1.130  13.452  2.6059 -0.5091  2.8733
 2140TIP3    H227836   6.349   1.013  13.540 -1.5336 -0.2506  1.6090
 2141TIP3   OH227837   2.376   2.455  16.326 -0.4012 -0.0496 -0.5847
 2141TIP3    H127838   2.347   2.544  16.307 -2.5236 -0.3660  0.7764
 2141TIP3    H227839   2.312   2.422  16.391  1.5419 -1.8137  0.5680
 2142TIP3   OH227840   4.157   4.357  13.556 -0.2619  0.0685 -0.1754
 2142TIP3    H127841   4.137   4.267  13.530  0.4394 -0.1078 -0.1096
 2142TIP3    H227842   4.223   4.349  13.625  2.5362  0.6740 -2.5479
 2143TIP3   OH227843   0.115   6.036  16.897  0.3895 -0.2897  0.6250
 2143TIP3    H127844   0.098   5.969  16.830  0.4377  0.1468  0.1739
 2143TIP3    H227845   0.038   6.092  16.894 -0.0567 -0.8276  1.6240
 2144TIP3   OH227846   3.085   6.469  10.645  0.0526 -0.0474 -0.3347
 2144TIP3    H127847   3.051   6.395  10.596 -0.6608  0.6380 -0.9043
 2144TIP3    H227848   3.009   6.526  10.658  0.3550  0.0776  1.0498
 2145TIP3   OH227849   4.976   4.921   0.548 -0.6066 -0.3203  0.2499
 2145TIP3    H127850   4.901   4.879   0.590 -0.3410 -1.6552 -0.5340
 2145TIP3    H227851   4.993   4.998   0.601 -1.8060 -0.6235  1.1247
 2146TIP3   OH227852   6.400   6.223   1.561  0.0747  0.7312 -0.7838
 2146TIP3    H127853   6.308   6.239   1.542  0.0362  0.9365 -0.4486
 2146TIP3    H227854   6.437   6.194   1.478 -0.4935 -0.3039 -0.6891
 2147TIP3   OH227855   6.052   3.980   2.717  0.1833 -0.1825  0.1676
 2147TIP3    H127856   5.997   3.902   2.725  0.8810 -0.9508 -1.8865
 2147TIP3    H227857   6.139   3.951   2.744  0.3959 -0.0476 -0.3714
 2148TIP3   OH227858   0.282   1.127  11.852 -0.3479 -0.2559  0.4390
 2148TIP3    H127859   0.320   1.041  11.867 -1.1135 -0.4604  1.3512
 2148TIP3    H227860   0.219   1.138  11.923 -1.5765  0.2909 -0.6836
 2149TIP3   OH227861   0.526   2.539   1.317  0.0831  0.2774  0.9881
 2149TIP3    H127862   0.578   2.476   1.367  0.4424 -0.0624  0.1980
 2149TIP3    H227863   0.564   2.537   1.229 -3.1124 -2.2311 -0.5382
 2150TIP3   OH227864   2.618   2.090  15.814  0.0718 -0.3932  0.0706
 2150TIP3    H127865   2.599   1.997  15.803 -0.1906 -0.4814  1.1613
 2150TIP3    H227866   2.704   2.092  15.855  0.1774 -0.1461 -0.1626
 2151TIP3   OH227867   6.401   4.771  13.722 -0.4167  0.6529 -0.2470
 2151TIP3    H127868   6.314   4.788  13.758 -0.6312 -1.9959  0.6488
 2151TIP3    H227869   6.461   4.787  13.795 -0.5442 -1.3102  0.3331
 2152TIP3   OH227870   0.543   4.451   3.707  0.1968 -0.2104 -0.1231
 2152TIP3    H127871   0.562   4.428   3.616 -2.4691 -0.0773 -0.7901
 2152TIP3    H227872   0.548   4.368   3.755  0.5070 -0.4676 -0.5928
 2153TIP3   OH227873   2.700   0.974  15.449 -0.0257 -0.1746 -0.0378
 2153TIP3    H127874   2.743   0.920  15.383  0.1715 -0.1749  0.0905
 2153TIP3    H227875   2.675   0.913  15.518  3.4515  0.3157  1.8639
 2154TIP3   OH227876   5.060   5.634  16.270 -0.5480 -0.4170  0.0163
 2154TIP3    H127877   5.122   5.609  16.202  0.1647  1.8267 -0.2283
 2154TIP3    H227878   5.003   5.698  16.228  0.2619  1.4574  1.6285
 2155TIP3   OH227879   1.323   4.464   2.980 -0.9040  0.3621  0.4418
 2155TIP3    H127880   1.267   4.512   2.919 -0.3731  1.7185  0.9946
 2155TIP3    H227881   1.276   4.383   2.997 -1.6962  0.5553 -0.7245
 2156TIP3   OH227882   4.588   5.815  11.586  0.2818 -0.3913 -0.0073
 2156TIP3    H127883   4.530   5.834  11.512 -0.1395  0.8796  0.6274
 2156TIP3    H227884   4.551   5.864  11.659  1.0020 -1.1930  0.9259
 2157TIP3   OH227885   1.585   0.126  15.896 -0.5913 -0.3396 -0.2331
 2157TIP3    H127886   1.636   0.066  15.950  2.1325 -1.2814 -3.4920
 2157TIP3    H227887   1.512   0.073  15.863 -0.6843 -0.5658  0.3407
 2158TIP3   OH227888   3.416   6.484   0.930 -0.6461  0.2571  0.2300
 2158TIP3    H127889   3.417   6.389   0.919  2.9476  0.3479 -1.3612
 2158TIP3    H227890   3.408   6.497   1.025  0.5421 -1.7094  0.6470
 2159TIP3   OH227891   4.208   2.333   5.122 -0.2659 -0.1815 -0.2913
 2159TIP3    H127892   4.189   2.328   5.029 -4.4558 -2.2730  0.4285
 2159TIP3    H227893   4.126   2.363   5.162  0.9866 -0.5213  2.8036
 2160TIP3   OH227894   1.298   3.957   3.645 -0.0584  0.0657 -0.4322
 2160TIP3    H127895   1.357   3.965   3.570 -1.9104  1.8412 -1.8116
 2160TIP3    H227896   1.342   4.007   3.714  1.0346 -0.4377 -0.7365
 2161TIP3   OH227897   2.122   2.076   4.362  0.0931  0.6295 -0.3220
 2161TIP3    H127898   2.030   2.096   4.350 -0.1691 -0.3916 -0.0958
 2161TIP3    H227899   2.124   2.016   4.437  0.7407 -0.9212 -1.5294
 2162TIP3   OH227900   1.184   3.521  12.900  0.0648  0.2662  0.2339
 2162TIP3    H127901   1.231   3.600  12.926  0.7824  0.6269 -2.0032
 2162TIP3    H227902   1.251   3.453  12.898 -0.0305  0.1864 -0.3783
 2163TIP3   OH227903   1.703   1.270   4.508 -0.2356  0.2732  0.0229
 2163TIP3    H127904   1.712   1.350   4.455 -0.3244 -0.4293 -1.0737
 2163TIP3    H227905   1.611   1.271   4.536 -0.2333  0.5715  0.0222
 2164TIP3   OH227906   6.154   2.047  12.898 -0.0081  0.0308  0.1834
 2164TIP3    H127907   6.079   2.008  12.942 -1.0499  2.4009  0.6837
 2164TIP3    H227908   6.205   2.087  12.969  1.1430 -0.5829 -0.2674
 2165TIP3   OH227909   1.012   6.234   0.371 -0.2746  0.8157 -0.2798
 2165TIP3    H127910   1.080   6.301   0.372 -0.0854  0.6171  0.4147
 2165TIP3    H227911   1.053   6.158   0.331 -0.6719  1.2857 -1.6491
 2166TIP3   OH227912   2.855   1.845   6.126  0.4747  0.5730 -0.0429
 2166TIP3    H127913   2.822   1.825   6.214 -0.3529 -1.7876 -0.8290
 2166TIP3    H227914   2.938   1.891   6.141 -0.1030  1.0600  1.9485
 2167TIP3   OH227915   2.194   4.141   0.102  0.1894 -0.7740  0.3226
 2167TIP3    H127916   2.258   4.161   0.170 -0.6486 -1.7085  1.4390
 2167TIP3    H227917   2.240   4.155   0.019  1.3185  0.1323  1.0821
 2168TIP3   OH227918   6.459   2.256  15.650  0.0478  0.5196  0.2084
 2168TIP3    H127919   6.443   2.341  15.690  1.0554  1.5033 -1.3759
 2168TIP3    H227920   6.550   2.260  15.620  0.6761 -1.7627  1.5727
 2169TIP3   OH227921   4.406   6.295   3.127  0.2063 -0.2279  0.0264
 2169TIP3    H127922   4.401   6.313   3.033  0.7902  1.7618  0.3445
 2169TIP3    H227923   4.314   6.283   3.153  0.1323 -3.0220 -1.1215
 2170TIP3   OH227924   4.329   5.753   5.376  0.4076 -0.0001  0.1467
 2170TIP3    H127925   4.371   5.703   5.446  0.3145 -0.5018 -0.1506
 2170TIP3    H227926   4.394   5.818   5.351  0.3248  0.3935  0.9141
 2171TIP3   OH227927   4.846   2.866   4.915  0.2962  0.2245 -0.4718
 2171TIP3    H127928   4.827   2.855   5.008  0.0043  1.7598 -0.3225
 2171TIP3    H227929   4.941   2.856   4.909  0.1559 -1.4585 -0.2800
 2172TIP3   OH227930   3.758   3.676  12.684  0.0510 -0.0564  0.0048
 2172TIP3    H127931   3.710   3.597  12.658  0.5218 -0.7233  1.0890
 2172TIP3    H227932   3.842   3.643  12.716  0.2620  0.8907  0.4539
 2173TIP3   OH227933   2.349   1.086   3.119  0.0391  0.6137 -0.2583
 2173TIP3    H127934   2.353   1.019   3.187 -0.3139  0.4199 -0.4275
 2173TIP3    H227935   2.356   1.169   3.167  1.5311  0.4524 -0.1238
 2174TIP3   OH227936   1.603   1.378  16.477  0.2266  0.1537 -0.0700
 2174TIP3    H127937   1.530   1.411  16.528  1.2144  0.4994  1.1556
 2174TIP3    H227938   1.600   1.428  16.395  0.9498  2.4656  1.2274
 2175TIP3   OH227939   0.397   5.592  13.634  0.7037  0.2568 -0.1572
 2175TIP3    H127940   0.486   5.561  13.617  1.1906  0.1801  2.2440
 2175TIP3    H227941   0.358   5.525  13.690  0.1403  1.6742  1.2065
 2176TIP3   OH227942   6.279   5.140  11.226  0.4184  0.4028 -0.6021
 2176TIP3    H127943   6.353   5.090  11.192  0.1639 -0.1166 -0.4101
 2176TIP3    H227944   6.294   5.230  11.196  0.4609  0.0560 -1.6439
 2177TIP3   OH227945   2.619   3.186   5.142 -0.3114 -0.4556 -0.6238
 2177TIP3    H127946   2.609   3.275   5.108 -0.7793 -0.3793 -0.2934
 2177TIP3    H227947   2.583   3.130   5.073 -0.1416 -0.3811 -0.7738
 2178TIP3   OH227948   5.898   1.351  13.533  0.1523 -0.0792  0.2424
 2178TIP3    H127949   5.968   1.330  13.472 -0.9856  3.4324 -2.5508
 2178TIP3    H227950   5.934   1.419  13.589 -0.3951  0.3049  0.1346
 2179TIP3   OH227951   4.743   4.094   2.268 -0.6893 -0.4499  0.5864
 2179TIP3    H127952   4.744   4.139   2.352  0.7825 -0.0202  0.3616
 2179TIP3    H227953   4.707   4.158   2.206 -1.3924 -0.6285  0.8000
 2180TIP3   OH227954   2.101   4.824   3.696 -0.7914  0.1293  0.4015
 2180TIP3    H127955   2.075   4.870   3.776 -0.3448  0.3317  0.4369
 2180TIP3    H227956   2.028   4.767   3.676 -0.3502 -0.9662  1.7443
 2181TIP3   OH227957   6.583   0.643  11.806  0.2000  0.5236 -0.0976
 2181TIP3    H127958   6.659   0.681  11.762 -0.2821  1.0082 -0.5346
 2181TIP3    H227959   6.509   0.671  11.753 -0.2897  0.1038  0.3564
 2182TIP3   OH227960   2.081   4.485  11.926  0.0214  0.2563  0.7171
 2182TIP3    H127961   2.025   4.555  11.959  0.8948  0.9080  0.8629
 2182TIP3    H227962   2.124   4.450  12.003  0.6123  0.4833  0.4959
 2183TIP3   OH227963   5.141   3.757  16.170  0.0862 -0.4990  0.5578
 2183TIP3    H127964   5.173   3.763  16.260  0.6032 -0.3892  0.3711
 2183TIP3    H227965   5.052   3.791  16.173  0.4521  0.4811  0.8499
 2184TIP3   OH227966   4.652   0.469  14.166  0.0854 -0.2568  0.2322
 2184TIP3    H127967   4.710   0.495  14.095  0.0152 -0.8386 -0.0397
 2184TIP3    H227968   4.583   0.418  14.124  1.0906 -2.3074  0.9319
 2185TIP3   OH227969   4.224   5.748   3.430  0.0644  0.1989 -0.0314
 2185TIP3    H127970   4.284   5.760   3.504  0.3615 -0.2467 -0.1969
 2185TIP3    H227971   4.141   5.783   3.461  0.3735  0.7041  0.2500
 2186TIP3   OH227972   6.571   6.326  15.200 -0.2104 -0.4902 -0.2421
 2186TIP3    H127973   6.527   6.356  15.121  0.9189 -0.0071 -0.7141
 2186TIP3    H227974   6.581   6.232  15.188  1.5713 -0.1818 -1.5524
 2187TIP3   OH227975   4.604   5.947   3.629  0.3039 -0.4296  0.2876
 2187TIP3    H127976   4.562   5.936   3.544  3.2518 -1.1018 -1.1953
 2187TIP3    H227977   4.659   5.870   3.640 -0.8905 -1.0093  3.4558
 2188TIP3   OH227978   5.001   6.561   4.432 -0.2804 -0.6052 -0.5248
 2188TIP3    H127979   4.984   6.636   4.374  1.2437 -0.2956 -0.6036
 2188TIP3    H227980   5.056   6.597   4.501  1.4064 -1.8601 -1.1466
 2189TIP3   OH227981   1.808   1.529   1.517  0.2903  0.3919 -0.5795
 2189TIP3    H127982   1.833   1.443   1.552  0.1143  0.1732 -0.9839
 2189TIP3    H227983   1.751   1.566   1.584 -0.0798 -0.0428 -0.6452
 2190TIP3   OH227984   3.213   2.159  13.514  0.1702  0.0822  0.7417
 2190TIP3    H127985   3.307   2.140  13.516 -0.1128 -1.6256 -0.2124
 2190TIP3    H227986   3.184   2.147  13.605  1.0240  1.5817  1.2352
 2191TIP3   OH227987   3.906   2.718   0.929 -0.4185 -0.6721  0.9638
 2191TIP3    H127988   3.920   2.663   0.851  1.6007  1.8203 -0.6118
 2191TIP3    H227989   3.971   2.686   0.992  1.9972  0.8310 -0.5844
 2192TIP3   OH227990   5.604   4.698  15.247 -0.3393  0.1906  0.2450
 2192TIP3    H127991   5.616   4.633  15.178  0.4275 -1.1245  1.5549
 2192TIP3    H227992   5.602   4.782  15.201 -0.7329 -0.7050 -1.4357
 2193TIP3   OH227993   3.729   1.366  11.427 -0.0793 -0.4917 -0.3574
 2193TIP3    H127994   3.794   1.296  11.438 -1.8423 -2.1914 -0.2455
 2193TIP3    H227995   3.742   1.396  11.337 -0.0742 -1.8417 -0.8346
 2194TIP3   OH227996   2.672   5.822   6.647  0.1426 -0.2988 -0.7036
 2194TIP3    H127997   2.617   5.788   6.577 -1.3856 -1.6132  1.0424
 2194TIP3    H227998   2.625   5.898   6.681  0.2436 -0.3931 -0.3399
 2195TIP3   OH227999   0.868   0.208   3.865 -0.9076 -0.5482 -0.0101
 2195TIP3    H128000   0.925   0.246   3.932  0.7415  0.3806 -1.8296
 2195TIP3    H228001   0.832   0.130   3.906 -1.9855  1.2827  2.8142
 2196TIP3   OH228002   4.050   4.886   2.943  0.7668 -0.4097  0.1546
 2196TIP3    H128003   3.992   4.843   3.007 -1.2621  1.0876 -0.5830
 2196TIP3    H228004   4.105   4.815   2.909  0.3400 -1.6420  1.8940
 2197TIP3   OH228005   6.151   4.710  13.379 -0.1096 -0.0753 -0.1236
 2197TIP3    H128006   6.101   4.695  13.298  0.1954 -0.6151 -0.2142
 2197TIP3    H228007   6.242   4.715  13.350  0.1350 -1.5462  0.3337
 2198TIP3   OH228008   5.006   4.856   0.890 -0.3923  0.0120  0.5765
 2198TIP3    H128009   4.927   4.826   0.846  0.0379 -2.0422  1.0904
 2198TIP3    H228010   5.006   4.810   0.974  1.3636 -0.0818  0.5647
 2199TIP3   OH228011   3.152   0.476  14.448  0.3374 -0.2744  0.1736
 2199TIP3    H128012   3.169   0.553  14.501  1.4169 -0.8417  0.6902
 2199TIP3    H228013   3.202   0.491  14.367 -0.0127 -0.1272 -0.0180
 2200TIP3   OH228014   3.207   2.263  15.457  0.0351  0.2966 -0.0117
 2200TIP3    H128015   3.123   2.301  15.431 -0.3364 -2.3460 -3.5632
 2200TIP3    H228016   3.269   2.336  15.453 -1.4561  1.5717 -1.2439
 2201TIP3   OH228017   2.611   2.233   1.482 -0.1004 -0.1891 -0.1376
 2201TIP3    H128018   2.639   2.149   1.518  0.1141  0.1880  0.6033
 2201TIP3    H228019   2.517   2.235   1.499  0.0303  0.0711  0.6108
 2202TIP3   OH228020   5.319   4.446  16.981  0.3152 -0.1976 -0.0216
 2202TIP3    H128021   5.390   4.476  16.924  0.6840 -1.8918 -0.5116
 2202TIP3    H228022   5.240   4.461  16.930  0.4997 -0.1819 -0.3090
 2203TIP3   OH228023   6.483   1.649  16.077  0.1334  0.0241 -0.6828
 2203TIP3    H128024   6.409   1.647  16.138 -0.2750  0.9101 -1.1341
 2203TIP3    H228025   6.475   1.567  16.028 -0.4445  0.0267 -0.6055
 2204TIP3   OH228026   4.602   5.382   3.157  0.0245 -0.0591  0.0147
 2204TIP3    H128027   4.582   5.461   3.107  1.2081  1.1652  1.4065
 2204TIP3    H228028   4.693   5.362   3.136  0.2256 -0.1122  0.9022
 2205TIP3   OH228029   2.289   5.867  14.403 -0.2088 -0.3951 -0.0942
 2205TIP3    H128030   2.356   5.815  14.449 -2.3002 -0.8782  2.6883
 2205TIP3    H228031   2.228   5.894  14.472 -1.3162  2.5726 -2.0317
 2206TIP3   OH228032   6.237   2.930  16.962  0.0425 -0.5044  0.1767
 2206TIP3    H128033   6.316   2.982  16.971  0.4188 -0.9159 -0.7007
 2206TIP3    H228034   6.167   2.994  16.953  0.6131 -0.1110 -1.8815
 2207TIP3   OH228035   4.632   0.820  10.966 -0.2537  0.1632 -0.1183
 2207TIP3    H128036   4.576   0.846  10.893  0.8920  0.1757 -1.0248
 2207TIP3    H228037   4.700   0.766  10.926 -0.3863 -0.9987  1.1572
 2208TIP3   OH228038   1.888   2.241   0.323  0.1354 -0.3541  0.5059
 2208TIP3    H128039   1.969   2.262   0.277  0.8581 -1.5542  1.1891
 2208TIP3    H228040   1.831   2.316   0.307  0.8866 -0.0961 -1.1096
 2209TIP3   OH228041   3.388   2.347  10.752  0.0880 -0.2485  0.1359
 2209TIP3    H128042   3.357   2.386  10.670  2.1843 -0.5669 -0.9022
 2209TIP3    H228043   3.385   2.418  10.816 -0.0651  0.4599 -0.6428
 2210TIP3   OH228044   2.393   2.312  10.780 -0.3309 -0.2388  0.4721
 2210TIP3    H128045   2.446   2.284  10.854  0.5820  0.4002  0.0755
 2210TIP3    H228046   2.437   2.391  10.747 -0.6097 -0.6146 -0.8582
 2211TIP3   OH228047   2.780   1.269  16.755 -0.1625  0.8940  0.0347
 2211TIP3    H128048   2.823   1.189  16.725 -1.6536 -1.3505  3.3091
 2211TIP3    H228049   2.687   1.252  16.743 -0.4917  2.6853 -0.2781
 2212TIP3   OH228050   2.681   5.472  16.385 -0.3226  0.6342  0.3093
 2212TIP3    H128051   2.721   5.462  16.298  1.4388  0.4607  1.1128
 2212TIP3    H228052   2.658   5.565  16.389 -1.5545  0.4153 -0.7856
 2213TIP3   OH228053   0.803   3.274   1.388  0.4288  0.1982  0.2776
 2213TIP3    H128054   0.882   3.226   1.360  0.4206  0.7859 -0.8238
 2213TIP3    H228055   0.761   3.299   1.306 -1.1885 -0.5350  0.8569
 2214TIP3   OH228056   4.416   2.789   4.248 -0.0517 -0.1633  0.6710
 2214TIP3    H128057   4.412   2.743   4.164 -2.3428 -1.3442  1.3615
 2214TIP3    H228058   4.474   2.735   4.302 -0.2182 -0.5192  0.4948
 2215TIP3   OH228059   2.957   3.538  14.693  0.0157 -0.1906  0.0520
 2215TIP3    H128060   3.048   3.564  14.675 -0.0517  0.2291  0.2979
 2215TIP3    H228061   2.912   3.552  14.610  0.2524 -0.7691 -0.1811
 2216TIP3   OH228062   0.732   3.360  14.551  0.2382 -0.1053  0.0782
 2216TIP3    H128063   0.758   3.433  14.495 -2.3542  0.4328 -0.5660
 2216TIP3    H228064   0.759   3.386  14.639  2.0906  0.1934 -0.5411
 2217TIP3   OH228065   3.406   5.786  15.369  0.4494 -0.0673 -0.3919
 2217TIP3    H128066   3.400   5.697  15.334 -0.2539 -0.6649  1.1665
 2217TIP3    H228067   3.453   5.777  15.452 -0.1531  0.9194  0.0831
 2218TIP3   OH228068   0.809   1.425   2.758 -0.4351  0.4019 -0.3646
 2218TIP3    H128069   0.765   1.344   2.730  1.0971 -0.9018  0.8084
 2218TIP3    H228070   0.747   1.465   2.819 -0.2141 -1.2385  1.0242
 2219TIP3   OH228071   2.991   0.502  16.899  0.7278  0.0170 -0.0026
 2219TIP3    H128072   2.915   0.476  16.951  0.2136  0.1950 -0.6539
 2219TIP3    H228073   3.038   0.421  16.882  0.0212 -0.2770 -0.6242
 2220TIP3   OH228074   2.872   4.020   1.769  0.0606 -0.2665 -0.0359
 2220TIP3    H128075   2.962   4.000   1.742  0.3384  2.8331 -1.9096
 2220TIP3    H228076   2.873   4.114   1.787 -2.4179 -0.5025  1.8050
 2221TIP3   OH228077   4.258   0.779  11.205  0.2859 -0.1024 -0.0078
 2221TIP3    H128078   4.334   0.799  11.259  0.5635  0.0248 -0.4359
 2221TIP3    H228079   4.282   0.810  11.117 -0.8517  1.4151  0.1564
 2222TIP3   OH228080   5.213   3.118   5.265  0.1340  0.0348 -0.6592
 2222TIP3    H128081   5.173   3.177   5.202 -0.8892 -0.5059 -0.5238
 2222TIP3    H228082   5.225   3.172   5.344 -1.1049 -0.0083 -0.4231
 2223TIP3   OH228083   6.772   4.120   2.217  0.2494 -0.0031  0.3837
 2223TIP3    H128084   6.755   4.117   2.123  0.4665  1.6917  0.2599
 2223TIP3    H228085   6.693   4.160   2.254  1.0413  1.3645  0.6443
 2224TIP3   OH228086   4.744   6.414   3.802 -0.1158 -0.1072 -0.2126
 2224TIP3    H128087   4.814   6.446   3.858  0.5483 -0.5791 -0.7671
 2224TIP3    H228088   4.710   6.492   3.759 -1.6663  0.5019  1.9541
 2225TIP3   OH228089   1.441   1.802   4.639 -0.0195 -0.5595 -0.0539
 2225TIP3    H128090   1.361   1.749   4.633  0.1911 -0.9902  0.8149
 2225TIP3    H228091   1.421   1.866   4.707  0.0525 -0.0878 -0.4765
 2226TIP3   OH228092   4.009   3.037   3.012 -0.0665  0.1342  0.3372
 2226TIP3    H128093   3.993   3.107   3.076  2.0403 -0.4135  1.5543
 2226TIP3    H228094   4.042   3.083   2.935 -2.8603  0.8252 -0.5579
 2227TIP3   OH228095   1.406   5.273  11.527  0.7490 -0.2310  0.1732
 2227TIP3    H128096   1.483   5.240  11.482  0.5932 -0.5673  0.1468
 2227TIP3    H228097   1.407   5.367  11.512  0.3915 -0.4073 -1.0153
 2228TIP3   OH228098   3.927   2.731   5.753  0.3210  0.0330 -0.2789
 2228TIP3    H128099   3.951   2.822   5.738 -0.1059  0.3354  0.7319
 2228TIP3    H228100   3.851   2.736   5.811  1.2032 -0.9769  1.0281
 2229TIP3   OH228101   2.047   2.016   1.541 -0.6121 -0.2471 -0.3116
 2229TIP3    H128102   2.072   2.011   1.634 -1.2374 -0.9593 -0.1753
 2229TIP3    H228103   1.978   2.082   1.539 -1.6231 -1.2613 -0.0235
 2230TIP3   OH228104   1.138   4.518   5.805  0.4178  0.0363 -0.1952
 2230TIP3    H128105   1.101   4.431   5.794 -1.7533  0.8393  0.2719
 2230TIP3    H228106   1.077   4.564   5.863  2.2073  1.4645  0.6848
 2231TIP3   OH228107   2.307   2.735  12.856  0.2390  0.2394 -0.2394
 2231TIP3    H128108   2.347   2.769  12.776 -1.1414 -1.3180 -1.6550
 2231TIP3    H228109   2.375   2.680  12.895  0.3376 -0.4134 -1.3007
 2232TIP3   OH228110   5.427   1.344  14.053 -0.2764 -0.3506 -0.0576
 2232TIP3    H128111   5.497   1.315  14.111 -0.3575  0.1574  0.2959
 2232TIP3    H228112   5.397   1.263  14.010 -1.9224 -1.1924  2.4452
 2233TIP3   OH228113   3.393   1.426   1.898  0.1971  0.1359  0.5474
 2233TIP3    H128114   3.361   1.369   1.827  0.5882 -0.9011  1.1790
 2233TIP3    H228115   3.441   1.495   1.853 -1.0736  0.5087 -0.2943
 2234TIP3   OH228116   1.242   5.083  11.662 -0.7391 -0.3480 -0.1012
 2234TIP3    H128117   1.312   5.022  11.684 -1.2589 -0.7549  0.4457
 2234TIP3    H228118   1.278   5.136  11.590 -0.3059 -1.3350 -0.6308
 2235TIP3   OH228119   2.100   3.917   5.974 -0.3447 -0.0536 -0.6280
 2235TIP3    H128120   2.109   3.836   6.024 -0.6523  0.5687  0.4930
 2235TIP3    H228121   2.180   3.967   5.996 -0.7394  0.4520 -0.2997
 2236TIP3   OH228122   4.870   0.493  12.102 -0.4423  0.4250 -1.0458
 2236TIP3    H128123   4.831   0.425  12.047 -0.2735  1.3240 -2.3201
 2236TIP3    H228124   4.802   0.513  12.167 -1.2898  0.4541 -1.9144
 2237TIP3   OH228125   4.464   4.023   0.431  0.2868 -0.5526 -0.0120
 2237TIP3    H128126   4.487   4.115   0.420  0.6049 -0.6584 -0.2220
 2237TIP3    H228127   4.378   4.026   0.473  0.3908 -0.1611  0.1836
 2238TIP3   OH228128   3.303   0.133  11.238  0.4004 -0.6311 -0.0687
 2238TIP3    H128129   3.275   0.065  11.177 -0.2776 -0.2709 -0.1680
 2238TIP3    H228130   3.324   0.209  11.184  2.3295 -1.1050 -0.0655
 2239TIP3   OH228131   2.188   6.427  13.880  0.0419 -0.2472  0.2128
 2239TIP3    H128132   2.207   6.334  13.893  1.2326 -0.0843 -0.1525
 2239TIP3    H228133   2.176   6.436  13.785 -0.9636 -0.1751  0.3441
 2240TIP3   OH228134   1.686   4.829  15.516 -0.4978  0.4552  0.5733
 2240TIP3    H128135   1.592   4.811  15.518 -0.6577  1.2646  0.5977
 2240TIP3    H228136   1.720   4.772  15.448 -0.8440 -0.5709  1.2426
 2241TIP3   OH228137   6.358   4.958   4.900 -0.2313 -0.2044 -0.3523
 2241TIP3    H128138   6.370   4.872   4.858 -0.5393  0.1855 -1.2658
 2241TIP3    H228139   6.287   4.944   4.962 -0.9789 -0.3718 -1.2269
 2242TIP3   OH228140   3.191   6.756   3.367 -0.0879 -0.5194 -0.3396
 2242TIP3    H128141   3.231   6.685   3.317  1.1261  0.4287 -0.7545
 2242TIP3    H228142   3.212   6.835   3.318 -0.1240  0.2839  0.8941
 2243TIP3   OH228143   2.703   4.903   0.466  0.1641 -0.9445 -0.2414
 2243TIP3    H128144   2.669   4.983   0.427 -1.2355 -1.2616  0.2533
 2243TIP3    H228145   2.657   4.833   0.419  0.6393 -1.4209 -0.0047
 2244TIP3   OH228146   3.998   5.108  13.977  0.2901  0.6441 -0.1929
 2244TIP3    H128147   4.035   5.173  13.917 -1.1172  0.9051 -0.8029
 2244TIP3    H228148   4.073   5.054  14.002  0.7787 -0.0593 -2.8876
 2245TIP3   OH228149   1.777   2.747   4.126  0.2341  0.1493  0.1601
 2245TIP3    H128150   1.869   2.747   4.099  0.3978  1.2392  0.6684
 2245TIP3    H228151   1.772   2.812   4.196 -0.5494 -1.3259  1.5399
 2246TIP3   OH228152   4.404   1.709   3.378 -0.2523 -0.8562  0.0557
 2246TIP3    H128153   4.336   1.659   3.333 -0.1081 -1.5496  0.5830
 2246TIP3    H228154   4.410   1.669   3.465 -0.0699  0.0330  0.4626
 2247TIP3   OH228155   3.191   5.959   6.213  0.0594  0.8134  0.8603
 2247TIP3    H128156   3.256   5.920   6.154 -0.3394 -0.5619  1.2784
 2247TIP3    H228157   3.241   5.984   6.291  0.0255 -0.9427  1.4972
 2248TIP3   OH228158   6.736   2.092   2.680  0.2500  0.5617  0.1176
 2248TIP3    H128159   6.683   2.025   2.638  0.9790  0.7770 -1.2198
 2248TIP3    H228160   6.773   2.049   2.757 -1.2192  0.1869  0.6362
 2249TIP3   OH228161   0.162   1.386  11.493 -0.6501 -0.4684  0.0357
 2249TIP3    H128162   0.081   1.435  11.507  1.1614  2.0496  2.7086
 2249TIP3    H228163   0.221   1.447  11.449 -0.2972 -2.4905 -2.5477
 2250TIP3   OH228164   6.624   0.414   1.412  0.2357  0.1604 -0.1587
 2250TIP3    H128165   6.553   0.350   1.423 -1.1691  1.6354 -0.2422
 2250TIP3    H228166   6.667   0.417   1.498  2.0418 -2.7244 -0.8211
 2251TIP3   OH228167   3.916   5.293  15.579 -0.1941 -0.1850  0.1636
 2251TIP3    H128168   3.919   5.200  15.601  0.3473  0.2209  1.9786
 2251TIP3    H228169   3.826   5.319  15.600 -0.0457 -0.0839  0.6988
 2252TIP3   OH228170   0.850   5.924  15.360  0.5227 -0.2402  0.4141
 2252TIP3    H128171   0.832   6.006  15.314  0.6191  0.1020  0.9878
 2252TIP3    H228172   0.774   5.869  15.339  0.1631  0.2065  0.5244
 2253TIP3   OH228173   2.327   6.057  10.418  0.0619  0.2111  0.4356
 2253TIP3    H128174   2.342   6.148  10.390 -1.5229  0.3374 -0.1382
 2253TIP3    H228175   2.329   6.061  10.513  1.1486  0.6208  0.4104
 2254TIP3   OH228176   3.765   3.140   6.782  0.6271  0.9011 -0.2393
 2254TIP3    H128177   3.825   3.108   6.849  0.6399  1.6950  0.1455
 2254TIP3    H228178   3.691   3.177   6.831 -1.0538 -1.6032 -0.7133
 2255TIP3   OH228179   0.207   2.182   3.920 -0.0713 -0.3040 -0.2618
 2255TIP3    H128180   0.196   2.272   3.888  0.3118 -1.0958 -2.8800
 2255TIP3    H228181   0.177   2.128   3.847  2.9423 -2.3446 -0.1342
 2256TIP3   OH228182   2.894   4.001  16.801 -0.8986 -0.1418 -0.1944
 2256TIP3    H128183   2.908   3.918  16.756 -1.9583  0.0888 -0.9891
 2256TIP3    H228184   2.979   4.044  16.798 -1.0684  0.1707 -2.6731
 2257TIP3   OH228185   6.304   3.083   1.632  0.0094 -0.1922 -0.7366
 2257TIP3    H128186   6.360   3.138   1.686 -0.9040 -0.7202  0.8514
 2257TIP3    H228187   6.274   3.140   1.561  0.5435  0.8071 -0.1779
 2258TIP3   OH228188   1.119   0.344  16.560  0.2358  0.4604  0.0133
 2258TIP3    H128189   1.041   0.385  16.597  0.2817 -0.0993  0.7600
 2258TIP3    H228190   1.138   0.271  16.619  1.6119  0.8780  0.1204
 2259TIP3   OH228191   0.255   3.318   4.744 -0.4861 -0.1255  0.4802
 2259TIP3    H128192   0.228   3.227   4.749  1.5054 -0.7761  0.0251
 2259TIP3    H228193   0.337   3.322   4.792  0.3525  1.0467 -0.9525
 2260TIP3   OH228194   6.165   1.923  11.611 -0.0982 -0.5989  0.2814
 2260TIP3    H128195   6.105   1.920  11.685  0.5720  1.2904  0.9586
 2260TIP3    H228196   6.243   1.877  11.641  0.3347  0.5323  0.9426
 2261TIP3   OH228197   2.382   3.100  11.918 -0.0231  0.5014 -0.1608
 2261TIP3    H128198   2.288   3.118  11.918 -0.2362 -0.5422  0.5220
 2261TIP3    H228199   2.423   3.186  11.902 -1.0270  1.3146  1.4086
 2262TIP3   OH228200   1.628   3.367   3.422  0.0168 -0.2591  0.2876
 2262TIP3    H128201   1.657   3.327   3.340  0.5139 -2.4047  1.4440
 2262TIP3    H228202   1.581   3.446   3.395 -0.8714 -1.5379 -2.1127
 2263TIP3   OH228203   5.241   6.683   4.121  0.3741 -0.2268  0.0883
 2263TIP3    H128204   5.236   6.592   4.091 -0.5195 -0.2896  0.3928
 2263TIP3    H228205   5.294   6.678   4.200  1.7107 -0.2347 -0.7911
 2264TIP3   OH228206   6.592   4.051   4.244 -0.0885 -0.2802 -0.2593
 2264TIP3    H128207   6.614   4.122   4.305  0.6504 -1.0607  0.4110
 2264TIP3    H228208   6.497   4.043   4.249 -0.1107  0.2263  0.1569
 2265TIP3   OH228209   4.425   2.538  13.217 -0.1889 -0.0257 -1.0200
 2265TIP3    H128210   4.392   2.552  13.128 -1.4984 -0.6857 -0.6559
 2265TIP3    H228211   4.442   2.444  13.222  0.4259  0.0951 -0.7404
 2266TIP3   OH228212   4.983   0.653   0.186  0.2937  0.5640  0.4270
 2266TIP3    H128213   4.923   0.586   0.219  1.6485 -0.5458  0.7073
 2266TIP3    H228214   4.953   0.734   0.228  0.7714 -0.4742  2.9265
 2267TIP3   OH228215   5.275   1.645  11.362  0.4762  0.7790 -0.1322
 2267TIP3    H128216   5.332   1.574  11.332  1.7184  2.1625 -1.2362
 2267TIP3    H228217   5.283   1.645  11.457  0.1036 -0.8036 -0.0747
 2268TIP3   OH228218   3.102   1.372  14.938 -0.1782 -0.1801 -0.6545
 2268TIP3    H128219   3.163   1.386  15.011 -1.7898  1.0887  0.5384
 2268TIP3    H228220   3.130   1.435  14.872  0.0303  0.1400 -0.2699
 2269TIP3   OH228221   4.835   4.407  13.068 -0.3609 -0.5304 -0.1062
 2269TIP3    H128222   4.902   4.472  13.043  1.7439 -2.8676 -1.0307
 2269TIP3    H228223   4.803   4.374  12.984  0.2683 -2.2367  0.2978
 2270TIP3   OH228224   1.193   6.278   2.351  0.2468 -0.2699  0.3041
 2270TIP3    H128225   1.235   6.307   2.433 -0.8376 -0.9619  1.1283
 2270TIP3    H228226   1.167   6.360   2.308  0.2317  0.0909  0.9815
 2271TIP3   OH228227   5.833   3.107   2.129 -0.2609  0.1590 -0.7414
 2271TIP3    H128228   5.873   3.170   2.070 -0.4978  0.4800 -0.5582
 2271TIP3    H228229   5.739   3.112   2.109 -0.2846 -0.1197 -0.7108
 2272TIP3   OH228230   2.137   0.509   1.156 -0.3119  0.0540 -0.5277
 2272TIP3    H128231   2.156   0.528   1.065 -0.9505  0.8990 -0.4949
 2272TIP3    H228232   2.223   0.505   1.198 -0.0456  3.4149 -0.4553
 2273TIP3   OH228233   2.114   2.327   5.274  0.2336 -0.4164 -0.1481
 2273TIP3    H128234   2.173   2.253   5.287  1.2376  0.4599  0.4742
 2273TIP3    H228235   2.034   2.288   5.238  1.2845 -1.5926 -1.2930
 2274TIP3   OH228236   6.639   0.247  16.871 -0.1965 -0.9532 -0.0528
 2274TIP3    H128237   6.685   0.184  16.816 -0.6984 -0.0918 -1.5044
 2274TIP3    H228238   6.587   0.299  16.810 -1.0050 -0.1516  1.2738
 2275TIP3   OH228239   0.356   3.958   4.459  0.4053 -0.4500 -0.2781
 2275TIP3    H128240   0.372   3.865   4.475 -0.2432 -0.8834 -1.9913
 2275TIP3    H228241   0.356   3.967   4.364  0.1390  1.2526 -0.1516
 2276TIP3   OH228242   6.425   3.284   3.306  0.4911 -0.5321  0.2732
 2276TIP3    H128243   6.425   3.190   3.323  1.7087 -0.9953 -1.8856
 2276TIP3    H228244   6.382   3.293   3.220  2.3933  0.5818 -0.6413
 2277TIP3   OH228245   5.933   0.734   5.871 -0.6107 -0.2805  0.0422
 2277TIP3    H128246   5.941   0.663   5.806 -0.7148 -0.4938  0.2605
 2277TIP3    H228247   5.877   0.697   5.939 -2.0550  0.5845 -0.6392
 2278TIP3   OH228248   6.221   2.278  15.864 -0.3789  0.3045 -0.7687
 2278TIP3    H128249   6.312   2.291  15.837 -0.9658 -0.7831 -3.6427
 2278TIP3    H228250   6.170   2.316  15.793 -2.1668 -0.5236  0.0164
 2279TIP3   OH228251   2.670   6.443   5.292 -0.0729 -0.0636  0.0193
 2279TIP3    H128252   2.736   6.379   5.264 -0.9833 -1.2710  0.5467
 2279TIP3    H228253   2.660   6.427   5.386  0.5122  1.6542  0.3945
 2280TIP3   OH228254   1.749   6.445  15.464  0.0591 -0.4982  0.2318
 2280TIP3    H128255   1.664   6.407  15.441 -0.8805  1.5647  0.0783
 2280TIP3    H228256   1.742   6.465  15.557  0.5553 -0.7287  0.3230
 2281TIP3   OH228257   0.109   4.009  11.203  0.6161 -0.0620  0.0482
 2281TIP3    H128258   0.041   3.954  11.165  0.2231  0.1250  0.4668
 2281TIP3    H228259   0.097   4.000  11.298  0.0296  1.3506  0.1381
 2282TIP3   OH228260   5.173   2.751  15.693  0.1048  0.8325  0.4169
 2282TIP3    H128261   5.268   2.754  15.688  0.2957 -0.8110  1.9434
 2282TIP3    H228262   5.143   2.828  15.645  2.1798  1.1848 -0.3816
 2283TIP3   OH228263   1.346   3.534  11.771 -0.3516  0.0060 -0.4599
 2283TIP3    H128264   1.265   3.485  11.753 -0.2726 -0.3608  0.1776
 2283TIP3    H228265   1.385   3.489  11.845  1.3924 -0.9581 -1.8816
 2284TIP3   OH228266   5.412   2.342   3.603  0.3554  0.5115  0.4215
 2284TIP3    H128267   5.455   2.288   3.669  1.0964 -0.0711 -0.5142
 2284TIP3    H228268   5.421   2.293   3.522 -2.6452  0.0513  0.2493
 2285TIP3   OH228269   6.511   1.216  16.189 -0.4572  0.3300  0.5758
 2285TIP3    H128270   6.560   1.288  16.230 -2.1144  1.3680  0.8013
 2285TIP3    H228271   6.463   1.175  16.260  0.4688 -1.0609  0.4519
 2286TIP3   OH228272   2.857   5.843  13.218 -0.1777 -0.2459  0.1886
 2286TIP3    H128273   2.895   5.920  13.176  0.2507 -0.7664 -0.4015
 2286TIP3    H228274   2.784   5.818  13.161 -0.7757  0.1391  0.7667
 2287TIP3   OH228275   6.117   2.460   0.714 -0.2018  0.2738 -0.0322
 2287TIP3    H128276   6.037   2.488   0.669  0.3619 -1.4081 -2.2433
 2287TIP3    H228277   6.140   2.534   0.770 -1.6083  2.0432 -1.6533
 2288TIP3   OH228278   6.633   1.808   2.476  0.0361  0.3395  0.2264
 2288TIP3    H128279   6.608   1.749   2.547  0.6878  1.0792  1.1007
 2288TIP3    H228280   6.571   1.789   2.406  0.5518 -1.7504  0.2681
 2289TIP3   OH228281   0.430   2.328  10.909 -0.0985 -0.3894  0.2825
 2289TIP3    H128282   0.521   2.355  10.921 -0.3911  0.5097  0.5319
 2289TIP3    H228283   0.436   2.240  10.870  0.8659 -0.8212  1.3711
 2290TIP3   OH228284   5.828   6.150   3.327 -0.0831  0.4809  0.5957
 2290TIP3    H128285   5.829   6.076   3.388  0.7911  0.9452  1.1646
 2290TIP3    H228286   5.818   6.227   3.382 -1.6037  0.7713 -0.0422
 2291TIP3   OH228287   0.630   2.347  12.569 -0.3734  0.2884 -0.2583
 2291TIP3    H128288   0.652   2.272  12.625  2.3141  1.0323 -0.1561
 2291TIP3    H228289   0.575   2.403  12.624  1.6010  0.6597  1.4895
 2292TIP3   OH228290   4.333   0.682  15.300  0.1428 -0.3072 -0.3934
 2292TIP3    H128291   4.426   0.690  15.324 -0.0428 -2.6999  1.4379
 2292TIP3    H228292   4.333   0.626  15.222  0.2588  0.3616 -0.8823
 2293TIP3   OH228293   4.693   4.266   4.923 -0.3198 -0.0588  0.1547
 2293TIP3    H128294   4.717   4.181   4.959  1.1524  0.8396  1.4164
 2293TIP3    H228295   4.742   4.329   4.976 -1.9216  1.6286 -0.2816
 2294TIP3   OH228296   2.954   2.049  14.633  0.9013  0.1193 -0.0754
 2294TIP3    H128297   2.910   2.134  14.631  1.3962  0.3710 -1.4291
 2294TIP3    H228298   3.047   2.070  14.646  1.2339 -0.0900 -1.8850
 2295TIP3   OH228299   6.686   5.445  14.504  0.3458  0.2793 -0.2362
 2295TIP3    H128300   6.690   5.364  14.555  0.1288  0.2538 -0.2552
 2295TIP3    H228301   6.750   5.434  14.434  0.6306  0.3053  0.0203
 2296TIP3   OH228302   1.505   6.560   0.035  0.2233 -0.6221 -0.7758
 2296TIP3    H128303   1.564   6.490   0.006  1.7303  0.4575 -0.4603
 2296TIP3    H228304   1.553   6.603   0.106 -1.9282 -1.0751  1.0721
 2297TIP3   OH228305   2.749   4.520  14.477  0.7869 -0.2206  0.0000
 2297TIP3    H128306   2.718   4.464  14.406  1.7753 -3.3451  1.8345
 2297TIP3    H228307   2.671   4.570  14.504 -0.1168 -0.5871 -1.7983
 2298TIP3   OH228308   4.718   5.835   2.161 -0.1162  0.2244  0.2906
 2298TIP3    H128309   4.655   5.907   2.154 -0.0633  0.2565  0.1470
 2298TIP3    H228310   4.701   5.781   2.084 -0.2769 -0.0137  0.4917
 2299TIP3   OH228311   2.176   3.171   2.888  0.1943  0.5342  0.3227
 2299TIP3    H128312   2.168   3.261   2.857  2.1001  0.9597  0.9796
 2299TIP3    H228313   2.085   3.140   2.893 -0.4457  2.0740 -0.8308
 2300TIP3   OH228314   5.346   2.721   5.177  0.4013  0.2702 -0.0626
 2300TIP3    H128315   5.262   2.756   5.207  0.9729 -0.1368  2.1722
 2300TIP3    H228316   5.397   2.710   5.256  1.9745 -1.1185 -1.2039
 2301TIP3   OH228317   3.741   6.246   1.780  0.3375  0.1486  1.4264
 2301TIP3    H128318   3.666   6.249   1.720  0.7992  1.2381  0.8760
 2301TIP3    H228319   3.811   6.205   1.730  1.2360  2.5463  0.5523
 2302TIP3   OH228320   4.192   4.111  12.273  0.3208 -0.3100 -0.1974
 2302TIP3    H128321   4.241   4.102  12.355  0.5205 -0.0864 -0.2934
 2302TIP3    H228322   4.117   4.052  12.284  0.5019 -0.4993  0.0282
 2303TIP3   OH228323   0.333   0.514  12.653  0.5623 -0.4147 -0.1203
 2303TIP3    H128324   0.247   0.542  12.622  1.2751  1.2604 -0.7189
 2303TIP3    H228325   0.326   0.515  12.748  0.0910  0.3559 -0.1527
 2304TIP3   OH228326   0.274   5.998  13.996  0.3715 -0.3007 -0.0405
 2304TIP3    H128327   0.314   6.086  13.998 -1.9442  0.8608 -0.9062
 2304TIP3    H228328   0.201   6.004  14.057 -1.0290 -0.9423 -1.5789
 2305TIP3   OH228329   6.713   1.335   2.608  0.0305  0.9342  0.2228
 2305TIP3    H128330   6.659   1.281   2.667 -0.5072  0.3091 -0.8141
 2305TIP3    H228331   6.729   1.279   2.533  0.8053  1.6878 -0.1837
 2306TIP3   OH228332   6.603   0.863  13.154  0.1671  0.4072  0.0878
 2306TIP3    H128333   6.525   0.909  13.183  0.4071  0.2885  0.9425
 2306TIP3    H228334   6.576   0.817  13.074 -0.6265  0.3735  0.3710
 2307TIP3   OH228335   3.258   3.074  13.259  0.7394 -0.0885 -0.1557
 2307TIP3    H128336   3.329   3.082  13.323  0.0276  1.5451  0.4881
 2307TIP3    H228337   3.290   3.122  13.182 -0.1991  2.0220  0.6832
 2308TIP3   OH228338   6.290   3.724  15.955  0.4301 -0.0332  0.1436
 2308TIP3    H128339   6.363   3.663  15.963  1.4691  1.1424 -0.0680
 2308TIP3    H228340   6.326   3.808  15.983 -0.5759  0.7665 -0.8578
 2309TIP3   OH228341   4.082   6.742   6.107  0.2418  0.2285  0.3128
 2309TIP3    H128342   4.056   6.830   6.082 -1.5753 -0.7019 -1.4244
 2309TIP3    H228343   4.037   6.726   6.191  0.1294  0.7701  0.3545
 2310TIP3   OH228344   4.461   4.116   3.597 -0.1912 -0.3367  0.1222
 2310TIP3    H128345   4.432   4.028   3.621  0.5419 -1.1560 -1.7369
 2310TIP3    H228346   4.543   4.128   3.644 -0.7608 -0.2382  1.1189
 2311TIP3   OH228347   5.595   3.200  14.579  0.6297  0.4655  0.0986
 2311TIP3    H128348   5.645   3.153  14.647  0.1006 -0.8652 -0.4063
 2311TIP3    H228349   5.632   3.169  14.497 -0.3283  0.2637 -0.2609
 2312TIP3   OH228350   2.096   2.312  16.313  0.3771  0.0351  0.1811
 2312TIP3    H128351   2.154   2.288  16.240  1.2393  1.6829  0.2724
 2312TIP3    H228352   2.013   2.333  16.272  1.1473  1.9517 -0.5088
 2313TIP3   OH228353   0.828   0.964   0.473 -0.2632 -0.6059 -0.0838
 2313TIP3    H128354   0.915   0.926   0.467  0.0709 -0.0893  1.1169
 2313TIP3    H228355   0.778   0.923   0.402  0.9733 -0.8246 -0.8468
 2314TIP3   OH228356   2.687   2.586   0.493 -0.6528 -0.2767 -0.1536
 2314TIP3    H128357   2.677   2.599   0.399  1.3693  0.0203 -0.3780
 2314TIP3    H228358   2.696   2.492   0.504  0.6857 -0.2032 -0.4747
 2315TIP3   OH228359   3.218   2.169  14.095 -0.5974  0.3542  0.1201
 2315TIP3    H128360   3.183   2.083  14.071 -0.1951 -0.0160  0.7873
 2315TIP3    H228361   3.300   2.148  14.141 -0.5795  1.0860  0.4301
 2316TIP3   OH228362   6.342   2.293  16.372 -0.1998  0.4546 -0.0512
 2316TIP3    H128363   6.278   2.223  16.384  0.1838 -0.0079 -0.6811
 2316TIP3    H228364   6.420   2.263  16.420 -0.8446  1.6035  1.8447
 2317TIP3   OH228365   1.831   1.610   2.779  0.6786  0.3460  0.2548
 2317TIP3    H128366   1.834   1.660   2.697 -0.6652  2.0408  1.1998
 2317TIP3    H228367   1.922   1.582   2.793  0.6835 -1.5677 -2.6964
 2318TIP3   OH228368   2.149   4.926   1.936 -0.4102  0.3620 -0.0032
 2318TIP3    H128369   2.069   4.958   1.892  0.8634  1.5063 -1.6119
 2318TIP3    H228370   2.128   4.929   2.029 -2.2644  0.5854 -0.3865
 2319TIP3   OH228371   6.373   1.081   1.740 -0.1627 -0.0292  1.0266
 2319TIP3    H128372   6.297   1.023   1.730  1.1273 -1.7678  0.6494
 2319TIP3    H228373   6.426   1.063   1.662 -0.0054  2.2024  0.5663
 2320TIP3   OH228374   3.015   3.797  13.446  0.0780  0.4022  0.2259
 2320TIP3    H128375   3.081   3.763  13.505  1.5404  0.6577 -1.1837
 2320TIP3    H228376   3.050   3.780  13.358 -1.6132  0.7812 -0.5698
 2321TIP3   OH228377   4.633   6.278  14.501  0.6359  0.1408  0.4177
 2321TIP3    H128378   4.542   6.291  14.473  1.1756  0.9224 -1.0958
 2321TIP3    H228379   4.642   6.334  14.578 -0.2703 -0.2772  0.8462
 2322TIP3   OH228380   5.185   6.413   2.910 -0.4363 -0.5281 -0.1144
 2322TIP3    H128381   5.257   6.390   2.851  0.7308 -1.4341  1.5931
 2322TIP3    H228382   5.197   6.356   2.986 -2.0619  0.4070  0.9000
 2323TIP3   OH228383   6.478   2.847  12.417  0.2874 -0.4718 -0.8929
 2323TIP3    H128384   6.550   2.832  12.356  0.7168  0.1357 -0.5524
 2323TIP3    H228385   6.519   2.891  12.492 -0.6056  0.8249 -1.1355
 2324TIP3   OH228386   4.278   5.750  12.997  0.1751  0.2855  0.4772
 2324TIP3    H128387   4.340   5.784  12.933 -1.3324  1.3087 -0.5064
 2324TIP3    H228388   4.298   5.657  13.003  3.1220  0.9203  1.7505
 2325TIP3   OH228389   0.303   6.276   6.333  0.1809 -0.2540  0.3755
 2325TIP3    H128390   0.318   6.353   6.387 -1.0063 -0.7178  1.4152
 2325TIP3    H228391   0.229   6.231   6.375  0.3042 -1.5115 -0.6859
 2326TIP3   OH228392   3.656   1.943  15.534  0.6580  0.0453 -0.2215
 2326TIP3    H128393   3.722   1.980  15.592 -0.8638  1.3247  0.7926
 2326TIP3    H228394   3.656   1.849  15.553  2.8621 -0.1562 -1.0103
 2327TIP3   OH228395   5.492   2.388   5.311 -0.0249  0.9194  0.2812
 2327TIP3    H128396   5.574   2.373   5.358 -1.5841 -1.5018  2.5270
 2327TIP3    H228397   5.473   2.481   5.325  2.3070  1.5572 -0.3848
 2328TIP3   OH228398   5.466   3.291  11.022 -0.3099 -0.3639  0.3248
 2328TIP3    H128399   5.551   3.276  10.979 -0.9635 -0.9747 -0.8022
 2328TIP3    H228400   5.464   3.226  11.092  0.2335 -0.2183  0.4835
 2329TIP3   OH228401   1.222   3.333  14.714 -0.5131  0.0244 -0.2751
 2329TIP3    H128402   1.237   3.283  14.794 -0.6018  0.0179 -0.2618
 2329TIP3    H228403   1.286   3.299  14.651 -0.1348  0.3438 -0.0685
 2330TIP3   OH228404   0.445   1.726  16.406  0.0167 -0.2147 -0.5063
 2330TIP3    H128405   0.425   1.635  16.387  1.3253 -0.6412  0.0087
 2330TIP3    H228406   0.408   1.775  16.333 -0.6445 -1.1534 -0.8220
 2331TIP3   OH228407   3.648   1.377   4.249  1.0275 -0.6384 -0.4677
 2331TIP3    H128408   3.650   1.461   4.294 -1.5726 -1.3163  1.1674
 2331TIP3    H228409   3.668   1.398   4.158  1.6244  1.5510  0.1092
 2332TIP3   OH228410   5.836   5.168  11.975  0.4044  0.0133  0.5957
 2332TIP3    H128411   5.757   5.221  11.980  0.7948  0.9070 -1.4987
 2332TIP3    H228412   5.808   5.087  11.932  0.5438  0.1610  0.2236
 2333TIP3   OH228413   2.379   4.121   0.302 -0.4869 -0.1122 -0.0868
 2333TIP3    H128414   2.346   4.100   0.389  0.1323 -0.7501  0.0077
 2333TIP3    H228415   2.397   4.215   0.305  1.0912 -0.4056  1.0428
 2334TIP3   OH228416   0.135   3.466  12.461  0.3859  0.5015 -0.1602
 2334TIP3    H128417   0.192   3.537  12.432 -0.2334  0.8189 -0.6408
 2334TIP3    H228418   0.067   3.511  12.512  0.3140  0.1843  0.0210
 2335TIP3   OH228419   1.937   4.568  13.131  0.2751 -0.4959  0.0173
 2335TIP3    H128420   1.871   4.634  13.110 -0.6398 -1.6482 -0.8280
 2335TIP3    H228421   2.021   4.612  13.114 -0.3135  0.4924 -0.4132
 2336TIP3   OH228422   0.940   4.783  14.859 -0.2292  0.5256  0.2859
 2336TIP3    H128423   0.951   4.784  14.764 -0.3998  0.0272  0.2565
 2336TIP3    H228424   1.019   4.741  14.893  0.1874  1.4036  0.4225
 2337TIP3   OH228425   1.745   5.886  16.160  0.6737  0.0107  0.0231
 2337TIP3    H128426   1.690   5.965  16.157  0.8357  0.1201 -0.1248
 2337TIP3    H228427   1.776   5.875  16.070  2.1928  0.8820  0.3918
 2338TIP3   OH228428   0.308   0.496  12.927 -0.0670 -0.0398  0.7330
 2338TIP3    H128429   0.329   0.544  13.007  0.1328 -0.7052  1.0857
 2338TIP3    H228430   0.222   0.457  12.944 -1.4438  2.1910 -0.4816
 2339TIP3   OH228431   0.040   2.423  11.141  0.1966  0.0540  0.5357
 2339TIP3    H128432   0.095   2.463  11.208 -0.4897  2.0196 -0.0133
 2339TIP3    H228433  -0.049   2.435  11.173 -0.0569 -0.6167  0.1099
 2340TIP3   OH228434   1.904   0.592   4.738  0.0027  0.4795  0.2403
 2340TIP3    H128435   1.868   0.583   4.826  1.6378  3.3514  1.3475
 2340TIP3    H228436   1.923   0.686   4.729  1.8491 -0.0190 -2.3600
 2341TIP3   OH228437   4.792   5.738  15.564  0.4901  0.3464  0.2698
 2341TIP3    H128438   4.798   5.742  15.468 -0.4588 -1.1075  0.1124
 2341TIP3    H228439   4.773   5.646  15.583  1.4675  0.4447  1.9258
 2342TIP3   OH228440   4.969   0.397  15.879 -0.6247  0.0361 -0.2198
 2342TIP3    H128441   5.003   0.341  15.949  1.5040  0.6351 -0.6991
 2342TIP3    H228442   4.929   0.471  15.925  1.1801  0.6692  0.4380
 2343TIP3   OH228443   2.827   3.097   3.229  0.0807  0.4398 -0.2446
 2343TIP3    H128444   2.887   3.142   3.170  0.5558 -0.3900 -0.4093
 2343TIP3    H228445   2.856   3.006   3.228 -0.4450  0.2530  0.6046
 2344TIP3   OH228446   4.340   2.601  12.951 -0.7467  0.0714  0.5324
 2344TIP3    H128447   4.275   2.555  12.899  0.6073  0.4733 -1.6636
 2344TIP3    H228448   4.301   2.687  12.967 -0.5026  0.6046 -1.4672
 2345TIP3   OH228449   1.688   3.655   3.155 -0.2727  0.2123 -0.5863
 2345TIP3    H128450   1.647   3.738   3.179 -0.0440 -0.4733  2.5130
 2345TIP3    H228451   1.776   3.660   3.194 -0.1789 -1.3861 -0.5398
 2346TIP3   OH228452   6.208   3.207   4.737  0.2000 -0.2249  0.4498
 2346TIP3    H128453   6.233   3.292   4.701  0.9490 -0.5039  0.2815
 2346TIP3    H228454   6.251   3.204   4.823  1.5898 -1.1006 -0.2397
 2347TIP3   OH228455   4.247   2.828  15.117 -0.9493  0.3353 -0.2272
 2347TIP3    H128456   4.252   2.748  15.065 -1.0361  1.3887 -1.9585
 2347TIP3    H228457   4.166   2.819  15.168 -1.1387 -0.5281 -0.6671
 2348TIP3   OH228458   0.888   2.428  17.131  0.5584 -0.1201 -0.2815
 2348TIP3    H128459   0.969   2.379  17.117  1.0198  0.3551  0.7128
 2348TIP3    H228460   0.829   2.364  17.171  1.0161  0.0034  0.6050
 2349TIP3   OH228461   3.510   6.674  15.946  0.0122  0.2905  0.7569
 2349TIP3    H128462   3.517   6.580  15.931  1.8403  0.5780 -0.5282
 2349TIP3    H228463   3.587   6.695  16.000 -0.5380  1.0221  1.2752
 2350TIP3   OH228464   1.636   1.515  11.862  0.2827 -0.7240 -0.2613
 2350TIP3    H128465   1.700   1.566  11.912  0.8678 -1.7341  0.0544
 2350TIP3    H228466   1.687   1.477  11.790  0.2759 -2.2617  0.4929
 2351TIP3   OH228467   3.201   1.099  13.706  0.0755 -0.6402  0.0226
 2351TIP3    H128468   3.161   1.042  13.641 -0.7691 -0.0305 -0.0086
 2351TIP3    H228469   3.276   1.050  13.738 -1.2365 -2.2507  0.7821
 2352TIP3   OH228470   6.336   1.491   5.959  0.3830 -0.3001  0.2840
 2352TIP3    H128471   6.373   1.415   6.004  2.1725  1.5552  2.1592
 2352TIP3    H228472   6.246   1.495   5.989  0.0638 -1.9928 -0.3334
 2353TIP3   OH228473   4.598   6.307  11.754  0.5411 -0.9562  0.1067
 2353TIP3    H128474   4.642   6.342  11.831 -2.1003 -1.4453  1.9667
 2353TIP3    H228475   4.614   6.213  11.758  3.1485 -0.7140 -1.9060
 2354TIP3   OH228476   3.375   2.355   1.139 -0.4529  0.2826 -0.1588
 2354TIP3    H128477   3.355   2.345   1.046 -0.9651  1.7148 -0.2365
 2354TIP3    H228478   3.294   2.390   1.177  0.0344  0.5619  0.6542
 2355TIP3   OH228479   0.957   1.844  16.510  0.0360 -0.6467 -0.4331
 2355TIP3    H128480   1.004   1.786  16.569 -1.0368  0.2127  1.3422
 2355TIP3    H228481   0.977   1.933  16.541 -0.5474 -0.1587 -1.3761
 2356TIP3   OH228482   1.645   2.118  11.591  0.2343 -0.0205  0.1594
 2356TIP3    H128483   1.551   2.133  11.585  0.0666 -1.3308 -1.2961
 2356TIP3    H228484   1.664   2.056  11.520  1.7306 -1.9539  2.1145
 2357TIP3   OH228485   5.594   0.541   1.904 -0.1066 -0.3254 -0.5863
 2357TIP3    H128486   5.664   0.603   1.882  0.4701 -0.8379 -0.2391
 2357TIP3    H228487   5.608   0.466   1.845 -1.3296  0.2216 -1.6173
 2358TIP3   OH228488   6.679   1.386  16.334 -0.3102  0.0176  0.5553
 2358TIP3    H128489   6.686   1.471  16.377 -1.2760 -0.4690  1.7647
 2358TIP3    H228490   6.743   1.331  16.380 -0.1021 -0.0578  0.1755
 2359TIP3   OH228491   6.693   6.158   3.283 -0.1071  0.1822  0.3712
 2359TIP3    H128492   6.696   6.201   3.198 -2.8412 -1.0278 -0.4082
 2359TIP3    H228493   6.711   6.066   3.265  0.7468  0.1379  1.3363
 2360TIP3   OH228494   2.021   0.987   6.105  0.3112 -0.3401  0.4413
 2360TIP3    H128495   2.115   1.002   6.106  0.3992 -0.6970 -0.6727
 2360TIP3    H228496   1.985   1.051   6.166  1.0059  1.8106 -1.2511
 2361TIP3   OH228497   2.613   4.960  15.191  0.1921  0.7530 -0.5254
 2361TIP3    H128498   2.526   4.991  15.169  0.2600  0.4785 -1.2023
 2361TIP3    H228499   2.598   4.878  15.237  0.0475  1.3571  0.5381
 2362TIP3   OH228500   1.504   4.666   1.593  0.2500 -0.5789  0.6720
 2362TIP3    H128501   1.425   4.708   1.626  0.1016 -1.8522  2.0189
 2362TIP3    H228502   1.473   4.601   1.530  0.4324  0.7256 -0.8270
 2363TIP3   OH228503   4.920   3.873  14.109  0.0998 -0.1327  0.5608
 2363TIP3    H128504   4.857   3.803  14.124  0.6456 -0.7981 -0.1569
 2363TIP3    H228505   4.984   3.863  14.180  2.1383 -2.6582 -1.4317
 2364TIP3   OH228506   5.799   1.506   5.714  0.3225  0.4278 -0.5409
 2364TIP3    H128507   5.796   1.410   5.712 -0.1101  0.4438 -0.8557
 2364TIP3    H228508   5.808   1.528   5.806 -0.7326  0.1110 -0.3524
 2365TIP3   OH228509   0.937   2.698  10.540 -0.4336  0.3325  0.8627
 2365TIP3    H128510   0.873   2.728  10.476 -0.2533 -0.2492  0.3965
 2365TIP3    H228511   1.006   2.764  10.539 -0.5361  0.4340  0.6124
 2366TIP3   OH228512   6.666   5.605   1.114  0.0862 -0.2375  0.3819
 2366TIP3    H128513   6.645   5.558   1.194 -0.9966  0.0683  0.2995
 2366TIP3    H228514   6.631   5.551   1.044 -0.5793  0.3520  0.2437
 2367TIP3   OH228515   1.085   5.601   0.621 -0.4499  0.3990 -0.6796
 2367TIP3    H128516   1.008   5.639   0.663  0.0932  1.6841 -0.8108
 2367TIP3    H228517   1.070   5.614   0.527 -0.7922 -0.7725 -0.7979
 2368TIP3   OH228518   5.947   0.937   3.779 -0.1928 -0.0045  0.4151
 2368TIP3    H128519   5.852   0.944   3.772 -0.3443 -1.8855  0.0056
 2368TIP3    H228520   5.964   0.842   3.780  1.8184  0.1985 -2.3166
 2369TIP3   OH228521   2.739   5.934   2.840 -0.2763  0.7571 -0.1681
 2369TIP3    H128522   2.727   5.997   2.769 -0.1259 -0.3630 -1.2285
 2369TIP3    H228523   2.739   5.987   2.920 -0.7586  2.0162 -0.9745
 2370TIP3   OH228524   3.136   5.522  11.545  0.7607 -0.1633 -0.1053
 2370TIP3    H128525   3.064   5.496  11.603  0.8183 -0.6718 -0.2551
 2370TIP3    H228526   3.093   5.556  11.467  0.6833  0.3787  0.1647
 2371TIP3   OH228527   4.929   1.932   0.221 -0.5917 -0.0060  0.0318
 2371TIP3    H128528   4.892   1.914   0.135  0.5089 -0.3498 -0.3896
 2371TIP3    H228529   4.994   1.863   0.234  0.7509  1.2411  0.2134
 2372TIP3   OH228530   3.908   5.224   4.186  0.1925 -0.4304  0.8041
 2372TIP3    H128531   3.965   5.212   4.262 -0.2863 -0.7119  1.1241
 2372TIP3    H228532   3.927   5.149   4.129  0.9969  0.1031  0.3489
 2373TIP3   OH228533   0.215   3.363  16.279 -0.4223  0.4614  0.4426
 2373TIP3    H128534   0.290   3.305  16.264 -0.8652 -0.8582  2.7994
 2373TIP3    H228535   0.189   3.392  16.192  2.0320 -0.0551 -0.5247
 2374TIP3   OH228536   5.552   1.635   3.740 -0.4238 -0.0958 -0.1279
 2374TIP3    H128537   5.635   1.674   3.767  0.0386 -0.8940 -0.3833
 2374TIP3    H228538   5.524   1.583   3.815 -1.1934  0.9180  0.3273
 2375TIP3   OH228539   2.106   0.260  16.381 -0.4031  0.6588  0.2021
 2375TIP3    H128540   2.060   0.344  16.372 -1.7775 -0.1075 -0.1777
 2375TIP3    H228541   2.067   0.219  16.458  0.3017  0.3768  0.4140
 2376TIP3   OH228542   6.596   6.164   4.113  0.1609 -0.4248  0.0894
 2376TIP3    H128543   6.651   6.090   4.088 -0.2542 -0.4941 -0.6371
 2376TIP3    H228544   6.527   6.166   4.047 -0.3119  0.0932  0.5880
 2377TIP3   OH228545   1.688   0.867  14.340 -0.0033 -0.9449  0.0084
 2377TIP3    H128546   1.648   0.877  14.427  0.1855 -2.6605  0.3267
 2377TIP3    H228547   1.732   0.950  14.325 -0.3481 -0.4713  1.4029
 2378TIP3   OH228548   3.931   0.548  16.980 -0.2764  0.0427  0.2875
 2378TIP3    H128549   3.860   0.489  17.004  0.2936 -0.8026 -0.0844
 2378TIP3    H228550   3.998   0.492  16.941  0.0101  1.0192 -0.6716
 2379TIP3   OH228551   3.401   2.246   5.905 -0.2500  0.3235  0.1377
 2379TIP3    H128552   3.330   2.183   5.912  0.4032 -0.4524 -0.0655
 2379TIP3    H228553   3.371   2.323   5.954 -0.4189 -0.7212  1.7239
 2380TIP3   OH228554   0.806   5.880  14.466 -0.4771  0.0285 -0.0931
 2380TIP3    H128555   0.816   5.975  14.468  2.1897 -0.1640 -0.9627
 2380TIP3    H228556   0.747   5.864  14.392  1.4106  0.9283 -1.8858
 2381TIP3   OH228557   4.260   6.698  11.594 -0.2994  0.1125  0.2335
 2381TIP3    H128558   4.323   6.627  11.587 -1.2876 -1.4596  4.2022
 2381TIP3    H228559   4.198   6.684  11.523  1.4724 -0.7825 -1.2020
 2382TIP3   OH228560   4.188   1.788  16.304 -0.4418 -0.0924 -0.6343
 2382TIP3    H128561   4.124   1.805  16.235  0.5503  0.3878 -1.4657
 2382TIP3    H228562   4.246   1.864  16.302  0.1194 -0.4874  0.1361
 2383TIP3   OH228563   1.035   3.364   1.903 -0.3335  0.4170 -0.1493
 2383TIP3    H128564   0.975   3.356   1.977  0.3473  0.8525  0.4679
 2383TIP3    H228565   1.070   3.276   1.891 -1.2287  0.1225 -0.6341
 2384TIP3   OH228566   6.013   4.313   1.925 -0.1289 -0.0193  0.0549
 2384TIP3    H128567   6.016   4.262   2.005 -0.8665 -1.5135 -0.8321
 2384TIP3    H228568   6.088   4.372   1.931  2.0518 -2.6425  0.2177
 2385TIP3   OH228569   4.091   3.103   3.926  0.2876 -0.0839 -0.2616
 2385TIP3    H128570   4.148   3.060   3.989  0.4334 -0.7314 -0.8239
 2385TIP3    H228571   4.097   3.048   3.847  0.0009  0.6324 -0.7873
 2386TIP3   OH228572   3.645   3.604  16.573 -0.0655  0.5442 -0.5288
 2386TIP3    H128573   3.730   3.647  16.580  0.0452  0.1735  0.7161
 2386TIP3    H228574   3.659   3.534  16.510  1.2880 -1.0590  1.4000
 2387TIP3   OH228575   3.977   2.388  15.886  0.2149 -0.1369 -0.4248
 2387TIP3    H128576   3.945   2.453  15.823  1.6785  2.5602  1.4151
 2387TIP3    H228577   3.899   2.353  15.927 -0.6513 -0.3808 -2.1711
 2388TIP3   OH228578   4.296   5.291   4.326 -0.4409  0.3868  0.0087
 2388TIP3    H128579   4.339   5.310   4.242  1.6737 -1.2766  0.6484
 2388TIP3    H228580   4.276   5.378   4.362 -0.3176  1.1542 -1.6658
 2389TIP3   OH228581   0.466   3.954  10.847 -0.3951 -0.0111 -0.0710
 2389TIP3    H128582   0.556   3.976  10.824 -1.3337  1.8485 -2.2730
 2389TIP3    H228583   0.425   3.928  10.765 -1.8899 -0.9202  0.8976
 2390TIP3   OH228584   0.423   2.897  16.362 -0.2487  0.3536  0.0215
 2390TIP3    H128585   0.476   2.836  16.311 -1.4136  0.1215 -0.9773
 2390TIP3    H228586   0.442   2.877  16.453  0.3584 -0.6147 -0.3118
 2391TIP3   OH228587   1.610   3.052   2.925  0.2425 -0.8122  0.4536
 2391TIP3    H128588   1.597   3.042   2.830  1.8365  0.6166  0.0415
 2391TIP3    H228589   1.525   3.026   2.963  0.2270 -3.6368 -1.1518
 2392TIP3   OH228590   4.574   5.170   2.676 -0.3587 -0.5056  0.7717
 2392TIP3    H128591   4.634   5.229   2.723 -0.3139 -0.6762  0.9288
 2392TIP3    H228592   4.613   5.084   2.686  0.0559 -0.4469 -0.2203
 2393TIP3   OH228593   1.740   0.312   2.875  0.0224 -0.3403 -0.5721
 2393TIP3    H128594   1.699   0.236   2.915  1.2422 -1.2222 -0.9621
 2393TIP3    H228595   1.831   0.286   2.859  0.3649  1.0528 -1.0753
 2394TIP3   OH228596   2.629   2.583  15.691  0.2947 -0.2916 -0.2296
 2394TIP3    H128597   2.611   2.515  15.756  1.3923  0.5281  1.0001
 2394TIP3    H228598   2.645   2.535  15.610 -1.2219 -1.3345  0.0496
 2395TIP3   OH228599   3.158   5.515   3.246 -0.0539 -0.0048 -0.1248
 2395TIP3    H128600   3.081   5.525   3.189  0.6648 -0.7110 -1.2411
 2395TIP3    H228601   3.232   5.515   3.187  0.7951  0.1526  0.9068
 2396TIP3   OH228602   5.051   4.555   5.369 -0.8851 -0.7319  0.2403
 2396TIP3    H128603   4.972   4.541   5.421 -0.6948  1.6229  1.3108
 2396TIP3    H228604   5.034   4.637   5.322  0.0882 -1.3293 -1.2223
 2397TIP3   OH228605   6.620   1.871   0.645 -0.2388  0.3231  0.0056
 2397TIP3    H128606   6.580   1.953   0.615 -2.0448 -0.9942 -1.4352
 2397TIP3    H228607   6.689   1.853   0.582  1.3813  1.5473  1.3236
 2398TIP3   OH228608   5.509   6.678   3.781 -0.6353  0.6299 -0.7277
 2398TIP3    H128609   5.464   6.621   3.719  1.0703 -0.0660 -1.4080
 2398TIP3    H228610   5.593   6.634   3.796 -0.4614  1.4909  1.0366
 2399TIP3   OH228611   1.126   0.257   6.402  0.0248 -0.4102 -0.1822
 2399TIP3    H128612   1.112   0.208   6.483 -1.3158 -0.8141 -0.6300
 2399TIP3    H228613   1.173   0.336   6.429 -0.7238 -0.3626  1.0532
 2400TIP3   OH228614   1.530   4.156   1.069  0.4700  0.7195  0.2378
 2400TIP3    H128615   1.567   4.165   0.982  2.8764 -3.6249  0.4901
 2400TIP3    H228616   1.441   4.124   1.055 -0.0076  2.3052 -0.5193
 2401TIP3   OH228617   1.708   1.599   6.503 -0.2958  0.7310 -0.0737
 2401TIP3    H128618   1.663   1.672   6.546 -0.0973  1.2769 -0.7689
 2401TIP3    H228619   1.769   1.567   6.568 -0.9731  0.6447  0.5292
 2402TIP3   OH228620   0.602   4.695  10.765  0.0032 -0.0327 -0.1799
 2402TIP3    H128621   0.600   4.623  10.828 -1.4015  0.5045  0.4322
 2402TIP3    H228622   0.638   4.769  10.814 -0.2257  0.1469 -0.2806
 2403TIP3   OH228623   1.913   5.407   2.621 -0.2910  0.1060  0.0237
 2403TIP3    H128624   1.908   5.495   2.584 -0.5250 -0.2588 -0.8192
 2403TIP3    H228625   1.998   5.374   2.594 -0.1523  0.1168  0.4433
 2404TIP3   OH228626   6.275   6.448  14.812  0.0605 -0.4910 -0.7021
 2404TIP3    H128627   6.296   6.508  14.741  1.7114 -1.6048 -1.2031
 2404TIP3    H228628   6.222   6.380  14.771 -0.4761 -0.2289 -0.4638
 2405TIP3   OH228629   1.730   3.104  14.169 -0.8516  0.4159 -0.0871
 2405TIP3    H128630   1.756   3.067  14.084  0.4492 -1.1183  0.9117
 2405TIP3    H228631   1.746   3.198  14.160  2.1671 -0.0428 -0.6440
 2406TIP3   OH228632   5.566   2.847  16.929 -0.0727 -0.1106 -0.3058
 2406TIP3    H128633   5.651   2.804  16.940 -0.0317  0.0901  0.1778
 2406TIP3    H228634   5.518   2.789  16.870  0.2722 -0.4125 -0.2931
 2407TIP3   OH228635   3.192   5.823  11.877  0.2363 -0.0269  0.2612
 2407TIP3    H128636   3.206   5.759  11.807  2.1801  1.7472 -1.0806
 2407TIP3    H228637   3.230   5.782  11.955  2.1106 -0.2732 -0.7303
 2408TIP3   OH228638   0.316   1.843  16.607 -0.6079 -0.0884 -0.2656
 2408TIP3    H128639   0.355   1.807  16.528  1.5880  1.2865  0.1051
 2408TIP3    H228640   0.300   1.935  16.587  2.0038  0.8744  1.4325
 2409TIP3   OH228641   5.194   1.109   0.036 -0.0211 -0.3228 -0.5062
 2409TIP3    H128642   5.116   1.156   0.007  0.2468  0.9736  0.7564
 2409TIP3    H228643   5.255   1.116  -0.036 -0.2143  0.7539 -0.5797
 2410TIP3   OH228644   0.872   6.256   1.630 -0.3986 -0.1395 -0.1885
 2410TIP3    H128645   0.942   6.191   1.621 -1.1346 -0.7449 -1.9354
 2410TIP3    H228646   0.833   6.237   1.715  1.6146  0.3063  0.8997
 2411TIP3   OH228647   1.309   1.483  13.081 -0.2186  0.2169  0.8527
 2411TIP3    H128648   1.373   1.547  13.050 -0.2511 -0.3533 -0.4647
 2411TIP3    H228649   1.328   1.474  13.175  2.9941 -1.3698  0.2066
 2412TIP3   OH228650   1.896   2.390  16.170 -0.0106 -0.9593  0.5683
 2412TIP3    H128651   1.921   2.482  16.170  2.3734 -1.4924  2.5377
 2412TIP3    H228652   1.891   2.366  16.077  3.8869  0.1333 -0.1106
 2413TIP3   OH228653   5.675   3.830  12.347 -0.2957  0.3109 -0.3262
 2413TIP3    H128654   5.723   3.848  12.266  0.5261  2.2137  0.5331
 2413TIP3    H228655   5.617   3.757  12.324  0.7304  0.0307 -2.2896
 2414TIP3   OH228656   5.575   1.247  16.439 -0.2299  0.2372  0.2150
 2414TIP3    H128657   5.573   1.210  16.350 -0.6558 -0.5052  0.5238
 2414TIP3    H228658   5.528   1.330  16.431 -0.0687  0.2831 -0.3000
 2415TIP3   OH228659   4.778   1.160  15.271 -0.2988 -0.4769 -0.1334
 2415TIP3    H128660   4.727   1.238  15.293  0.0103 -0.6013  1.1053
 2415TIP3    H228661   4.780   1.159  15.176  0.0393  1.2638 -0.1869
 2416TIP3   OH228662   5.543   2.534  11.386 -0.7699  0.5918 -0.1834
 2416TIP3    H128663   5.571   2.495  11.303  0.1269  1.2539 -0.2087
 2416TIP3    H228664   5.598   2.490  11.452  0.2540  1.7802 -0.2134
 2417TIP3   OH228665   4.052   3.492   0.045  0.1995  0.1880  0.0381
 2417TIP3    H128666   4.123   3.534   0.094 -0.0283 -0.5699  1.0513
 2417TIP3    H228667   4.009   3.436   0.109 -0.0490 -0.9192 -1.0664
 2418TIP3   OH228668   3.321   0.501   0.539  0.2485 -0.1020  0.0703
 2418TIP3    H128669   3.397   0.560   0.535 -0.3871  0.7761  0.5735
 2418TIP3    H228670   3.246   0.558   0.523 -0.3298 -0.9319 -0.2323
 2419TIP3   OH228671   4.371   6.279   2.180  0.1055 -0.0024 -0.0495
 2419TIP3    H128672   4.397   6.342   2.248 -0.2194 -1.2487  1.2801
 2419TIP3    H228673   4.278   6.295   2.167  0.4352  1.1397 -1.2220
 2420TIP3   OH228674   3.174   2.100   5.888  0.0082  0.4024 -0.4176
 2420TIP3    H128675   3.148   2.030   5.949  0.0520  1.1126  0.4366
 2420TIP3    H228676   3.119   2.085   5.811  0.9569 -1.3705 -0.8120
 2421TIP3   OH228677   4.160   5.164  16.598 -0.1410 -0.2474 -0.5140
 2421TIP3    H128678   4.107   5.088  16.622 -1.0175  0.5711  0.2402
 2421TIP3    H228679   4.250   5.137  16.616 -0.6581  0.1656  3.6418
 2422TIP3   OH228680   2.143   6.568  10.215  0.2051 -0.0466 -0.1205
 2422TIP3    H128681   2.113   6.477  10.213 -1.5863  0.4145  1.8226
 2422TIP3    H228682   2.080   6.615  10.160 -0.2995  0.3431  0.7698
 2423TIP3   OH228683   2.046   5.612   1.027  0.4297 -0.0752 -0.2919
 2423TIP3    H128684   2.108   5.539   1.025 -0.0595 -0.5253  0.6044
 2423TIP3    H228685   2.001   5.608   0.942 -0.9409 -2.0265  0.4495
 2424TIP3   OH228686   2.989   2.368  13.800 -0.0142  1.2029  0.1360
 2424TIP3    H128687   2.975   2.387  13.893 -1.3073 -0.1249  0.2489
 2424TIP3    H228688   2.942   2.438  13.754 -0.9175  0.8659  0.5131
 2425TIP3   OH228689   4.580   0.403  10.422 -0.0063  0.0551 -0.0783
 2425TIP3    H128690   4.511   0.411  10.356 -1.1380 -1.2010  0.9014
 2425TIP3    H228691   4.550   0.460  10.494  0.7212  0.6366 -0.2254
 2426TIP3   OH228692   0.157   6.591   5.337 -0.0390  0.3876  0.3664
 2426TIP3    H128693   0.148   6.495   5.335  0.5232  0.3406 -0.8146
 2426TIP3    H228694   0.232   6.609   5.281  1.0439  1.4164  2.0403
 2427TIP3   OH228695   4.803   3.488  10.981 -0.0288  0.7792 -0.3466
 2427TIP3    H128696   4.754   3.504  10.900 -1.7677  0.1015  0.5241
 2427TIP3    H228697   4.834   3.574  11.008 -0.5364  1.1901 -1.0498
 2428TIP3   OH228698   4.410   2.029  16.862  0.3638 -0.4412  0.0372
 2428TIP3    H128699   4.326   2.057  16.826  0.7119 -0.2699 -0.6668
 2428TIP3    H228700   4.387   1.964  16.929 -0.3000 -0.8177 -0.5379
 2429TIP3   OH228701   1.331   5.730  14.407  0.2319 -0.0161 -0.7497
 2429TIP3    H128702   1.364   5.682  14.331 -1.1027 -0.0515 -1.3317
 2429TIP3    H228703   1.238   5.741  14.390  0.1727  1.2447  0.2095
 2430TIP3   OH228704   4.415   3.503   4.694 -0.4889 -0.4341 -0.4700
 2430TIP3    H128705   4.358   3.578   4.678 -0.3612 -0.2900 -0.2415
 2430TIP3    H228706   4.431   3.504   4.788 -0.4723 -0.7380 -0.4676
 2431TIP3   OH228707   0.091   4.367  15.614 -0.0514  0.2257  0.3554
 2431TIP3    H128708   0.102   4.460  15.594  0.2762 -0.1901 -1.6665
 2431TIP3    H228709   0.134   4.354  15.698  2.1670  1.4535 -0.5055
 2432TIP3   OH228710   0.747   4.568  13.941  0.2796 -0.1206 -0.1015
 2432TIP3    H128711   0.795   4.568  14.023 -0.9283 -1.0088  0.6496
 2432TIP3    H228712   0.695   4.649  13.943 -0.4832 -0.6035  0.4979
 2433TIP3   OH228713   1.188   5.148  15.292  0.4247 -0.1182 -0.0170
 2433TIP3    H128714   1.254   5.125  15.358  1.8891  1.7045 -0.7608
 2433TIP3    H228715   1.114   5.092  15.313  2.3119 -2.5572  0.6313
 2434TIP3   OH228716   0.755   4.075  13.413  0.4118  0.1882  0.6586
 2434TIP3    H128717   0.691   4.146  13.422  0.5758  0.1948  2.0403
 2434TIP3    H228718   0.812   4.085  13.489  1.5389 -0.3471 -0.0871
 2435TIP3   OH228719   3.810   1.046  10.340 -0.0945 -0.4576 -0.2942
 2435TIP3    H128720   3.726   1.086  10.316 -0.1755 -2.0501 -3.0026
 2435TIP3    H228721   3.795   0.952  10.334  1.5994 -0.8175  0.3989
 2436TIP3   OH228722   6.113   5.325   1.214 -0.2521  0.2550 -0.1905
 2436TIP3    H128723   6.208   5.321   1.205 -0.2274  2.4699 -1.5888
 2436TIP3    H228724   6.082   5.361   1.131 -2.0610  2.0154  1.1485
 2437TIP3   OH228725   3.839   4.899   2.446  0.1257 -0.9557  0.0334
 2437TIP3    H128726   3.896   4.907   2.370  0.3043  0.5600  0.2894
 2437TIP3    H228727   3.787   4.979   2.445  0.0877 -0.9432  1.4636
 2438TIP3   OH228728   0.477   4.710   2.581  0.0316 -0.1988  0.3238
 2438TIP3    H128729   0.556   4.764   2.573 -0.0439  0.5136  3.1874
 2438TIP3    H228730   0.408   4.762   2.540  0.9583 -0.8340 -2.2188
 2439TIP3   OH228731   3.809   0.119  13.283  0.3127  0.2553  0.0520
 2439TIP3    H128732   3.797   0.144  13.375  0.0644 -1.9621  0.6955
 2439TIP3    H228733   3.881   0.056  13.285  0.4461  0.3348 -1.3215
 2440TIP3   OH228734   6.696   0.630  13.296  0.5286  0.2603 -0.1154
 2440TIP3    H128735   6.656   0.617  13.381 -2.5506  0.6882 -1.3674
 2440TIP3    H228736   6.673   0.720  13.271  3.0390  0.8395 -0.6442
 2441TIP3   OH228737   2.160   2.836   1.493  0.4183 -0.0721 -0.0571
 2441TIP3    H128738   2.127   2.786   1.567 -0.0216 -0.6697 -0.6456
 2441TIP3    H228739   2.105   2.809   1.419  0.8107  0.5541 -0.5877
 2442TIP3   OH228740   2.316   6.127  10.681  0.0184  0.5675 -0.5084
 2442TIP3    H128741   2.377   6.054  10.696 -2.0333 -1.0032  0.7978
 2442TIP3    H228742   2.290   6.154  10.769 -3.4268 -0.9236 -0.9110
 2443TIP3   OH228743   3.075   5.867  12.280 -0.1811  0.5262 -0.1882
 2443TIP3    H128744   3.031   5.782  12.272 -0.9002  0.6575  1.7214
 2443TIP3    H228745   3.046   5.900  12.365  0.7057  2.3404 -0.5533
 2444TIP3   OH228746   0.977   6.249   4.450 -0.3564 -0.1303  0.6930
 2444TIP3    H128747   0.961   6.230   4.543  0.6620 -0.3878  0.8230
 2444TIP3    H228748   1.031   6.328   4.451 -1.2869  0.5335  0.2688
 2445TIP3   OH228749   5.313   4.572  13.551  0.7178 -0.1587  0.4208
 2445TIP3    H128750   5.400   4.608  13.567 -0.3610  2.2488  1.3864
 2445TIP3    H228751   5.308   4.495  13.608  1.3421  1.1822  2.3918
 2446TIP3   OH228752   4.729   2.595   0.602  0.5237  0.0301 -0.3297
 2446TIP3    H128753   4.808   2.580   0.550 -0.2421 -1.8658 -1.0568
 2446TIP3    H228754   4.691   2.507   0.614 -0.3319  0.6441  1.8532
 2447TIP3   OH228755   4.315   5.200  15.896 -0.3794  0.0730 -0.3228
 2447TIP3    H128756   4.291   5.141  15.967 -1.6123  1.5168  0.5282
 2447TIP3    H228757   4.410   5.205  15.899 -0.3711 -0.4590  0.7592
 2448TIP3   OH228758   6.426   2.925  16.335  0.5105 -0.1230  0.1565
 2448TIP3    H128759   6.438   2.880  16.251  0.0772 -0.2164  0.1447
 2448TIP3    H228760   6.386   3.009  16.311 -1.7149 -1.0338  0.4340
 2449TIP3   OH228761   4.599   3.743   4.530 -0.2959  0.2874  0.5610
 2449TIP3    H128762   4.518   3.751   4.480  0.9689  2.1332 -1.3523
 2449TIP3    H228763   4.634   3.657   4.505 -0.8344  0.1950  0.1133
 2450TIP3   OH228764   2.041   2.026  11.108  0.2912  0.3774  0.2187
 2450TIP3    H128765   2.070   1.940  11.137 -1.0682 -1.0449 -2.2565
 2450TIP3    H228766   2.099   2.087  11.153  1.8129 -1.8321  1.4962
 2451TIP3   OH228767   2.611   2.313  15.657 -0.7314  0.3721 -0.0024
 2451TIP3    H128768   2.604   2.227  15.699  1.2533  1.0731  1.9553
 2451TIP3    H228769   2.699   2.344  15.680 -0.2277  1.7086 -3.1514
 2452TIP3   OH228770   0.601   1.949  12.221  0.5245 -0.3057 -0.1444
 2452TIP3    H128771   0.615   1.854  12.219  0.0641 -0.5190  2.4389
 2452TIP3    H228772   0.551   1.964  12.302 -3.9599  1.6470 -2.9035
 2453TIP3   OH228773   3.692   3.678   0.074 -0.5337 -0.0699  0.2585
 2453TIP3    H128774   3.641   3.607   0.115 -0.5014 -0.0906  0.2626
 2453TIP3    H228775   3.625   3.739   0.042 -0.5857 -0.4046 -0.2943
 2454TIP3   OH228776   1.749   3.098  13.485  0.1545  0.0498 -0.2758
 2454TIP3    H128777   1.797   3.148  13.551  0.0108 -0.6134  0.3426
 2454TIP3    H228778   1.657   3.118  13.503  0.1314  0.2265 -0.5738
 2455TIP3   OH228779   3.804   6.589   3.952 -0.1567 -0.1318  0.3336
 2455TIP3    H128780   3.839   6.564   4.037  0.8534 -0.9539 -0.2968
 2455TIP3    H228781   3.848   6.671   3.931  2.5071 -1.7469 -0.9985
 2456TIP3   OH228782   2.051   3.580   4.398  0.1077  0.3971 -0.1138
 2456TIP3    H128783   2.070   3.672   4.378  0.1847  0.1882 -1.0272
 2456TIP3    H228784   2.067   3.573   4.492 -2.2865  1.9092  0.4879
 2457TIP3   OH228785   6.089   3.936   5.545 -0.8418 -0.5212  0.9006
 2457TIP3    H128786   6.106   4.030   5.556 -2.9551  0.1394 -0.6816
 2457TIP3    H228787   6.173   3.899   5.518 -0.0684  0.9805  1.1480
 2458TIP3   OH228788   4.128   3.668   5.828  0.3285 -0.1776 -0.1743
 2458TIP3    H128789   4.110   3.650   5.920  0.3124  0.6839 -0.0020
 2458TIP3    H228790   4.147   3.762   5.825  1.3732 -0.3943 -0.8876
 2459TIP3   OH228791   3.495   1.851  10.901 -0.1621  0.7169 -0.3134
 2459TIP3    H128792   3.584   1.860  10.936 -0.0090  1.1311 -0.7938
 2459TIP3    H228793   3.505   1.870  10.808 -0.3721 -1.3536 -0.8142
 2460TIP3   OH228794   1.638   1.854  16.645  0.1688  0.4828 -0.3628
 2460TIP3    H128795   1.596   1.826  16.563 -0.2218 -0.7197  0.2204
 2460TIP3    H228796   1.609   1.789  16.709  0.2948  1.5357  0.7829
 2461TIP3   OH228797   4.614   5.758   0.760 -0.3641 -0.8635  0.3815
 2461TIP3    H128798   4.708   5.762   0.747 -0.7097  0.9091 -2.5380
 2461TIP3    H228799   4.579   5.721   0.679 -2.2352 -0.2073  0.8215
 2462TIP3   OH228800   2.004   6.699   1.278  0.2187  0.4997 -0.4574
 2462TIP3    H128801   2.011   6.676   1.185  0.7671  0.5046 -0.4224
 2462TIP3    H228802   2.031   6.791   1.281 -0.3536  0.6664 -0.3700
 2463TIP3   OH228803   4.702   3.914   5.218  0.3709  0.2134 -0.4612
 2463TIP3    H128804   4.620   3.876   5.251  0.4822 -1.3061 -1.8302
 2463TIP3    H228805   4.769   3.883   5.280  0.0697  0.6445  0.0963
 2464TIP3   OH228806   6.535   2.453   2.321 -0.2661 -0.3386  0.3974
 2464TIP3    H128807   6.518   2.371   2.275  0.5342  0.1045 -0.7408
 2464TIP3    H228808   6.451   2.498   2.322 -0.6277 -1.0028  0.7150
 2465TIP3   OH228809   4.991   6.139  13.674  0.2064  0.0467  0.2071
 2465TIP3    H128810   4.897   6.122  13.686  0.2210 -0.6052 -0.5060
 2465TIP3    H228811   4.995   6.191  13.593  0.3572  1.3937  1.0423
 2466TIP3   OH228812   0.999   5.602   4.222  1.1339  0.2596 -0.5696
 2466TIP3    H128813   0.949   5.619   4.142 -2.9394  3.3995  2.1887
 2466TIP3    H228814   0.940   5.550   4.276  3.7922 -1.8740  0.5042
 2467TIP3   OH228815   5.902   1.522  13.849  0.8392  0.2603 -0.0286
 2467TIP3    H128816   5.880   1.582  13.778  1.3792  0.2780 -0.1793
 2467TIP3    H228817   5.993   1.540  13.870  1.1873 -0.8871 -0.4477
 2468TIP3   OH228818   4.033   6.047  12.836 -0.6586 -0.2523 -0.5528
 2468TIP3    H128819   4.054   5.994  12.759 -1.9664  0.0905 -1.1716
 2468TIP3    H228820   4.018   5.983  12.905 -1.2908 -0.6582 -1.0551
 2469TIP3   OH228821   2.507   2.217   5.118  0.0284 -0.0296 -0.2907
 2469TIP3    H128822   2.468   2.296   5.154  0.4552 -0.1190  0.3735
 2469TIP3    H228823   2.507   2.232   5.023 -1.4501  0.0410 -0.3038
 2470TIP3   OH228824   6.035   5.520  14.337  0.0555  0.0567 -0.0865
 2470TIP3    H128825   6.065   5.502  14.426  0.7673 -0.6406 -0.4605
 2470TIP3    H228826   5.949   5.561  14.349  0.1567  0.0005  0.9183
 2471TIP3   OH228827   5.307   1.856   0.614 -0.3474 -0.1036  0.7263
 2471TIP3    H128828   5.358   1.838   0.535  0.6103 -1.9439  1.6900
 2471TIP3    H228829   5.219   1.822   0.593 -0.0442 -0.7818  0.5012
 2472TIP3   OH228830   4.804   3.616   3.165  0.0995  0.7577 -0.2924
 2472TIP3    H128831   4.894   3.645   3.151 -0.6383  2.7239 -1.3328
 2472TIP3    H228832   4.765   3.685   3.219 -1.0389  0.4024 -0.6371
 2473TIP3   OH228833   1.795   5.784   1.605  0.4473  0.3526 -0.3048
 2473TIP3    H128834   1.890   5.797   1.605  0.5193 -0.1619 -0.0019
 2473TIP3    H228835   1.761   5.850   1.665  0.7690 -0.5077  0.8591
 2474TIP3   OH228836   2.670   2.719  13.820  0.4469 -0.1849  0.2600
 2474TIP3    H128837   2.606   2.694  13.754  0.7728 -0.7128  0.1404
 2474TIP3    H228838   2.736   2.650  13.818  0.1106 -0.5781  1.6348
 2475TIP3   OH228839   3.192   6.736  11.051 -0.0182 -0.0972  0.1917
 2475TIP3    H128840   3.158   6.793  10.982  0.4699  0.8402  0.7040
 2475TIP3    H228841   3.115   6.686  11.080 -0.7295  1.1482  0.5322
 2476TIP3   OH228842   3.969   2.000   5.715 -0.3536  0.7150  0.6394
 2476TIP3    H128843   4.009   1.996   5.627  1.3369  0.8864  1.3501
 2476TIP3    H228844   4.040   2.033   5.771 -1.7512  1.7147  1.8817
 2477TIP3   OH228845   5.589   1.114  12.558  0.3176  0.3924 -0.4050
 2477TIP3    H128846   5.586   1.173  12.633  0.4660 -0.3945  0.2330
 2477TIP3    H228847   5.676   1.074  12.562 -0.5119 -1.4926  0.4786
 2478TIP3   OH228848   0.458   3.808  11.922  0.7240 -0.0496 -0.0788
 2478TIP3    H128849   0.546   3.802  11.885  1.2262  0.7644  0.9390
 2478TIP3    H228850   0.461   3.883  11.981 -0.6091 -0.1115  0.1159
 2479TIP3   OH228851   2.548   4.079  15.828 -0.0207  0.3516 -0.3864
 2479TIP3    H128852   2.550   4.076  15.732 -1.2661  2.7791 -0.5709
 2479TIP3    H228853   2.526   4.170  15.849  1.3455  0.1658  2.2586
 2480TIP3   OH228854   2.591   0.202   4.045  0.0044  0.0889  0.4222
 2480TIP3    H128855   2.670   0.235   4.001 -0.1881  0.7519  0.5611
 2480TIP3    H228856   2.611   0.208   4.138  0.9368 -2.5994  0.4641
 2481TIP3   OH228857   1.085   1.805   3.627 -0.2999  0.0130  0.1617
 2481TIP3    H128858   1.012   1.856   3.661 -0.2106 -0.4860  1.1583
 2481TIP3    H228859   1.144   1.795   3.702  1.3047  1.2418 -0.8380
 2482TIP3   OH228860   1.768   3.497  16.368 -0.4102 -0.8439 -0.4070
 2482TIP3    H128861   1.726   3.427  16.417 -0.2543  0.0823  1.0975
 2482TIP3    H228862   1.697   3.557  16.345 -0.1172  0.2022  1.2592
 2483TIP3   OH228863   4.749   4.063  12.705  0.4612  0.1406 -0.0275
 2483TIP3    H128864   4.795   4.058  12.789  1.6049 -1.1065 -0.6802
 2483TIP3    H228865   4.682   3.994  12.710  1.2567 -0.6904 -0.5256
 2484TIP3   OH228866   1.771   5.267  16.223  0.5331 -0.3656  0.2309
 2484TIP3    H128867   1.686   5.232  16.196  1.1692  0.2226 -2.9363
 2484TIP3    H228868   1.758   5.294  16.314 -2.6410 -0.3592 -0.1129
 2485TIP3   OH228869   5.895   3.962  15.574  0.4571  0.2645 -0.7387
 2485TIP3    H128870   5.970   3.903  15.567 -0.2232 -0.8026  0.5570
 2485TIP3    H228871   5.884   3.975  15.668 -1.6032 -0.4409 -0.8398
 2486TIP3   OH228872   1.998   6.247  11.627  0.3997  0.5566  0.4048
 2486TIP3    H128873   1.922   6.289  11.587  1.1261  1.3752 -0.1590
 2486TIP3    H228874   1.968   6.223  11.715  0.2376  3.3035  1.2109
 2487TIP3   OH228875   5.347   5.367  13.497 -0.3685 -0.3749 -0.0957
 2487TIP3    H128876   5.289   5.303  13.455  0.2001 -0.7754 -0.2754
 2487TIP3    H228877   5.424   5.317  13.523  0.0130  0.2052 -0.0833
 2488TIP3   OH228878   3.650   3.774  16.820  0.2080 -0.1390 -0.3700
 2488TIP3    H128879   3.696   3.858  16.823 -0.2181  0.1499 -1.5319
 2488TIP3    H228880   3.599   3.771  16.901 -0.8863  1.3766 -0.9644
 2489TIP3   OH228881   1.059   5.423   5.443  0.1707 -0.1486  0.1937
 2489TIP3    H128882   1.068   5.477   5.522 -4.0565 -1.7702  2.0812
 2489TIP3    H228883   0.994   5.470   5.389  3.0879  1.0137 -2.6251
 2490TIP3   OH228884   2.229   3.737   6.141 -0.2374 -0.0231 -0.8419
 2490TIP3    H128885   2.309   3.786   6.124  0.1028 -0.4075 -0.3671
 2490TIP3    H228886   2.253   3.645   6.129  0.1415 -0.3781  1.9410
 2491TIP3   OH228887   2.138   2.098  15.408  0.3540 -0.2041  0.0097
 2491TIP3    H128888   2.061   2.087  15.464 -0.2622  2.0478 -0.2952
 2491TIP3    H228889   2.122   2.179  15.360  3.0974  0.5780  0.2221
 2492TIP3   OH228890   2.695   1.089  16.408  0.6185 -0.1465  0.4281
 2492TIP3    H128891   2.781   1.113  16.443  0.6003  1.4778 -0.5233
 2492TIP3    H228892   2.642   1.069  16.484  1.2819  0.8094  1.1637
 2493TIP3   OH228893   3.245   1.587  13.914  0.1837 -1.3818  0.2068
 2493TIP3    H128894   3.181   1.599  13.984  1.6873 -0.7300  1.5333
 2493TIP3    H228895   3.329   1.609  13.954  0.8765  1.3163 -2.4145
 2494TIP3   OH228896   3.914   4.428   4.784  0.2106 -0.1062  0.1584
 2494TIP3    H128897   3.927   4.416   4.690  0.5370 -1.4666  0.3453
 2494TIP3    H228898   4.002   4.437   4.819  0.0740  0.6879  0.3132
 2495TIP3   OH228899   1.373   6.120   5.073 -0.0684 -0.2344  0.3169
 2495TIP3    H128900   1.375   6.214   5.090  0.2211  0.0645 -1.2130
 2495TIP3    H228901   1.448   6.086   5.122 -0.2592  0.3007  0.9981
 2496TIP3   OH228902   5.514   5.302   5.435  0.0910 -0.0862  0.6459
 2496TIP3    H128903   5.420   5.305   5.419 -0.0728  3.9836  1.5017
 2496TIP3    H228904   5.530   5.368   5.502  3.7371  0.4978 -0.5708
 2497TIP3   OH228905   3.557   6.232   5.281  0.0201 -0.5186  0.2712
 2497TIP3    H128906   3.494   6.290   5.323 -1.1403  1.4969 -3.6783
 2497TIP3    H228907   3.640   6.278   5.288  0.0386 -0.6839  1.1645
 2498TIP3   OH228908   4.628   6.089  16.374  0.7987  0.1110 -0.1337
 2498TIP3    H128909   4.538   6.116  16.354  0.6382  0.5043  1.0624
 2498TIP3    H228910   4.665   6.067  16.289 -0.4280 -0.0518 -0.6529
 2499TIP3   OH228911   5.664   1.658  15.094  0.3395  0.3850 -0.5887
 2499TIP3    H128912   5.744   1.671  15.144 -0.3495  0.6098  0.4914
 2499TIP3    H228913   5.642   1.566  15.107  0.7485  0.1580 -1.4128
 2500TIP3   OH228914   1.216   6.513   3.916  0.2579  0.2708  0.1480
 2500TIP3    H128915   1.251   6.587   3.965 -0.7701  1.5825 -0.9918
 2500TIP3    H228916   1.174   6.457   3.982  1.9585  0.1280  1.1486
 2501TIP3   OH228917   5.761   5.087   0.236  0.0639 -0.5788  0.6036
 2501TIP3    H128918   5.719   5.097   0.321 -0.4286  0.6125  0.2389
 2501TIP3    H228919   5.849   5.056   0.256  0.4099  0.9624  1.6622
 2502TIP3   OH228920   0.645   3.497  14.141  0.0805 -0.1870  0.4682
 2502TIP3    H128921   0.630   3.591  14.153 -0.0745 -0.0982 -0.3378
 2502TIP3    H228922   0.730   3.492  14.096  0.2519 -0.4509  0.8190
 2503TIP3   OH228923   3.280   2.250  16.022 -1.0524  0.1863 -0.0273
 2503TIP3    H128924   3.238   2.313  16.081 -1.6131  0.3653 -0.6125
 2503TIP3    H228925   3.232   2.258  15.940  0.3936  0.7070 -0.8615
 2504TIP3   OH228926   3.173   3.314   5.339  0.8118  0.5545 -0.4904
 2504TIP3    H128927   3.260   3.280   5.318  0.5609  0.7572 -1.9647
 2504TIP3    H228928   3.129   3.319   5.254 -0.0950  1.9541  0.0380
 2505TIP3   OH228929   3.319   0.069   2.400 -0.0346 -0.5800 -0.5293
 2505TIP3    H128930   3.294  -0.003   2.458 -1.8511 -0.2905 -0.8997
 2505TIP3    H228931   3.253   0.137   2.415  0.1656 -0.0151 -2.0347
 2506TIP3   OH228932   0.746   4.985  14.442  0.2894  0.0310 -0.6722
 2506TIP3    H128933   0.834   5.019  14.461 -0.4233  0.2670  2.9367
 2506TIP3    H228934   0.687   5.053  14.473 -1.1341 -2.0844  1.6714
 2507TIP3   OH228935   1.811   2.636   2.646 -0.4291 -0.3307  1.0282
 2507TIP3    H128936   1.727   2.652   2.689 -0.3324  3.1234  0.2450
 2507TIP3    H228937   1.794   2.655   2.553  1.4720  2.1448  1.0872
 2508TIP3   OH228938   3.222   3.274   2.318  0.2639  1.0447  0.7594
 2508TIP3    H128939   3.173   3.260   2.399 -0.0593 -0.1331  0.3826
 2508TIP3    H228940   3.313   3.283   2.346  0.2262  0.1072  1.2219
 2509TIP3   OH228941   6.323   3.051  11.712  0.1506  0.6145 -0.3630
 2509TIP3    H128942   6.239   3.048  11.757 -0.3465 -1.5675 -1.2722
 2509TIP3    H228943   6.308   3.003  11.630  1.5439  2.6490 -1.9031
 2510TIP3   OH228944   3.213   1.183  14.184 -0.6587  0.7240  0.0749
 2510TIP3    H128945   3.153   1.244  14.227 -2.5685 -1.1469  0.2331
 2510TIP3    H228946   3.166   1.154  14.106  0.3669 -0.2216 -0.2257
 2511TIP3   OH228947   6.656   1.194  14.390  0.3977  0.8969 -0.1295
 2511TIP3    H128948   6.617   1.123  14.339  1.1577  0.1922  0.2346
 2511TIP3    H228949   6.598   1.203  14.466 -0.0974  1.1593 -0.5358
 2512TIP3   OH228950   4.649   1.838  13.413 -0.3156 -0.4307  0.0957
 2512TIP3    H128951   4.596   1.773  13.459  0.5409 -1.3956 -0.2508
 2512TIP3    H228952   4.738   1.804  13.419  0.5062  1.7404  1.7419
 2513TIP3   OH228953   2.761   0.311  16.485  0.7961  0.0491  0.1512
 2513TIP3    H128954   2.809   0.283  16.563 -1.4590  1.2292  2.0963
 2513TIP3    H228955   2.702   0.239  16.466  0.6721  0.1590  0.1218
 2514TIP3   OH228956   0.416   0.241  12.243 -0.2844  0.0796  0.2643
 2514TIP3    H128957   0.327   0.243  12.209 -0.3587  1.6787  0.4835
 2514TIP3    H228958   0.411   0.286  12.327  0.6249 -0.3218  0.5449
 2515TIP3   OH228959   4.953   4.264   3.294  0.5605  0.1649  0.1323
 2515TIP3    H128960   4.949   4.216   3.211 -0.0818  0.4879 -0.0294
 2515TIP3    H228961   4.957   4.196   3.361 -1.3721 -0.1654 -0.0324
 2516TIP3   OH228962   1.086   2.455   2.808  0.4384  0.3763 -0.0275
 2516TIP3    H128963   1.060   2.367   2.836  2.2686  0.1950  1.2408
 2516TIP3    H228964   1.005   2.506   2.810 -0.7718 -1.3665 -1.2926
 2517TIP3   OH228965   1.533   4.098  11.919 -0.3576  0.8250 -0.2485
 2517TIP3    H128966   1.448   4.124  11.884 -1.6990 -1.1859  1.2621
 2517TIP3    H228967   1.525   4.110  12.014  0.0759 -1.6925  0.1881
 2518TIP3   OH228968   1.195   1.191   2.951  0.2884  0.6982 -0.3899
 2518TIP3    H128969   1.143   1.147   2.884 -1.4670  0.8183  0.8143
 2518TIP3    H228970   1.226   1.121   3.008 -0.5197  0.8084  0.1958
 2519TIP3   OH228971   1.401   1.434   4.913 -0.1079 -0.2888  0.5092
 2519TIP3    H128972   1.354   1.475   4.985 -0.8857 -0.4755  0.1105
 2519TIP3    H228973   1.434   1.507   4.861  0.3239 -0.1560  0.9597
 2520TIP3   OH228974   1.053   5.849   5.809 -0.1655  0.4113 -0.2708
 2520TIP3    H128975   0.966   5.810   5.796  0.3788 -1.2432  0.7356
 2520TIP3    H228976   1.039   5.918   5.874 -0.9721  1.2294 -1.2844
 2521TIP3   OH228977   4.013   4.698   4.487 -0.0717 -1.1978  0.1534
 2521TIP3    H128978   4.030   4.710   4.393 -0.0350 -0.0602  0.2903
 2521TIP3    H228979   3.972   4.612   4.493  1.3962 -1.9924 -0.7205
 2522TIP3   OH228980   2.337   5.858   4.510 -0.4999  0.0192  0.7417
 2522TIP3    H128981   2.388   5.938   4.493 -2.0691  0.4423 -3.0520
 2522TIP3    H228982   2.396   5.787   4.486 -0.4088  0.2999  0.1030
 2523TIP3   OH228983   2.599   3.093  13.108  0.0501 -0.1564 -0.4048
 2523TIP3    H128984   2.544   3.052  13.174  0.0176 -0.0917 -0.3923
 2523TIP3    H228985   2.544   3.098  13.030 -0.1592  0.4533 -0.2193
 2524TIP3   OH228986   0.069   1.487   5.786 -0.1768  0.3024 -0.1636
 2524TIP3    H128987  -0.008   1.434   5.806 -0.4092  0.8043  0.3048
 2524TIP3    H228988   0.131   1.467   5.856  0.4649 -0.7411 -0.9977
 2525TIP3   OH228989   0.901   0.798  13.784 -0.1124  0.1547  0.2072
 2525TIP3    H128990   0.977   0.857  13.786  0.9251 -1.1548  0.8803
 2525TIP3    H228991   0.924   0.728  13.846 -1.0290 -1.2757 -1.0254
 2526TIP3   OH228992   0.660   1.051   2.072  0.0850  0.0494  0.5181
 2526TIP3    H128993   0.672   0.974   2.128 -2.0085 -1.1575 -0.5831
 2526TIP3    H228994   0.565   1.066   2.071  0.1085  0.4612 -2.0887
 2527TIP3   OH228995   5.378   5.880  14.719 -0.1523  0.0579 -0.1382
 2527TIP3    H128996   5.307   5.879  14.654  0.0278  0.4588 -0.3427
 2527TIP3    H228997   5.369   5.964  14.762 -0.4948 -0.3518  0.6099
 2528TIP3   OH228998   3.440   0.497  15.301  0.0977 -0.1219  0.3989
 2528TIP3    H128999   3.406   0.573  15.253  1.4219 -0.5648 -1.3733
 2528TIP3    H229000   3.524   0.528  15.336 -0.6021  0.0185  2.0142
 2529TIP3   OH229001   4.661   3.140  16.368  0.0930 -0.3054  0.0144
 2529TIP3    H129002   4.728   3.193  16.412 -1.1248  0.0846  1.5040
 2529TIP3    H229003   4.636   3.193  16.292  0.1336  0.4625  0.5162
 2530TIP3   OH229004   0.543   4.813   4.996 -1.0612 -0.8276  0.3701
 2530TIP3    H129005   0.636   4.795   5.011 -0.6622  0.4440 -0.4053
 2530TIP3    H229006   0.522   4.763   4.917 -1.2566 -1.7437  0.9900
 2531TIP3   OH229007   5.179   3.568   2.611 -0.0518  0.1785 -0.5589
 2531TIP3    H129008   5.268   3.594   2.588  0.1834  0.1683  0.2806
 2531TIP3    H229009   5.131   3.651   2.616 -0.0217  0.2069 -0.7329
 2532TIP3   OH229010   4.436   5.251   2.259  0.2152 -0.4448 -0.2820
 2532TIP3    H129011   4.395   5.311   2.321 -0.6250 -0.7369 -0.5450
 2532TIP3    H229012   4.525   5.284   2.249 -0.0280  0.3532  0.1027
 2533TIP3   OH229013   5.532   1.346   2.916  0.0110  0.0200  0.4401
 2533TIP3    H129014   5.518   1.387   2.831 -3.0921 -1.3143  0.1745
 2533TIP3    H229015   5.531   1.420   2.978  0.2161  0.8211 -0.4821
 2534TIP3   OH229016   3.069   1.380   1.788 -0.6316 -0.3294 -0.3154
 2534TIP3    H129017   2.984   1.420   1.810  0.2876  0.8076  1.3475
 2534TIP3    H229018   3.111   1.365   1.873  0.5138 -1.6357 -1.0821
 2535TIP3   OH229019   2.605   5.209  12.982 -0.1446 -0.4713 -0.2043
 2535TIP3    H129020   2.684   5.182  12.935  0.7988  0.3198  0.8935
 2535TIP3    H229021   2.585   5.135  13.040  0.2071 -0.3846  0.0292
 2536TIP3   OH229022   1.988   5.427   4.613  0.1659 -0.0800  0.2772
 2536TIP3    H129023   2.004   5.345   4.660 -2.2930 -0.2386  1.0201
 2536TIP3    H229024   2.019   5.495   4.673  4.1404 -0.3541 -1.1765
 2537TIP3   OH229025   2.143   1.955   2.384 -0.1273  0.2619  0.4132
 2537TIP3    H129026   2.200   2.004   2.325 -2.1645  0.7406 -1.2763
 2537TIP3    H229027   2.183   1.868   2.391  1.9970  1.2434  1.1705
 2538TIP3   OH229028   1.986   1.395  10.932  0.0693  0.1851 -0.3752
 2538TIP3    H129029   2.034   1.455  10.875 -0.0327  1.0937  0.4691
 2538TIP3    H229030   1.947   1.451  10.999  0.7387 -0.9050  0.9761
 2539TIP3   OH229031   4.051   0.906  11.301  0.4693  0.1297 -1.1606
 2539TIP3    H129032   4.076   0.899  11.393 -1.4326 -0.8896 -0.6666
 2539TIP3    H229033   4.105   0.840  11.257 -0.5624 -1.3859 -0.2733
 2540TIP3   OH229034   4.802   2.005  13.614 -0.4797 -0.3189 -0.3938
 2540TIP3    H129035   4.856   1.988  13.537 -1.2253  1.5460 -1.4120
 2540TIP3    H229036   4.843   2.082  13.655 -1.8311  0.6228 -0.7298
 2541TIP3   OH229037   6.541   2.816  16.790 -0.6172 -0.3423  0.2441
 2541TIP3    H129038   6.541   2.725  16.758 -0.7091 -0.2048 -0.1582
 2541TIP3    H229039   6.632   2.844  16.780 -0.3901 -0.6939  1.2647
 2542TIP3   OH229040   6.759   2.526   5.173  0.1155 -0.7866 -0.1553
 2542TIP3    H129041   6.797   2.593   5.230  0.8662 -1.1058 -0.2682
 2542TIP3    H229042   6.795   2.546   5.086  0.8686 -1.7098 -0.0742
 2543TIP3   OH229043   5.530   4.707   4.721  0.2314 -0.2263 -0.0777
 2543TIP3    H129044   5.494   4.698   4.633 -1.8657 -0.4082  0.7348
 2543TIP3    H229045   5.473   4.654   4.776  0.9327  0.6082  1.5334
 2544TIP3   OH229046   5.676   6.135   0.666  0.0274  0.4116 -0.0351
 2544TIP3    H129047   5.723   6.217   0.653  1.1265 -0.2295 -0.1831
 2544TIP3    H229048   5.744   6.068   0.669 -0.8612 -0.5142 -0.0148
 2545TIP3   OH229049   0.479   1.527  15.601 -0.1572  0.0628 -0.5111
 2545TIP3    H129050   0.512   1.476  15.528  1.1495  0.3973 -0.1762
 2545TIP3    H229051   0.429   1.465  15.654 -0.3924 -0.3631 -1.2280
 2546TIP3   OH229052   0.616   1.776  16.139  0.0334 -0.4788 -0.3968
 2546TIP3    H129053   0.572   1.751  16.057 -0.5810 -1.0010  0.0782
 2546TIP3    H229054   0.560   1.843  16.177  1.5967  1.5948 -1.5836
 2547TIP3   OH229055   3.665   3.767  13.194 -0.3026  0.5935 -0.0138
 2547TIP3    H129056   3.597   3.804  13.250 -1.7807  0.9502 -1.9632
 2547TIP3    H229057   3.661   3.818  13.114 -0.8946 -2.2597 -1.9714
 2548TIP3   OH229058   4.192   4.983   6.024 -0.0123  0.1424 -0.4752
 2548TIP3    H129059   4.151   5.014   6.105  1.4421  1.9009 -0.3440
 2548TIP3    H229060   4.119   4.969   5.964 -0.9232  2.0643  0.0910
 2549TIP3   OH229061   1.634   4.542   0.933  0.5202 -0.1105 -0.3260
 2549TIP3    H129062   1.593   4.534   0.847 -2.6548  0.2731  1.0299
 2549TIP3    H229063   1.625   4.635   0.956  1.9141 -0.0762  0.1817
 2550TIP3   OH229064   0.314   3.840  13.573  0.3067 -0.0510  0.6102
 2550TIP3    H129065   0.393   3.823  13.522 -0.3290 -1.1326 -0.0504
 2550TIP3    H229066   0.323   3.931  13.601  1.0287  0.3308 -0.7901
 2551TIP3   OH229067   1.507   3.845   1.943 -0.7519 -0.4651  0.3955
 2551TIP3    H129068   1.470   3.885   2.022 -1.6660 -2.5051  1.0863
 2551TIP3    H229069   1.462   3.888   1.871 -1.1329  0.2797  1.0599
 2552TIP3   OH229070   5.191   4.000   1.153  0.1828  0.8237  0.1521
 2552TIP3    H129071   5.211   3.907   1.160  0.2229  0.8551  0.4509
 2552TIP3    H229072   5.275   4.044   1.158  0.1142  0.9107  0.6578
 2553TIP3   OH229073   5.536   6.333  11.517  0.3110  0.1764 -0.3990
 2553TIP3    H129074   5.517   6.416  11.475  1.0630  0.0315 -1.0708
 2553TIP3    H229075   5.457   6.280  11.504 -0.3899  0.9570  0.5357
 2554TIP3   OH229076   5.831   3.890   4.900  0.1180  0.6379 -0.1810
 2554TIP3    H129077   5.917   3.931   4.915  1.0428 -1.0427 -0.5798
 2554TIP3    H229078   5.822   3.827   4.972 -0.3132  0.0864 -0.7084
 2555TIP3   OH229079   1.120   6.127   3.263  0.0780 -0.5197 -0.3379
 2555TIP3    H129080   1.101   6.166   3.348 -1.1316 -0.8296 -0.4456
 2555TIP3    H229081   1.043   6.074   3.244  0.2894 -0.3606 -1.6872
 2556TIP3   OH229082   5.850   4.200  14.018  0.4966  0.2442 -0.1026
 2556TIP3    H129083   5.924   4.193  14.078 -2.3656  1.1969  3.9429
 2556TIP3    H229084   5.839   4.112  13.982  2.7963 -0.1765  0.0862
 2557TIP3   OH229085   3.404   2.858  15.788 -0.2328  0.7256  0.3038
 2557TIP3    H129086   3.326   2.828  15.835  0.7283 -1.5231  0.5832
 2557TIP3    H229087   3.445   2.920  15.848 -1.3843  1.3710  0.4654
 2558TIP3   OH229088   3.619   5.785  12.025  0.1647 -0.5523 -0.3635
 2558TIP3    H129089   3.713   5.797  12.031  0.2061 -0.1692 -1.5832
 2558TIP3    H229090   3.589   5.856  11.969 -1.1600  0.6472  1.7306
 2559TIP3   OH229091   3.201   0.453   4.885  0.4279  0.3681 -0.3598
 2559TIP3    H129092   3.276   0.407   4.849  0.5736  1.2055 -1.1528
 2559TIP3    H229093   3.170   0.396   4.956  2.1753  0.3039  0.3955
 2560TIP3   OH229094   5.718   1.138  16.933 -0.2614 -0.5689  0.3991
 2560TIP3    H129095   5.742   1.201  16.865  2.6862  1.1089  2.7287
 2560TIP3    H229096   5.628   1.160  16.955  0.3052  2.2327  0.3619
 2561TIP3   OH229097   0.572   5.853  11.405  0.2275 -0.5195  0.6749
 2561TIP3    H129098   0.662   5.821  11.396 -0.2550 -1.7232 -0.1983
 2561TIP3    H229099   0.563   5.872  11.499  1.5982  0.3373  0.6706
 2562TIP3   OH229100   4.902   6.558  13.331  0.9541  0.2463  0.1254
 2562TIP3    H129101   4.853   6.640  13.317  1.9057  0.6881 -0.7602
 2562TIP3    H229102   4.835   6.490  13.328  0.3532  0.8514 -0.9928
 2563TIP3   OH229103   3.619   0.946  13.581  0.1215 -0.4073  0.0047
 2563TIP3    H129104   3.529   0.931  13.611 -0.4066 -2.0709 -2.0940
 2563TIP3    H229105   3.609   1.005  13.506  0.9570  0.5877  0.6660
 2564TIP3   OH229106   5.731   0.371   3.905 -0.3544 -0.4835  0.4093
 2564TIP3    H129107   5.805   0.337   3.854  1.1885 -0.6639  2.6218
 2564TIP3    H229108   5.669   0.298   3.909  0.6457 -1.3366  0.8695
 2565TIP3   OH229109   4.552   5.642   3.011 -0.2989 -0.1470 -0.2373
 2565TIP3    H129110   4.464   5.606   2.997 -1.0602  2.0673 -1.6658
 2565TIP3    H229111   4.538   5.736   3.023  1.7365 -0.0091  1.6368
 2566TIP3   OH229112   1.143   6.428   4.927 -0.4036  0.3497 -0.3315
 2566TIP3    H129113   1.186   6.360   4.875  0.7683 -0.6481  1.7889
 2566TIP3    H229114   1.214   6.468   4.977 -1.5001  0.9266  0.8181
 2567TIP3   OH229115   1.266   3.971  16.742  0.0469  0.3208 -0.1394
 2567TIP3    H129116   1.197   3.938  16.685  0.6481  1.0593 -1.3344
 2567TIP3    H229117   1.306   4.043  16.693  0.0100  1.6005  1.5955
 2568TIP3   OH229118   3.849   5.300  13.062  0.1995  0.9609  0.2533
 2568TIP3    H129119   3.805   5.327  12.982 -0.9665  0.2100  0.6115
 2568TIP3    H229120   3.785   5.317  13.131  0.6008  0.1620  0.8356
 2569TIP3   OH229121   0.872   3.054  14.455 -0.1012  0.5683 -0.1671
 2569TIP3    H129122   0.907   2.983  14.507 -3.5930 -0.2625  1.3836
 2569TIP3    H229123   0.919   3.132  14.484  0.1362 -0.3442  2.0562
 2570TIP3   OH229124   2.323   4.757   4.592  1.1391 -0.2894  0.2098
 2570TIP3    H129125   2.364   4.717   4.514  2.4892 -0.9534  1.2082
 2570TIP3    H229126   2.385   4.825   4.619 -0.0083  0.9043 -0.0915
 2571TIP3   OH229127   0.816   6.216  16.829 -0.1964 -0.4009 -0.1156
 2571TIP3    H129128   0.874   6.288  16.802 -0.2386 -0.9599 -1.8096
 2571TIP3    H229129   0.741   6.260  16.869  0.9095  0.3664  1.2310
 2572TIP3   OH229130   4.545   3.089  12.330  0.1314 -0.3638 -0.2556
 2572TIP3    H129131   4.560   3.005  12.288  0.9954  0.8601 -2.5687
 2572TIP3    H229132   4.465   3.122  12.289  0.3309  0.3483 -0.0877
 2573TIP3   OH229133   5.508   1.799   4.855  0.1584  0.4297  0.1255
 2573TIP3    H129134   5.463   1.769   4.934 -0.4355  1.7098  0.2858
 2573TIP3    H229135   5.504   1.724   4.795 -0.1699 -0.2430  0.9734
 2574TIP3   OH229136   4.112   2.284  16.434  0.1482 -0.0192  0.4808
 2574TIP3    H129137   4.035   2.286  16.377  0.5042 -0.6081 -0.0362
 2574TIP3    H229138   4.185   2.307  16.376  0.6150 -1.3078  0.5208
 2575TIP3   OH229139   0.989   3.116   5.053  0.1044  0.3178 -0.3422
 2575TIP3    H129140   1.022   3.032   5.083 -0.5927  0.7179  1.7628
 2575TIP3    H229141   1.010   3.177   5.124 -0.0875  1.7614 -1.4652
 2576TIP3   OH229142   5.089   2.266  14.375  0.4855  0.2281  0.3144
 2576TIP3    H129143   5.003   2.292  14.344  0.4640 -0.1808  0.0263
 2576TIP3    H229144   5.136   2.239  14.297  0.0487 -1.9145  0.7153
 2577TIP3   OH229145   4.698   2.939   2.935 -0.0555  0.4171 -0.4006
 2577TIP3    H129146   4.780   2.895   2.909  0.8197  0.2597  2.2820
 2577TIP3    H229147   4.648   2.871   2.979 -0.4036  1.1796  0.4047
 2578TIP3   OH229148   2.015   1.381   4.301  0.0571 -0.1215  0.5699
 2578TIP3    H129149   2.042   1.470   4.279  0.6285 -0.0331  1.5609
 2578TIP3    H229150   2.076   1.353   4.369 -1.9201 -0.1755  2.4285
 2579TIP3   OH229151   1.994   4.657  14.334 -0.7238 -0.5081 -0.5447
 2579TIP3    H129152   2.060   4.691  14.275  0.6822  1.5058  1.9868
 2579TIP3    H229153   1.924   4.721  14.333  0.3921  0.8785  1.6391
 2580TIP3   OH229154   3.228   0.129   3.640  0.1016 -0.1733 -0.5433
 2580TIP3    H129155   3.303   0.072   3.652 -0.7713 -1.1624  0.4499
 2580TIP3    H229156   3.182   0.094   3.563 -0.2515 -0.6068 -0.1363
 2581TIP3   OH229157   5.882   3.334  16.154 -0.2424 -0.5204 -0.1757
 2581TIP3    H129158   5.877   3.239  16.150  0.4821 -0.6334  0.9942
 2581TIP3    H229159   5.974   3.354  16.135  0.0132 -0.2042  1.2232
 2582TIP3   OH229160   0.582   3.955  15.518 -0.3452  0.2997  0.0170
 2582TIP3    H129161   0.651   3.978  15.580  0.6053 -0.2550 -0.8180
 2582TIP3    H229162   0.517   3.908  15.571  0.2152  0.2674  0.6897
 2583TIP3   OH229163   0.394   6.540   2.374  0.0445  0.3770  0.2122
 2583TIP3    H129164   0.433   6.609   2.320 -0.1062  2.3161  2.4168
 2583TIP3    H229165   0.364   6.585   2.453 -1.2188 -2.0422  1.2313
 2584TIP3   OH229166   5.024   0.853   4.170 -0.3979 -0.3627  0.2673
 2584TIP3    H129167   5.119   0.863   4.162 -0.2308 -0.6554  1.5389
 2584TIP3    H229168   4.989   0.900   4.095  0.6994  1.5147  0.8283
 2585TIP3   OH229169   2.465   0.299   3.808 -0.4194 -0.0022 -0.1139
 2585TIP3    H129170   2.377   0.265   3.790  0.0344 -0.6870 -1.0976
 2585TIP3    H229171   2.492   0.253   3.888 -0.0126 -1.6455 -1.1540
 2586TIP3   OH229172   2.902   0.393  15.373  0.5612  0.0435  0.2007
 2586TIP3    H129173   2.926   0.423  15.285  0.4326 -1.3334 -0.3302
 2586TIP3    H229174   2.874   0.472  15.419  1.7565  0.9683 -0.6165
 2587TIP3   OH229175   1.740   1.583   5.950  0.1673 -0.4471 -0.1646
 2587TIP3    H129176   1.680   1.605   5.879 -1.1573 -0.6758  0.8475
 2587TIP3    H229177   1.815   1.542   5.906 -1.1344 -1.6833 -1.3423
 2588TIP3   OH229178   0.100   3.816   3.483  0.0162  0.3101 -0.4046
 2588TIP3    H129179   0.104   3.760   3.561  0.7925  1.7712  0.6545
 2588TIP3    H229180   0.096   3.755   3.410  1.2533 -1.1529  0.6818
 2589TIP3   OH229181   3.730   0.391  14.107 -0.0537  0.3297 -0.2263
 2589TIP3    H129182   3.729   0.469  14.050  2.0563  0.7117  0.1468
 2589TIP3    H229183   3.693   0.421  14.189  0.7082  0.9764 -0.0972
 2590TIP3   OH229184   6.632   2.542   1.022 -0.1227  0.2262 -0.4342
 2590TIP3    H129185   6.688   2.510   1.093  0.0216  0.0543 -0.6224
 2590TIP3    H229186   6.561   2.478   1.017 -1.6488  1.6601  1.3534
 2591TIP3   OH229187   0.589   6.775  14.714 -0.2279  0.0506  0.2203
 2591TIP3    H129188   0.537   6.855  14.720 -2.0113 -1.0402 -0.1274
 2591TIP3    H229189   0.675   6.800  14.748 -0.5251  2.2799 -0.5573
 2592TIP3   OH229190   4.934   6.615  12.274 -0.4143 -0.7587  0.5980
 2592TIP3    H129191   4.912   6.700  12.310 -1.2834 -0.0500 -1.4569
 2592TIP3    H229192   5.026   6.622  12.249 -0.3520 -0.6038  0.8704
 2593TIP3   OH229193   3.317   0.061   0.420 -0.3884 -0.0799  0.2465
 2593TIP3    H129194   3.257   0.130   0.446  1.2965  1.9630 -0.9362
 2593TIP3    H229195   3.378   0.053   0.494 -1.3472 -1.2904  0.9364
 2594TIP3   OH229196   2.090   1.930   5.375 -0.2128 -0.2797 -0.0219
 2594TIP3    H129197   2.156   1.981   5.329 -0.5231 -0.8648 -1.1688
 2594TIP3    H229198   2.105   1.948   5.468  0.5250  0.8326 -0.3375
 2595TIP3   OH229199   2.411   0.474   1.955  0.0032 -0.6719 -0.0883
 2595TIP3    H129200   2.425   0.389   1.913  0.9637 -0.9658  0.7650
 2595TIP3    H229201   2.318   0.477   1.973 -0.0794 -1.4483 -0.3332
 2596TIP3   OH229202   3.616   0.249   0.953  0.2133 -0.1266 -0.1834
 2596TIP3    H129203   3.551   0.317   0.936  0.3203 -0.1996 -0.8849
 2596TIP3    H229204   3.679   0.291   1.012  0.2315  0.3544 -0.5427
 2597TIP3   OH229205   4.643   6.062   0.473  0.4729  0.5751  0.1739
 2597TIP3    H129206   4.733   6.031   0.458  0.1257 -1.5099  1.8846
 2597TIP3    H229207   4.593   6.025   0.400  0.6766  0.0600  0.2921
 2598TIP3   OH229208   3.528   1.622  16.552  0.5720  0.1648 -0.2779
 2598TIP3    H129209   3.620   1.597  16.553  0.3738 -0.7441  1.8936
 2598TIP3    H229210   3.527   1.714  16.526  1.9386 -0.1934 -1.7086
 2599TIP3   OH229211   6.413   1.444  11.316 -0.3644 -0.2726  0.2152
 2599TIP3    H129212   6.498   1.471  11.351 -0.6736 -0.0030  0.7857
 2599TIP3    H229213   6.424   1.444  11.221  0.6863 -1.6373  0.3139
 2600TIP3   OH229214   0.511   6.026  16.040 -0.1269  0.5626  0.4199
 2600TIP3    H129215   0.603   6.000  16.038 -0.2401  0.1744  0.1673
 2600TIP3    H229216   0.474   5.993  15.958 -0.7032 -0.0723  0.9231
 2601TIP3   OH229217   0.066   4.895   1.107 -0.1759 -0.3123  0.4177
 2601TIP3    H129218   0.084   4.822   1.049  0.9246 -0.1951  0.5945
 2601TIP3    H229219   0.144   4.901   1.163 -0.3249  0.8860  0.5141
 2602TIP3   OH229220   2.733   6.193  11.577  0.5157  0.0878 -0.3571
 2602TIP3    H129221   2.685   6.224  11.500  1.0881  2.8930  0.3195
 2602TIP3    H229222   2.781   6.269  11.608 -0.0689 -0.7607  3.1007
 2603TIP3   OH229223   2.908   2.584  12.698  1.0307 -0.3132 -0.2200
 2603TIP3    H129224   2.901   2.493  12.670  1.0459 -0.7062  0.9802
 2603TIP3    H229225   2.837   2.595  12.762 -1.2975  1.5565 -2.8476
 2604TIP3   OH229226   6.137   1.166   2.151  0.0505  0.0361 -0.7269
 2604TIP3    H129227   6.111   1.078   2.179 -0.0038  0.8966  2.2260
 2604TIP3    H229228   6.103   1.224   2.219  0.2381  2.3544 -2.5050
 2605TIP3   OH229229   5.286   1.210  14.813 -0.0744  0.8908 -0.2911
 2605TIP3    H129230   5.301   1.118  14.792 -2.7538  0.4606 -0.6358
 2605TIP3    H229231   5.294   1.215  14.908  2.5805  0.8797 -0.4512
 2606TIP3   OH229232   1.390   4.831  15.792  0.4820 -0.1952  0.5535
 2606TIP3    H129233   1.352   4.869  15.712  2.8570  2.0791  0.3621
 2606TIP3    H229234   1.430   4.750  15.763 -1.3358 -1.0028  0.1309
 2607TIP3   OH229235   5.706   3.757  14.830 -0.1287 -0.0059 -0.4069
 2607TIP3    H129236   5.744   3.670  14.829 -1.5102 -0.6796 -3.1790
 2607TIP3    H229237   5.633   3.751  14.891 -1.2023 -1.3330 -1.7443
 2608TIP3   OH229238   6.166   6.613   1.323 -0.0300  0.1466  0.8134
 2608TIP3    H129239   6.133   6.662   1.248  0.3246  0.5209  0.8995
 2608TIP3    H229240   6.259   6.636   1.328  0.5269 -1.6898 -0.0655
 2609TIP3   OH229241   1.341   2.335  11.055 -0.7992 -0.1422 -0.0377
 2609TIP3    H129242   1.301   2.268  10.999  0.9843 -0.9322 -0.4328
 2609TIP3    H229243   1.365   2.405  10.995  1.9277 -1.3672 -0.5256
 2610TIP3   OH229244   3.779   1.857  13.505  0.4111 -0.1021  0.4829
 2610TIP3    H129245   3.767   1.918  13.579  0.7847  0.1294  0.3539
 2610TIP3    H229246   3.724   1.782  13.528  0.0359  0.2275  0.7052
 2611TIP3   OH229247   0.063   0.804   5.574  0.6488  0.2471  0.7751
 2611TIP3    H129248   0.003   0.849   5.516  1.1043 -0.1564 -0.0181
 2611TIP3    H229249   0.059   0.712   5.547  1.1851  0.1198  1.0991
 2612TIP3   OH229250   5.153   1.566  12.522 -0.3797 -0.4744  0.0003
 2612TIP3    H129251   5.094   1.601  12.589  0.8567  2.5010 -0.3022
 2612TIP3    H229252   5.096   1.517  12.463 -1.8959 -0.9728  1.7953
 2613TIP3   OH229253   4.080   3.270  16.450 -0.2346 -0.0543  0.0718
 2613TIP3    H129254   4.101   3.176  16.450  1.0780  0.2257 -0.0792
 2613TIP3    H229255   3.986   3.273  16.431  0.1599 -1.2512 -2.4760
 2614TIP3   OH229256   5.557   3.995  16.706 -0.4871 -0.0881  0.2729
 2614TIP3    H129257   5.591   4.085  16.712  0.4956 -0.4715  0.6113
 2614TIP3    H229258   5.504   3.995  16.626 -1.0254  0.9599  0.5968
 2615TIP3   OH229259   5.119   2.410   3.200  0.4228 -0.3181 -0.5811
 2615TIP3    H129260   5.108   2.315   3.192 -1.0335 -0.1124 -1.1759
 2615TIP3    H229261   5.148   2.439   3.113  2.1522 -0.3499 -0.0593
 2616TIP3   OH229262   3.242   3.860   0.591 -0.1895  0.0896  0.0528
 2616TIP3    H129263   3.300   3.896   0.659  0.4783  0.1722 -0.5532
 2616TIP3    H229264   3.188   3.934   0.564 -0.0675  0.1972  0.1001
 2617TIP3   OH229265   4.129   4.893  14.247  0.0483 -0.0265 -0.5141
 2617TIP3    H129266   4.194   4.928  14.186 -0.2182 -1.2023 -1.5086
 2617TIP3    H229267   4.099   4.812  14.206 -0.2179 -0.7989  1.1411
 2618TIP3   OH229268   1.563   4.609   0.684 -0.3332  0.1574 -0.1165
 2618TIP3    H129269   1.633   4.674   0.689 -1.0152  0.9655 -0.8254
 2618TIP3    H229270   1.521   4.625   0.600  0.6998 -2.4729 -1.2531
 2619TIP3   OH229271   1.061   6.421   2.925  0.5239  0.3393  0.4626
 2619TIP3    H129272   1.105   6.419   3.010  0.5580 -0.9028  0.4228
 2619TIP3    H229273   0.972   6.390   2.943  0.7774 -0.7276 -0.0836
 2620TIP3   OH229274   3.300   0.873   2.993 -0.4364 -0.2666 -0.0530
 2620TIP3    H129275   3.220   0.907   3.033 -1.2879  0.7849 -2.4199
 2620TIP3    H229276   3.370   0.898   3.054 -1.3431  3.4655 -0.2731
 2621TIP3   OH229277   4.435   2.567  11.731  0.2478 -0.0627 -0.0916
 2621TIP3    H129278   4.530   2.575  11.727  0.1631  1.3661  0.3862
 2621TIP3    H229279   4.403   2.619  11.657 -0.1839 -0.2828 -0.0652
 2622TIP3   OH229280   0.891   0.189  12.710 -0.3947 -0.1110  0.4916
 2622TIP3    H129281   0.920   0.269  12.665 -0.4550  0.1246  0.8662
 2622TIP3    H229282   0.883   0.124  12.641 -0.7173  0.3136  0.1266
 2623TIP3   OH229283   3.330   3.409   2.708 -0.0932 -0.1695  0.0348
 2623TIP3    H129284   3.236   3.424   2.697 -0.0888  0.8056  1.1773
 2623TIP3    H229285   3.370   3.460   2.637 -0.4119 -0.5645 -0.4402
 2624TIP3   OH229286   3.089   3.244   4.362 -0.3067  0.1911  0.5444
 2624TIP3    H129287   3.032   3.287   4.426  0.1491 -0.7705  1.6314
 2624TIP3    H229288   3.036   3.239   4.282 -0.9778  1.1931  0.9082
 2625TIP3   OH229289   5.404   1.477  16.463 -0.2268 -0.0676  0.8424
 2625TIP3    H129290   5.325   1.434  16.497 -0.0062  1.4142  3.5349
 2625TIP3    H229291   5.371   1.551  16.412 -0.5480 -0.9879 -0.3382
 2626TIP3   OH229292   6.633   1.337   5.873  0.2799 -0.0825  0.4352
 2626TIP3    H129293   6.562   1.349   5.936 -1.2065 -3.2450 -0.4182
 2626TIP3    H229294   6.701   1.291   5.923  0.1737 -0.2971  0.3857
 2627TIP3   OH229295   1.681   2.687  16.578 -0.6945 -0.5090 -0.2223
 2627TIP3    H129296   1.722   2.725  16.656 -0.4481 -2.3511  0.6081
 2627TIP3    H229297   1.664   2.762  16.521  0.3343  0.7469  1.0345
 2628TIP3   OH229298   3.058   6.241  11.879  0.1645 -0.0493  0.0202
 2628TIP3    H129299   3.072   6.178  11.950  0.7810  0.2396  0.1674
 2628TIP3    H229300   3.084   6.193  11.800 -0.9527 -0.5225 -0.0791
 2629TIP3   OH229301   4.906   4.111  12.958  0.1008  0.0383 -0.0919
 2629TIP3    H129302   4.941   4.145  13.040  0.8431 -0.5346 -0.1556
 2629TIP3    H229303   4.960   4.033  12.940  0.2530  0.4117 -1.3432
 2630TIP3   OH229304   2.984   4.099   2.728  0.1050  0.3476  0.7418
 2630TIP3    H129305   3.071   4.062   2.712 -0.6427 -0.5510 -1.7047
 2630TIP3    H229306   2.973   4.094   2.823  1.4157 -2.6307  0.8557
 2631TIP3   OH229307   3.641   0.141  15.390  0.4652  0.1019  0.1076
 2631TIP3    H129308   3.570   0.109  15.446  1.4751 -0.6770  1.0078
 2631TIP3    H229309   3.630   0.094  15.308  0.1403 -0.2846  0.3691
 2632TIP3   OH229310   4.406   0.683  15.627 -0.1203  0.1053 -0.5333
 2632TIP3    H129311   4.403   0.768  15.672  0.6130  0.8324 -1.8201
 2632TIP3    H229312   4.474   0.693  15.561 -0.6359 -1.2088 -1.2921
 2633TIP3   OH229313   2.883   3.285   4.159  0.6644  0.3298  0.2815
 2633TIP3    H129314   2.793   3.283   4.192  0.9385  0.6569  1.0845
 2633TIP3    H229315   2.878   3.338   4.080 -0.0786 -0.8096 -0.4538
 2634TIP3   OH229316   0.574   3.422  15.769 -0.9578 -0.0640  0.2682
 2634TIP3    H129317   0.600   3.488  15.705 -1.0064 -0.3075  0.0011
 2634TIP3    H229318   0.579   3.339  15.723 -1.7985 -0.1622  0.3358
 2635TIP3   OH229319   5.900   5.357  13.609  0.1020  0.6172 -0.2606
 2635TIP3    H129320   5.956   5.358  13.531 -0.5062 -0.6139 -0.7336
 2635TIP3    H229321   5.957   5.387  13.680  1.3010 -0.4039 -0.7726
 2636TIP3   OH229322   1.718   2.954  15.016  0.9738 -0.5798 -0.6096
 2636TIP3    H129323   1.648   2.943  14.952  1.2622 -1.8899 -0.7349
 2636TIP3    H229324   1.729   3.049  15.024 -0.5584 -0.3485 -0.8471
 2637TIP3   OH229325   4.703   5.743  12.174  0.2819 -0.3810  0.0546
 2637TIP3    H129326   4.765   5.815  12.168 -0.3759  0.0981 -2.1544
 2637TIP3    H229327   4.623   5.782  12.210  0.6009 -0.5365  0.9544
 2638TIP3   OH229328   5.400   6.644   1.589 -0.6006  0.3134  0.0317
 2638TIP3    H129329   5.366   6.555   1.575  0.5883 -0.2792  0.7572
 2638TIP3    H229330   5.321   6.698   1.595 -1.3273 -0.3788 -2.1859
 2639TIP3   OH229331   3.802   2.768   1.682  0.0685 -0.2747 -0.0889
 2639TIP3    H129332   3.801   2.806   1.594 -1.6427 -1.6189 -0.7110
 2639TIP3    H229333   3.864   2.822   1.731 -1.1161  2.3450 -1.2992
 2640TIP3   OH229334   4.323   4.616  12.777 -0.0462 -0.3880  0.3460
 2640TIP3    H129335   4.357   4.530  12.802  0.8954 -0.3559 -0.7528
 2640TIP3    H229336   4.370   4.638  12.698 -0.2840  1.1592  0.6097
 2641TIP3   OH229337   1.087   2.988  14.994 -0.8339  0.4217  0.3649
 2641TIP3    H129338   1.102   2.906  14.947 -0.5707  1.8749 -2.2948
 2641TIP3    H229339   0.992   2.992  15.005 -0.8109 -0.4704  1.0507
 2642TIP3   OH229340   4.910   3.119   3.494  0.3639 -0.1392 -0.1568
 2642TIP3    H129341   4.917   3.024   3.501 -1.0214 -0.2871 -0.6115
 2642TIP3    H229342   4.898   3.149   3.584 -1.6166 -0.6295 -0.2240
 2643TIP3   OH229343   0.739   2.678   0.772  0.3084 -0.4849 -0.0740
 2643TIP3    H129344   0.754   2.590   0.739  1.0964 -0.1206 -0.7096
 2643TIP3    H229345   0.789   2.735   0.714  0.7822  0.2781  1.0329
 2644TIP3   OH229346   5.833   4.956  17.154  0.3742  0.4246 -0.0871
 2644TIP3    H129347   5.826   5.048  17.182  2.3004  0.4439  0.4411
 2644TIP3    H229348   5.758   4.944  17.096  0.1784  2.4058 -0.3424
 2645TIP3   OH229349   4.555   2.912   4.846  0.4908  1.0231 -0.4592
 2645TIP3    H129350   4.468   2.942   4.818  0.0841  0.4676  0.1549
 2645TIP3    H229351   4.543   2.892   4.939  0.8542 -0.6204 -0.7458
 2646TIP3   OH229352   5.254   4.109  13.906  0.1337 -0.4999  0.2576
 2646TIP3    H129353   5.347   4.087  13.905  0.7752  1.8863  0.7937
 2646TIP3    H229354   5.251   4.198  13.871 -2.0188 -0.7347 -0.2362
 2647TIP3   OH229355   5.113   2.358   3.945  0.0623  0.9297 -0.6768
 2647TIP3    H129356   5.154   2.371   3.860  4.4519 -1.9799  0.6148
 2647TIP3    H229357   5.163   2.414   4.005 -1.2245  1.0236  0.3536
 2648TIP3   OH229358   4.828   0.555   3.461  0.6775  0.2012 -0.0510
 2648TIP3    H129359   4.893   0.555   3.391  1.8798  1.3687  1.0059
 2648TIP3    H229360   4.868   0.608   3.530 -1.5451  1.2126  0.5233
 2649TIP3   OH229361   6.574   6.614   2.196 -0.0241 -0.3171 -0.4944
 2649TIP3    H129362   6.585   6.551   2.268 -0.7024 -0.7540 -0.7611
 2649TIP3    H229363   6.569   6.559   2.117 -0.2875  0.0966 -0.7653
 2650TIP3   OH229364   0.382   3.040   0.660 -0.3486 -0.5379  0.1683
 2650TIP3    H129365   0.434   2.972   0.616  0.7475 -1.4288  2.6880
 2650TIP3    H229366   0.403   3.121   0.612 -1.1492 -1.7601 -2.4608
 2651TIP3   OH229367   1.726   5.551  14.491 -0.1581  0.2668  0.0244
 2651TIP3    H129368   1.706   5.570  14.400  2.8071  0.9765 -0.5963
 2651TIP3    H229369   1.733   5.637  14.533  1.5914  0.1253  0.1035
 2652TIP3   OH229370   4.718   6.473   5.766  0.1535  0.4632  0.4833
 2652TIP3    H129371   4.784   6.406   5.751  0.7506  0.8869  1.1191
 2652TIP3    H229372   4.768   6.549   5.797 -0.7676  0.2858  2.5513
 2653TIP3   OH229373   1.943   0.095   4.207 -0.8239  0.0904  0.0467
 2653TIP3    H129374   2.015   0.122   4.264  0.3100 -0.6355 -1.0203
 2653TIP3    H229375   1.941   0.160   4.137 -0.1895 -0.7425 -0.7628
 2654TIP3   OH229376   2.879   0.762  14.608  0.8568  0.1839  0.3110
 2654TIP3    H129377   2.849   0.759  14.699  0.2394 -2.0387  0.1099
 2654TIP3    H229378   2.799   0.761  14.556  1.2052 -0.6412 -0.2338
 2655TIP3   OH229379   4.125   0.540   0.717 -0.6210  0.0501 -0.4837
 2655TIP3    H129380   4.096   0.477   0.652  1.0353 -1.5275  0.2362
 2655TIP3    H229381   4.210   0.570   0.686 -0.2038 -0.0706  0.5044
 2656TIP3   OH229382   5.870   5.715   2.858 -0.6976 -0.2975  0.7805
 2656TIP3    H129383   5.923   5.651   2.905 -2.0902 -0.9619  1.4872
 2656TIP3    H229384   5.837   5.667   2.781  0.5659  0.4302 -0.2688
 2657TIP3   OH229385   0.422   3.404   1.728 -0.3155 -0.2288 -0.1941
 2657TIP3    H129386   0.380   3.324   1.758 -0.3093  0.3947  1.5936
 2657TIP3    H229387   0.510   3.376   1.701 -1.2098 -1.2312 -2.2301
 2658TIP3   OH229388   1.160   6.093   4.874 -0.2739 -0.7134 -0.5405
 2658TIP3    H129389   1.202   6.161   4.820 -0.4892 -0.0691  0.0853
 2658TIP3    H229390   1.208   6.095   4.956 -0.2404 -1.3760 -0.5410
 2659TIP3   OH229391   3.163   3.205  11.909  0.6347 -1.0486 -0.1535
 2659TIP3    H129392   3.180   3.262  11.834  1.9700 -1.5958 -0.3062
 2659TIP3    H229393   3.068   3.192  11.908  0.3485  0.7162 -0.4202
 2660TIP3   OH229394   3.159   2.329  15.143 -0.1963 -0.2179  0.1490
 2660TIP3    H129395   3.211   2.357  15.067 -2.7336  1.7925 -1.0011
 2660TIP3    H229396   3.092   2.272  15.106 -0.1411 -1.0237  1.2641
 2661TIP3   OH229397   1.092   0.732   0.913  0.2103 -0.0176  0.3007
 2661TIP3    H129398   1.056   0.810   0.870  1.3300 -0.4835 -1.6322
 2661TIP3    H229399   1.020   0.697   0.965 -0.7256  1.5395  0.1074
 2662TIP3   OH229400   4.873   0.928  12.262  0.1242 -0.2263 -0.0381
 2662TIP3    H129401   4.844   0.869  12.332 -1.5738  0.9790  0.3322
 2662TIP3    H229402   4.853   0.880  12.182 -1.0279 -0.2896  0.2618
 2663TIP3   OH229403   5.031   0.445  14.412  0.0531 -0.2287  0.4341
 2663TIP3    H129404   4.939   0.448  14.437 -0.1140  0.1831 -0.2081
 2663TIP3    H229405   5.033   0.480  14.322  0.9656  0.7730  0.8181
 2664TIP3   OH229406   1.565   3.336   6.268  0.6100  0.2868  0.8832
 2664TIP3    H129407   1.541   3.428   6.256 -0.7192 -0.2688 -1.3147
 2664TIP3    H229408   1.517   3.309   6.346  3.6676  2.1975  3.7467
 2665TIP3   OH229409   0.592   2.460  16.515  0.3303 -0.5255 -0.3098
 2665TIP3    H129410   0.570   2.400  16.587  0.8201 -0.5368 -0.1641
 2665TIP3    H229411   0.508   2.490  16.482  0.1016 -0.2978  0.4641
 2666TIP3   OH229412   2.980   5.049   4.158 -0.1893  0.0662  0.2117
 2666TIP3    H129413   3.043   5.049   4.086 -1.3833  2.6668 -0.9616
 2666TIP3    H229414   2.947   4.959   4.161  0.4095 -0.2818 -2.0536
 2667TIP3   OH229415   5.045   5.712   5.508 -0.1104 -0.5916 -0.4892
 2667TIP3    H129416   5.033   5.678   5.420  0.8704 -2.3758 -0.0009
 2667TIP3    H229417   5.075   5.802   5.496 -1.8377 -0.1699 -1.8939
 2668TIP3   OH229418   2.159   2.978   4.648  0.5783 -0.3810  0.0899
 2668TIP3    H129419   2.138   2.906   4.588 -0.4126 -0.7238  0.8056
 2668TIP3    H229420   2.130   3.057   4.603  1.2757 -0.4656 -0.5223
 2669TIP3   OH229421   1.210   3.141  11.327  0.1234  0.6701 -0.5532
 2669TIP3    H129422   1.202   3.224  11.373 -0.4686  2.0896 -3.0602
 2669TIP3    H229423   1.305   3.128  11.317  0.2210  0.9690 -0.0126
 2670TIP3   OH229424   5.675   1.476   2.346 -0.1806  0.0287 -0.1750
 2670TIP3    H129425   5.754   1.503   2.299 -0.6812 -1.1607 -1.7891
 2670TIP3    H229426   5.665   1.541   2.416  0.5800  1.9176 -1.7328
 2671TIP3   OH229427   2.328   6.545   0.811  0.3219 -0.0523  0.5610
 2671TIP3    H129428   2.271   6.515   0.882 -0.4116 -0.8010 -0.3210
 2671TIP3    H229429   2.281   6.523   0.731  1.0583  0.9273 -0.1759
 2672TIP3   OH229430   5.932   0.241  13.137  0.0901  0.4635 -0.4538
 2672TIP3    H129431   5.924   0.211  13.047 -0.3447  0.1454 -0.3117
 2672TIP3    H229432   5.842   0.260  13.164  0.2000  0.3834 -0.0305
 2673TIP3   OH229433   4.409   2.655   0.569 -0.5164  0.0163  0.0055
 2673TIP3    H129434   4.499   2.623   0.568 -0.4296  0.2612 -0.0262
 2673TIP3    H229435   4.357   2.579   0.596 -0.0294  0.6083  2.8191
 2674TIP3   OH229436   5.741   6.045  15.920  0.0331  0.2125  0.0247
 2674TIP3    H129437   5.770   5.988  15.992 -0.5786  0.1503  0.2271
 2674TIP3    H229438   5.666   6.092  15.956  1.1531  1.9504  0.2234
 2675TIP3   OH229439   4.932   4.375  11.189 -0.2794  0.0947 -0.0713
 2675TIP3    H129440   4.852   4.409  11.229  0.5903  0.7164  1.1750
 2675TIP3    H229441   4.913   4.377  11.095 -1.4631  0.9243  0.1525
 2676TIP3   OH229442   3.661   5.374   4.248  0.2403 -0.0320 -0.6137
 2676TIP3    H129443   3.750   5.339   4.251  0.3686  0.2997 -0.5747
 2676TIP3    H229444   3.670   5.466   4.272 -0.0136  0.1954 -1.3543
 2677TIP3   OH229445   4.147   3.456   1.971  0.5819 -0.5629 -0.0777
 2677TIP3    H129446   4.053   3.449   1.988  0.2569  0.1064 -1.4413
 2677TIP3    H229447   4.180   3.367   1.980  0.0342 -0.6256  1.5202
 2678TIP3   OH229448   2.069   1.236   1.231  0.2627  0.0851  0.2660
 2678TIP3    H129449   2.107   1.155   1.265  0.0332  0.4218  1.3862
 2678TIP3    H229450   1.975   1.226   1.245 -0.0777 -0.6088 -2.1935
 2679TIP3   OH229451   0.561   2.308  14.659 -0.0249  0.4191 -0.0066
 2679TIP3    H129452   0.506   2.231  14.671  1.0500 -0.4893 -0.6451
 2679TIP3    H229453   0.531   2.348  14.577 -1.3889  1.4175  0.9361
 2680TIP3   OH229454   3.536   2.859  14.993  0.5525 -0.2831  0.5149
 2680TIP3    H129455   3.501   2.770  14.991 -1.4963  0.4667  0.3473
 2680TIP3    H229456   3.461   2.914  15.019  1.4652  1.4997 -0.4070
 2681TIP3   OH229457   4.780   5.344   4.502 -0.7279  0.5021  1.0093
 2681TIP3    H129458   4.691   5.334   4.537 -0.5205  1.6721  1.9535
 2681TIP3    H229459   4.829   5.270   4.537 -1.5971 -0.8846 -0.5604
 2682TIP3   OH229460   2.388   4.889   3.728 -0.2549 -0.0504  0.6082
 2682TIP3    H129461   2.395   4.981   3.756 -0.8700  0.2362 -0.1155
 2682TIP3    H229462   2.293   4.872   3.728 -0.2656 -0.1284 -0.9385
 2683TIP3   OH229463   2.052   6.435   1.774 -0.4896  0.1647  0.1307
 2683TIP3    H129464   2.032   6.492   1.700  1.5347  0.9297  0.1100
 2683TIP3    H229465   2.126   6.382   1.744 -2.9677 -3.4741 -0.3040
 2684TIP3   OH229466   2.093   4.257   3.866 -0.3788 -0.3575  0.1517
 2684TIP3    H129467   2.027   4.188   3.858 -1.0554  0.2471  0.3380
 2684TIP3    H229468   2.094   4.299   3.780  0.3722 -0.8865 -0.1082
 2685TIP3   OH229469   5.527   3.641   1.405  0.5533  0.0827  0.3045
 2685TIP3    H129470   5.476   3.564   1.379 -0.8061  0.9077  0.4678
 2685TIP3    H229471   5.604   3.604   1.448 -0.4520 -1.2009  1.0897
 2686TIP3   OH229472   2.507   5.479   4.737 -0.3033 -0.7360 -0.0215
 2686TIP3    H129473   2.572   5.483   4.808  0.5479  0.0431 -0.8102
 2686TIP3    H229474   2.447   5.551   4.754  0.5780  0.1858 -0.6972
 2687TIP3   OH229475   0.965   6.537  13.386 -0.1498  0.1833  0.2610
 2687TIP3    H129476   0.993   6.499  13.470 -0.7382  0.0461  0.3996
 2687TIP3    H229477   1.045   6.540  13.333 -0.0757 -1.2516  0.2472
 2688TIP3   OH229478   5.870   2.558   1.048  0.3547 -0.0431 -0.7625
 2688TIP3    H129479   5.937   2.626   1.043  0.2090  0.6002  3.0158
 2688TIP3    H229480   5.793   2.596   1.006  0.6610  1.6757  0.1501
 2689TIP3   OH229481   0.519   3.169   5.350 -0.3487 -0.2731 -0.9361
 2689TIP3    H129482   0.545   3.177   5.258  0.0381  0.4444 -0.7722
 2689TIP3    H229483   0.544   3.080   5.375  2.0481  0.3954 -0.7590
 2690TIP3   OH229484   5.407   2.248  10.325  0.3343  0.2603 -0.8518
 2690TIP3    H129485   5.444   2.297  10.251  2.6282 -1.9290 -1.2923
 2690TIP3    H229486   5.366   2.314  10.380  1.9159  2.4567 -2.1684
 2691TIP3   OH229487   4.655   2.776  15.011 -0.0318 -0.2409 -0.1168
 2691TIP3    H129488   4.742   2.787  15.050  1.0532 -0.4009 -2.3434
 2691TIP3    H229489   4.652   2.684  14.985 -0.5036 -0.0107 -0.8941
 2692TIP3   OH229490   2.660   5.577   5.389  0.1364  0.5071 -0.4431
 2692TIP3    H129491   2.670   5.562   5.483 -0.6294  1.4293 -0.2010
 2692TIP3    H229492   2.566   5.574   5.374  0.2658  0.1835 -1.2176
 2693TIP3   OH229493   0.378   3.542  15.315 -0.2764  0.1038 -0.3228
 2693TIP3    H129494   0.373   3.494  15.398 -0.6816  0.0694 -0.3658
 2693TIP3    H229495   0.312   3.611  15.323 -0.5381 -0.0927 -0.7358
 2694TIP3   OH229496   4.083   6.022  14.263 -0.5827 -0.7312 -0.1190
 2694TIP3    H129497   4.029   5.943  14.260 -0.7538 -0.6734  1.0104
 2694TIP3    H229498   4.087   6.045  14.356  0.6363 -0.2055 -0.2895
 2695TIP3   OH229499   1.613   1.468  11.510  0.3306  0.4792  0.2144
 2695TIP3    H129500   1.532   1.422  11.530 -0.0015  0.0485 -1.8553
 2695TIP3    H229501   1.682   1.403  11.524 -0.0163 -0.2618 -1.2650
 2696TIP3   OH229502   0.324   2.704  10.928  0.1196 -0.1637  0.1788
 2696TIP3    H129503   0.370   2.777  10.887 -0.9837  1.7375  2.0797
 2696TIP3    H229504   0.383   2.674  10.997 -0.4982  0.7935  1.1602
 2697TIP3   OH229505   1.193   0.404  17.121  0.3533  0.0130  0.7362
 2697TIP3    H129506   1.105   0.368  17.131  0.9828 -2.1290 -0.6037
 2697TIP3    H229507   1.229   0.406  17.210 -1.0694  1.0638  1.3157
 2698TIP3   OH229508   1.858   3.712   5.491  0.2142 -0.3073  0.1020
 2698TIP3    H129509   1.900   3.766   5.424  0.1452 -0.6399 -0.2126
 2698TIP3    H229510   1.776   3.758   5.511 -0.3654 -0.8375 -0.9443
 2699TIP3   OH229511   5.506   0.070  14.726  0.1975  0.5392 -0.2655
 2699TIP3    H129512   5.579   0.021  14.765 -0.7962  0.0851  1.1227
 2699TIP3    H229513   5.523   0.161  14.751 -0.7998  0.1741  1.9888
 2700TIP3   OH229514   1.853   4.998   2.342  0.1065  0.6013 -0.2895
 2700TIP3    H129515   1.836   4.947   2.263 -0.2403  0.5818 -0.2030
 2700TIP3    H229516   1.945   4.980   2.363  0.6814  1.8045 -1.5647
 2701TIP3   OH229517   5.646   3.387   3.540 -0.3158  0.2446  0.6389
 2701TIP3    H129518   5.727   3.377   3.490 -1.3780  0.4755 -1.2322
 2701TIP3    H229519   5.638   3.305   3.590  0.4785 -0.2640 -0.0444
 2702TIP3   OH229520   2.712   5.262  16.585 -0.5040  0.6458  0.1277
 2702TIP3    H129521   2.691   5.346  16.544  1.1725  0.9969 -0.1003
 2702TIP3    H229522   2.800   5.242  16.553 -1.0919 -1.4950 -0.2730
 2703TIP3   OH229523   0.714   4.890   1.919 -0.3194 -0.5466  0.0247
 2703TIP3    H129524   0.708   4.903   1.824 -0.9732  1.7896  0.3136
 2703TIP3    H229525   0.758   4.806   1.929  0.3426 -0.5612 -2.3439
 2704TIP3   OH229526   2.377   4.199  16.468 -0.0002  0.0620 -0.2288
 2704TIP3    H129527   2.375   4.170  16.559  0.5437  1.3112  0.1955
 2704TIP3    H229528   2.326   4.133  16.421 -0.8927 -0.2232  1.0887
 2705TIP3   OH229529   0.373   5.252   1.642  0.3920 -0.0113 -0.5883
 2705TIP3    H129530   0.443   5.318   1.643 -0.4368  0.9091 -1.1301
 2705TIP3    H229531   0.339   5.253   1.732  2.4062 -1.9976  0.2944
 2706TIP3   OH229532   5.123   3.093   2.981 -0.0511 -0.2263  0.1868
 2706TIP3    H129533   5.109   3.033   2.908  1.0456  2.3269 -2.3239
 2706TIP3    H229534   5.058   3.162   2.969  1.8713  1.6385 -0.0705
 2707TIP3   OH229535   2.917   4.504  15.822 -0.6358  0.1999 -0.3401
 2707TIP3    H129536   2.882   4.448  15.891 -0.9646 -0.4398 -1.0111
 2707TIP3    H229537   2.866   4.585  15.828 -1.7991 -0.4664 -0.8724
 2708TIP3   OH229538   0.108   4.127   4.693 -0.2988  0.1566 -0.1278
 2708TIP3    H129539   0.107   4.102   4.785 -0.3551  0.4227 -0.0541
 2708TIP3    H229540   0.094   4.045   4.645  0.7613 -0.1515  0.0580
 2709TIP3   OH229541   1.846   2.158  11.936  0.0706  0.1188  0.2137
 2709TIP3    H129542   1.906   2.113  11.996 -0.1095 -0.3256  0.0676
 2709TIP3    H229543   1.904   2.200  11.872  0.2687 -3.0910 -1.9686
 2710TIP3   OH229544   6.483   4.194  16.923 -0.3330 -0.1031 -0.0884
 2710TIP3    H129545   6.533   4.222  16.999 -0.3336 -1.2329  0.3462
 2710TIP3    H229546   6.421   4.266  16.907  0.8951  0.9629 -0.1718
 2711TIP3   OH229547   5.180   2.854   1.113  0.1223 -0.2401 -0.0814
 2711TIP3    H129548   5.144   2.862   1.202 -0.0219 -0.0738 -0.1520
 2711TIP3    H229549   5.102   2.844   1.057  0.2153 -0.3975 -0.1834
 2712TIP3   OH229550   5.405   3.013   0.521 -0.1168  0.1567  0.1708
 2712TIP3    H129551   5.500   3.003   0.530 -0.1531 -1.6238 -0.9938
 2712TIP3    H229552   5.369   2.966   0.596 -0.1133 -2.5938 -1.4524
 2713TIP3   OH229553   5.465   4.199   4.191  0.0595  0.3176 -0.4310
 2713TIP3    H129554   5.476   4.272   4.252  1.8634  0.5424 -0.9729
 2713TIP3    H229555   5.511   4.226   4.112 -1.9958 -0.0874 -1.8460
 2714TIP3   OH229556   3.471   4.937   1.329 -0.8273  0.5758  0.0390
 2714TIP3    H129557   3.483   4.852   1.370 -0.7406  0.5840  0.0309
 2714TIP3    H229558   3.554   4.954   1.283 -0.4803  1.0970  0.8327
 2715TIP3   OH229559   5.350   5.658   5.117 -0.5479  0.3287 -0.1912
 2715TIP3    H129560   5.383   5.745   5.138 -0.8494  0.8433 -1.7271
 2715TIP3    H229561   5.422   5.614   5.072  0.3916 -1.0674  2.4370
 2716TIP3   OH229562   1.236   6.537  14.068 -0.2651  0.4295  0.1892
 2716TIP3    H129563   1.215   6.628  14.047 -2.0049  0.5704  2.1927
 2716TIP3    H229564   1.291   6.542  14.146  0.0538 -0.2492  0.0168
 2717TIP3   OH229565   5.525   4.912   3.557 -0.6829 -0.1640  0.1303
 2717TIP3    H129566   5.544   4.909   3.463  0.3379 -2.3181  0.3367
 2717TIP3    H229567   5.429   4.912   3.562 -0.7604 -0.9064 -0.9308
 2718TIP3   OH229568   4.864   5.480   5.345  0.2465 -0.1343  0.0407
 2718TIP3    H129569   4.949   5.513   5.315  0.1834  2.1284  2.0210
 2718TIP3    H229570   4.886   5.420   5.416  0.3003  2.0815  2.0510
 2719TIP3   OH229571   0.894   1.808   0.938 -0.0871  0.5657 -0.3400
 2719TIP3    H129572   0.935   1.747   0.876  1.3015  0.6983  0.4113
 2719TIP3    H229573   0.824   1.756   0.979 -0.8446  0.3906 -1.7732
 2720TIP3   OH229574   2.737   3.594  12.054 -0.1388 -0.1683 -0.0087
 2720TIP3    H129575   2.704   3.683  12.067  0.3399 -0.0259  0.2610
 2720TIP3    H229576   2.714   3.573  11.964 -0.9267 -0.0594  0.1586
 2721TIP3   OH229577   6.010   5.536  14.611 -0.2492 -0.0533 -0.0499
 2721TIP3    H129578   5.974   5.608  14.662 -1.7227 -1.3385  0.8089
 2721TIP3    H229579   6.024   5.466  14.675 -1.1019 -1.3227 -1.1991
 2722TIP3   OH229580   1.603   5.458   3.230  0.8612  0.0325 -0.3144
 2722TIP3    H129581   1.583   5.410   3.311 -0.5431  1.7020  0.3910
 2722TIP3    H229582   1.656   5.397   3.179  3.5951 -0.3310  2.6881
 2723TIP3   OH229583   5.955   5.178  11.631  0.6605  0.1384  0.3033
 2723TIP3    H129584   5.949   5.119  11.706 -1.6937  0.8707  0.8015
 2723TIP3    H229585   5.870   5.168  11.586  1.5990  0.4970 -1.6773
 2724TIP3   OH229586   0.533   4.979  13.756 -0.6675 -0.0016 -0.1443
 2724TIP3    H129587   0.533   4.939  13.843  0.2626 -1.5626 -0.8361
 2724TIP3    H229588   0.460   4.937  13.710 -0.3713 -0.0917 -0.5294
 2725TIP3   OH229589   6.308   4.995   0.543  0.4038 -0.0809 -0.1735
 2725TIP3    H129590   6.321   4.927   0.609  0.6781 -2.0648 -2.1708
 2725TIP3    H229591   6.216   5.021   0.553 -0.9485 -3.6232 -1.8186
 2726TIP3   OH229592   2.410   3.207   4.752 -0.6288 -0.0934  0.4079
 2726TIP3    H129593   2.449   3.282   4.706  0.4916 -0.7189  0.3160
 2726TIP3    H229594   2.401   3.140   4.685 -0.3109 -0.5228  0.7881
 2727TIP3   OH229595   4.574   1.078   1.437 -0.3233  0.0410  0.1867
 2727TIP3    H129596   4.546   1.123   1.357  0.0100  1.0378  0.6199
 2727TIP3    H229597   4.660   1.041   1.415 -0.4394 -0.0864 -0.0561
 2728TIP3   OH229598   5.489   5.363  16.843  0.1338  0.6061  0.2303
 2728TIP3    H129599   5.581   5.393  16.846 -0.1296  1.9154 -2.1320
 2728TIP3    H229600   5.494   5.276  16.804  0.5389 -0.6172  2.8281
 2729TIP3   OH229601   1.152   2.541  11.999 -0.7303 -0.4961 -0.2285
 2729TIP3    H129602   1.155   2.542  11.903  0.8889  1.9631 -0.2486
 2729TIP3    H229603   1.074   2.490  12.020  0.0423 -3.0016 -2.7655
 2730TIP3   OH229604   2.026   0.881  16.078 -0.4373  0.5400 -0.3188
 2730TIP3    H129605   2.036   0.876  15.983  1.0107 -1.0689 -0.1114
 2730TIP3    H229606   2.074   0.960  16.103  0.4556  0.1591 -0.7894
 2731TIP3   OH229607   2.494   1.799  11.040  0.2629  0.4100 -0.5444
 2731TIP3    H129608   2.406   1.788  11.074  0.6942 -0.5609  0.3160
 2731TIP3    H229609   2.482   1.835  10.952 -1.1218 -2.0119 -1.4325
 2732TIP3   OH229610   3.595   5.970  13.513  0.0165  0.2362  0.1749
 2732TIP3    H129611   3.588   5.906  13.583  0.7407  0.0808  0.1160
 2732TIP3    H229612   3.528   5.945  13.450  0.0542 -0.2428  0.3253
 2733TIP3   OH229613   1.852   2.736   4.803 -0.3406  0.1999 -0.1348
 2733TIP3    H129614   1.929   2.699   4.758 -0.4269  2.2372 -2.1724
 2733TIP3    H229615   1.780   2.724   4.740 -1.4255 -0.4206  1.1720
 2734TIP3   OH229616   4.064   2.919  10.858 -0.2710 -0.0601 -0.5483
 2734TIP3    H129617   4.130   2.962  10.804  1.9730 -0.4250  1.7161
 2734TIP3    H229618   4.085   2.826  10.853 -1.2937 -0.2983 -0.6307
 2735TIP3   OH229619   4.182   2.296  14.034  0.6299 -0.2436 -0.1317
 2735TIP3    H129620   4.204   2.257  14.119 -1.0953 -0.6891  0.1450
 2735TIP3    H229621   4.245   2.258  13.973  0.8737 -1.1672  0.6684
 2736TIP3   OH229622   1.792   3.471  15.632 -0.2036 -0.8335  0.1874
 2736TIP3    H129623   1.770   3.555  15.592 -1.0488 -0.5263  1.2536
 2736TIP3    H229624   1.719   3.414  15.608 -0.1494 -0.9674  0.3411
 2737TIP3   OH229625   5.279   1.399   5.590 -0.6528 -0.4752 -0.1470
 2737TIP3    H129626   5.296   1.493   5.597  1.9484 -0.8965  0.2730
 2737TIP3    H229627   5.224   1.379   5.665 -0.1096  0.5107  0.5387
 2738TIP3   OH229628   3.776   1.032   5.746  0.1609 -0.3634 -0.0068
 2738TIP3    H129629   3.765   1.081   5.828 -0.0234  1.5161 -1.0944
 2738TIP3    H229630   3.848   0.972   5.763  0.7671  0.6705  1.2366
 2739TIP3   OH229631   6.134   1.198   3.256  0.0127  0.0352  0.7812
 2739TIP3    H129632   6.101   1.125   3.308 -0.3494  0.5171  1.2442
 2739TIP3    H229633   6.126   1.169   3.165 -1.8340  0.1681  0.8504
 2740TIP3   OH229634   1.503   3.810  13.951  0.3155  0.5817  0.2951
 2740TIP3    H129635   1.555   3.846  13.878  0.0916 -0.3878 -0.3651
 2740TIP3    H229636   1.534   3.720  13.960 -1.0481  0.0567  0.0528
 2741TIP3   OH229637   1.415   1.348   3.155  0.2769  0.0477  0.6357
 2741TIP3    H129638   1.498   1.340   3.109  0.2319  3.8183 -0.4242
 2741TIP3    H229639   1.438   1.393   3.237 -0.6266  0.7334  0.5251
 2742TIP3   OH229640   3.997   5.876  15.431 -0.5697  0.3389 -0.7326
 2742TIP3    H129641   4.024   5.813  15.364  0.7702 -1.6541  1.5093
 2742TIP3    H229642   3.907   5.851  15.452 -1.1263  1.2005 -1.9478
 2743TIP3   OH229643   4.733   5.525   2.384 -0.1768  0.0326  0.3619
 2743TIP3    H129644   4.766   5.552   2.298  1.3813 -1.5989  0.3955
 2743TIP3    H229645   4.776   5.584   2.446 -0.0889  0.1954  0.1463
 2744TIP3   OH229646   4.458   4.459  15.024 -0.1003 -0.0801 -0.1306
 2744TIP3    H129647   4.516   4.394  14.985 -0.0224 -0.5303  0.7270
 2744TIP3    H229648   4.462   4.442  15.118 -1.2963  0.1619 -0.0282
 2745TIP3   OH229649   0.489   0.974   1.651 -0.4888  0.1119  0.2593
 2745TIP3    H129650   0.463   0.894   1.698 -0.4869 -0.0716 -0.0433
 2745TIP3    H229651   0.408   1.025   1.646 -0.6456 -0.1607 -0.1001
 2746TIP3   OH229652   2.345   2.571  17.031  0.0669 -0.1623 -0.4878
 2746TIP3    H129653   2.411   2.510  17.065 -1.0756 -0.8428  0.6042
 2746TIP3    H229654   2.396   2.638  16.985  1.5088 -0.6971  0.2547
 2747TIP3   OH229655   2.486   3.239   5.980  0.8791  0.4912 -0.6572
 2747TIP3    H129656   2.397   3.232   5.947  0.2874 -1.1854  1.0926
 2747TIP3    H229657   2.538   3.268   5.905 -0.8460 -0.1963 -2.1766
 2748TIP3   OH229658   0.696   4.889   4.517 -0.1989 -0.2635 -0.0468
 2748TIP3    H129659   0.650   4.839   4.450 -0.2929 -0.1898 -0.0363
 2748TIP3    H229660   0.629   4.944   4.557  0.3454  1.8055 -1.7906
 2749TIP3   OH229661   4.360   4.939   0.777  0.6939  0.1962 -0.0040
 2749TIP3    H129662   4.312   4.892   0.710  1.8360 -0.8185 -0.1298
 2749TIP3    H229663   4.332   4.899   0.859  0.1625  0.6603  0.0450
 2750TIP3   OH229664   4.802   1.457  13.553  0.0935  0.7110  0.4448
 2750TIP3    H129665   4.819   1.414  13.637 -2.6221  2.2549  1.9115
 2750TIP3    H229666   4.861   1.532  13.554  0.5784  0.3365  0.6428
 2751TIP3   OH229667   5.016   1.159   0.243 -0.1061 -0.3782 -0.2504
 2751TIP3    H129668   5.066   1.102   0.301 -0.7113 -1.8219 -1.1020
 2751TIP3    H229669   4.925   1.146   0.268 -0.2715  0.0105 -0.6302
 2752TIP3   OH229670   0.649   5.422  13.570 -0.5867  0.4388  0.2398
 2752TIP3    H129671   0.663   5.341  13.620 -2.8879 -0.2247 -0.0865
 2752TIP3    H229672   0.594   5.395  13.496 -2.0513  2.4221  0.5240
 2753TIP3   OH229673   2.790   2.058  16.419 -0.4678 -0.3463 -0.0716
 2753TIP3    H129674   2.792   2.092  16.330 -0.3431 -0.3752 -0.0795
 2753TIP3    H229675   2.697   2.054  16.441 -0.5393 -1.1491 -0.5119
 2754TIP3   OH229676   2.362   4.251   2.837  0.6378  0.0581 -0.1452
 2754TIP3    H129677   2.322   4.304   2.907 -0.1925  0.6670 -1.0528
 2754TIP3    H229678   2.366   4.163   2.873 -1.8373 -0.1016 -0.1148
 2755TIP3   OH229679   1.050   1.851   5.037  0.7431  0.2067  0.1053
 2755TIP3    H129680   0.971   1.798   5.044  0.0095  1.4920  2.4674
 2755TIP3    H229681   1.099   1.811   4.965 -1.9977 -0.6617 -1.4282
 2756TIP3   OH229682   2.343   5.823   2.789 -0.1485  0.1280 -0.0635
 2756TIP3    H129683   2.437   5.814   2.779 -0.1085  0.3686  0.0632
 2756TIP3    H229684   2.307   5.739   2.762 -0.0439  0.6459 -1.9148
 2757TIP3   OH229685   5.205   2.100  10.861 -0.6253 -0.2009 -0.2860
 2757TIP3    H129686   5.295   2.086  10.833 -0.8795 -2.0113 -0.2623
 2757TIP3    H229687   5.169   2.158  10.794 -0.2443 -1.7321 -1.8993
 2758TIP3   OH229688   6.702   5.283   0.626 -0.0278  0.2237 -0.1700
 2758TIP3    H129689   6.631   5.272   0.563 -0.7065 -1.0953  0.7648
 2758TIP3    H229690   6.724   5.376   0.622 -1.3902  0.5370 -0.9110
 2759TIP3   OH229691   4.303   0.745   3.669  0.3443  0.2119 -0.3779
 2759TIP3    H129692   4.344   0.831   3.665  0.8778 -0.0014  0.3829
 2759TIP3    H229693   4.332   0.700   3.590  2.3051 -0.2408  0.5377
 2760TIP3   OH229694   2.859   1.128  12.623 -0.3022 -0.2227  0.2901
 2760TIP3    H129695   2.849   1.047  12.573  0.8977 -1.7976  2.4257
 2760TIP3    H229696   2.828   1.197  12.564 -3.0219 -2.3667 -0.9963
 2761TIP3   OH229697   3.360   5.742  12.392  0.0984  0.3158  0.0280
 2761TIP3    H129698   3.279   5.788  12.414 -0.4955 -1.5845  2.1776
 2761TIP3    H229699   3.428   5.792  12.437  0.4851  2.7907 -2.9694
 2762TIP3   OH229700   1.127   3.061   2.215  0.3866  0.6964  0.0177
 2762TIP3    H129701   1.178   2.994   2.259 -1.2154 -1.5667 -1.3416
 2762TIP3    H229702   1.192   3.112   2.166  1.7617  0.9249  1.9610
 2763TIP3   OH229703   2.173   4.559   0.070  0.2015  0.3770 -0.1649
 2763TIP3    H129704   2.207   4.478   0.033 -0.7823  0.0009 -0.2625
 2763TIP3    H229705   2.083   4.539   0.094  0.1657  1.2414  0.4618
 2764TIP3   OH229706   2.484   0.308  10.605 -0.5537 -0.3305  0.2803
 2764TIP3    H129707   2.412   0.359  10.567 -1.3450 -0.3967  1.6521
 2764TIP3    H229708   2.547   0.374  10.633  0.3370 -0.2924 -1.6100
 2765TIP3   OH229709   0.826   2.857   0.366 -0.2032 -0.0237  0.3469
 2765TIP3    H129710   0.853   2.768   0.388 -0.1424  0.3471  1.9435
 2765TIP3    H229711   0.899   2.912   0.396 -1.9568  0.8788  3.4189
 2766TIP3   OH229712   3.971   0.365  11.208 -0.2189 -0.0245 -0.0545
 2766TIP3    H129713   3.885   0.339  11.176  0.0300 -1.3943  0.3301
 2766TIP3    H229714   4.032   0.328  11.144  0.1277  0.2198  0.1319
 2767TIP3   OH229715   3.284   0.688  16.581  0.1811  0.1875 -0.2257
 2767TIP3    H129716   3.255   0.733  16.661 -0.5693 -0.3279 -0.1903
 2767TIP3    H229717   3.339   0.617  16.613  1.2233  0.9607 -0.2705
 2768TIP3   OH229718   1.235   2.535   1.679 -0.6203  0.0726  0.2879
 2768TIP3    H129719   1.208   2.566   1.766  1.7205  2.9250  0.1391
 2768TIP3    H229720   1.327   2.510   1.691 -0.7200 -1.0640 -1.0759
 2769TIP3   OH229721   2.622   4.680  15.599 -0.1989  0.5242 -0.4687
 2769TIP3    H129722   2.568   4.733  15.541  0.7866  0.2947 -1.6417
 2769TIP3    H229723   2.712   4.701  15.574  0.2233 -0.7345 -0.0705
 2770TIP3   OH229724   3.614   2.126  11.678 -0.5108 -0.4186  0.1976
 2770TIP3    H129725   3.674   2.161  11.743  0.6550  0.0264 -1.0676
 2770TIP3    H229726   3.671   2.091  11.609 -1.6977 -0.6001 -0.7263
 2771TIP3   OH229727   2.221   5.594  12.291  0.3990  0.3884  0.1871
 2771TIP3    H129728   2.249   5.668  12.343  0.6358 -0.5320  1.4040
 2771TIP3    H229729   2.177   5.535  12.353 -0.4651 -0.1517 -0.8840
 2772TIP3   OH229730   1.126   4.044   6.461 -0.1891  0.2738 -0.3094
 2772TIP3    H129731   1.167   4.120   6.419 -0.6664  0.2506 -0.8342
 2772TIP3    H229732   1.144   3.971   6.403  1.5474 -0.3411  0.9353
 2773TIP3   OH229733   0.840   4.816   4.809 -0.0513  0.0084  0.2427
 2773TIP3    H129734   0.764   4.759   4.802 -0.3088  0.3235  0.4216
 2773TIP3    H229735   0.843   4.863   4.726 -0.0533 -0.0034  0.2362
 2774TIP3   OH229736   0.646   4.553  12.280  0.2972 -0.8446 -0.3712
 2774TIP3    H129737   0.723   4.596  12.244 -0.0151 -1.4400 -1.8501
 2774TIP3    H229738   0.575   4.616  12.269 -0.2518 -1.7750 -2.9411
 2775TIP3   OH229739   1.759   1.462   0.183 -0.0783  1.0238  0.1448
 2775TIP3    H129740   1.767   1.468   0.278  0.6516  3.2365 -0.0059
 2775TIP3    H229741   1.694   1.529   0.160  0.4092  1.1209 -0.9899
 2776TIP3   OH229742   3.730   0.459   5.562 -0.3800 -0.5458  0.0183
 2776TIP3    H129743   3.719   0.468   5.467 -0.3934  0.9185  0.1361
 2776TIP3    H229744   3.662   0.396   5.587  0.1633 -1.5947 -1.0393
 2777TIP3   OH229745   0.841   6.224   2.971 -0.1711 -0.1852 -0.1858
 2777TIP3    H129746   0.784   6.236   3.047 -0.0919  1.9338 -0.3936
 2777TIP3    H229747   0.785   6.242   2.896 -0.5836 -3.4617 -0.8276
 2778TIP3   OH229748   6.662   3.818   3.253  0.3980  0.3337  0.0008
 2778TIP3    H129749   6.593   3.756   3.276  0.9369 -0.0378  0.6697
 2778TIP3    H229750   6.652   3.889   3.317  0.4767  0.3982 -0.0583
 2779TIP3   OH229751   0.899   5.068   0.091 -0.1131 -0.2171 -0.4823
 2779TIP3    H129752   0.829   5.051   0.028 -0.2204 -0.5509 -0.2764
 2779TIP3    H229753   0.854   5.099   0.170 -0.2637 -2.6361  0.4704
 2780TIP3   OH229754   6.731   2.618   4.651  0.3145  0.2519  0.2515
 2780TIP3    H129755   6.790   2.596   4.579 -0.2966  0.0502 -0.1925
 2780TIP3    H229756   6.766   2.569   4.726  0.2791 -0.4675 -0.1909
 2781TIP3   OH229757   5.623   4.569  11.643 -0.3936  0.6344  0.1375
 2781TIP3    H129758   5.637   4.503  11.711 -0.5948 -0.4155 -0.8163
 2781TIP3    H229759   5.660   4.530  11.563 -0.8759  1.5053 -0.5325
 2782TIP3   OH229760   2.063   2.822  12.945 -0.3635  0.0072  0.2800
 2782TIP3    H129761   2.000   2.752  12.927 -0.5339  0.1409  0.3410
 2782TIP3    H229762   2.146   2.789  12.913 -0.3099 -0.4968  0.9316
 2783TIP3   OH229763   4.177   3.291   4.622  0.0158 -0.3341 -0.0895
 2783TIP3    H129764   4.128   3.331   4.550 -0.3528 -0.1383  0.2661
 2783TIP3    H229765   4.222   3.365   4.664  1.1464 -0.5800 -0.7908
 2784TIP3   OH229766   2.298   3.505  12.860 -0.4827  0.0491  0.2229
 2784TIP3    H129767   2.250   3.469  12.786  1.9722 -2.9720 -0.0932
 2784TIP3    H229768   2.255   3.468  12.937  1.5147 -3.2384 -0.0771
 2785TIP3   OH229769   6.614   5.268  14.770  0.3069 -0.0275  0.1269
 2785TIP3    H129770   6.629   5.226  14.855  2.2014  0.9861  0.3488
 2785TIP3    H229771   6.549   5.336  14.789  0.5241  0.0270  0.7057
 2786TIP3   OH229772   0.533   6.402  14.131  0.4968  0.4416 -0.3765
 2786TIP3    H129773   0.464   6.343  14.161 -1.8153  2.9174 -0.4941
 2786TIP3    H229774   0.564   6.363  14.050 -1.3169 -0.3698 -0.7315
 2787TIP3   OH229775   1.176   2.318   3.068  0.4984 -0.3882  0.1778
 2787TIP3    H129776   1.211   2.301   2.980  0.4668 -0.3243  0.1523
 2787TIP3    H229777   1.246   2.367   3.111 -0.8550  2.8898 -1.0218
 2788TIP3   OH229778   5.406   0.984   5.590 -0.2636 -0.3598 -0.0082
 2788TIP3    H129779   5.344   1.053   5.565 -1.0904  0.1649  3.0063
 2788TIP3    H229780   5.352   0.919   5.635  0.9393 -1.5466 -0.2334
 2789TIP3   OH229781   0.280   3.363   5.233  1.0312  0.3400  0.0626
 2789TIP3    H129782   0.325   3.365   5.317  0.0224  0.6291  0.6093
 2789TIP3    H229783   0.349   3.344   5.169  1.5389 -1.6901  1.1220
 2790TIP3   OH229784   1.563   2.149   3.776  0.2614 -0.2230 -0.5489
 2790TIP3    H129785   1.524   2.086   3.714 -1.3361  0.2996 -0.1310
 2790TIP3    H229786   1.620   2.204   3.722 -0.5083 -0.2580 -1.4289
 2791TIP3   OH229787   1.897   3.698  16.564 -0.1286 -0.2684  0.0608
 2791TIP3    H129788   1.846   3.703  16.645  0.6609 -0.5011  0.5812
 2791TIP3    H229789   1.861   3.623  16.517 -0.9689  0.2080 -0.0759
 2792TIP3   OH229790   5.872   4.440   1.089 -0.3703  0.0243  0.4185
 2792TIP3    H129791   5.847   4.350   1.068 -1.3026  0.4564 -0.3544
 2792TIP3    H229792   5.873   4.485   1.005 -0.0388  0.7825  0.8192
 2793TIP3   OH229793   3.622   0.480   2.117 -0.6701 -0.0110 -0.3528
 2793TIP3    H129794   3.615   0.569   2.083  0.7004 -0.2045 -1.2632
 2793TIP3    H229795   3.602   0.424   2.042  0.3109 -0.4547 -0.3014
 2794TIP3   OH229796   5.664   4.639  15.520  0.0351 -0.3984  0.3092
 2794TIP3    H129797   5.648   4.687  15.440 -1.2162 -0.1037  0.7228
 2794TIP3    H229798   5.579   4.634  15.564  0.4683 -1.5127  1.0906
 2795TIP3   OH229799   1.712   1.872  11.177  0.2321  0.0639  0.0380
 2795TIP3    H129800   1.638   1.915  11.134 -0.9262 -1.0898  0.8000
 2795TIP3    H229801   1.683   1.859  11.267  1.1852 -0.8326  0.2299
 2796TIP3   OH229802   4.177   4.914   3.999  0.5017 -0.6623  0.5878
 2796TIP3    H129803   4.168   4.827   3.959  0.3888 -0.5083  0.2785
 2796TIP3    H229804   4.088   4.947   4.005  0.5986 -0.3147  0.1444
 2797TIP3   OH229805   4.445   1.650   1.705 -0.1493  0.0889  0.3900
 2797TIP3    H129806   4.406   1.646   1.618 -1.0459 -0.0926  0.7899
 2797TIP3    H229807   4.488   1.566   1.717  1.7664  0.8494 -0.6685
 2798TIP3   OH229808   3.135   1.898  13.991  0.0596  0.4862 -0.1994
 2798TIP3    H129809   3.109   1.884  14.082 -0.0191  0.6620 -0.1948
 2798TIP3    H229810   3.158   1.810  13.960 -0.1097  0.3937 -0.0710
 2799TIP3   OH229811   0.888   0.600  12.108  0.1558 -0.2003  0.0591
 2799TIP3    H129812   0.968   0.553  12.132  0.2081  0.3399  0.9880
 2799TIP3    H229813   0.820   0.560  12.162 -0.0124  0.0139  0.0079
 2800TIP3   OH229814   5.990   2.817  16.429 -0.1617  0.1034  0.2372
 2800TIP3    H129815   6.001   2.833  16.523  0.0414  0.6295  0.1246
 2800TIP3    H229816   6.070   2.772  16.403 -0.1903  0.0144  0.3012
 2801TIP3   OH229817   6.696   6.501  15.409  0.1257  0.6257 -0.1289
 2801TIP3    H129818   6.769   6.563  15.412 -0.4760  1.3530 -0.1576
 2801TIP3    H229819   6.686   6.480  15.317  2.4509 -2.1356  0.1123
 2802TIP3   OH229820   2.875   3.345   1.580 -0.1147 -0.2024 -0.0804
 2802TIP3    H129821   2.937   3.292   1.631  0.2462 -0.7845 -1.1007
 2802TIP3    H229822   2.929   3.395   1.519 -0.5396  0.5075  0.1075
 2803TIP3   OH229823   3.974   4.060  12.111 -0.0370  0.6626 -0.2772
 2803TIP3    H129824   4.056   4.109  12.115  0.9562 -0.9570  0.2168
 2803TIP3    H229825   3.969   4.030  12.020 -1.0007  2.1798 -0.7675
 2804TIP3   OH229826   3.513   4.791  14.615  0.2256  0.0677 -0.4114
 2804TIP3    H129827   3.468   4.862  14.570 -0.1897  1.2882  1.7963
 2804TIP3    H229828   3.595   4.779  14.566 -0.7984  0.3374 -2.2784
 2805TIP3   OH229829   0.875   5.230  17.030 -0.4425 -0.2313  0.0144
 2805TIP3    H129830   0.873   5.292  16.957 -0.5428  1.0808  1.0940
 2805TIP3    H229831   0.954   5.178  17.015  0.6093  1.3062 -0.0469
 2806TIP3   OH229832   4.100   0.400   4.905 -0.0611 -0.4252 -0.5939
 2806TIP3    H129833   4.045   0.383   4.981 -1.6746  1.5458 -1.2511
 2806TIP3    H229834   4.159   0.325   4.902  1.1019  0.0632  3.4400
 2807TIP3   OH229835   0.441   2.190   1.235  0.5740  0.4000 -0.0095
 2807TIP3    H129836   0.441   2.129   1.162 -1.0078 -0.1000  0.3678
 2807TIP3    H229837   0.361   2.241   1.224  1.1810  1.4731  0.4439
 2808TIP3   OH229838   5.051   0.893   5.519  0.0095  0.4889  0.1603
 2808TIP3    H129839   5.081   0.928   5.603 -2.8953  0.5183  1.2918
 2808TIP3    H229840   5.017   0.969   5.472  0.9812  0.3604 -0.7768
 2809TIP3   OH229841   3.703   6.629   2.750 -0.0555  0.0042  0.1044
 2809TIP3    H129842   3.635   6.695   2.739  0.9841  1.0966  0.1190
 2809TIP3    H229843   3.783   6.678   2.770  0.4964 -1.3069  1.3601
 2810TIP3   OH229844   1.708   2.521  13.352 -0.0756  0.3462 -0.4363
 2810TIP3    H129845   1.696   2.602  13.303 -1.1831  0.7453  0.4572
 2810TIP3    H229846   1.725   2.549  13.441  1.2785 -0.3903 -0.4333
 2811TIP3   OH229847   4.721   3.777  14.593  0.5529 -0.2568 -0.1585
 2811TIP3    H129848   4.800   3.831  14.598  0.8936 -0.7433 -0.1771
 2811TIP3    H229849   4.705   3.748  14.683 -0.5040  1.0872  0.1173
 2812TIP3   OH229850   3.747   4.957  13.246  0.0449 -0.1526 -0.2377
 2812TIP3    H129851   3.822   4.903  13.273  0.4490  0.4930 -0.0484
 2812TIP3    H229852   3.673   4.896  13.246  0.4610 -0.6735  0.1387
 2813TIP3   OH229853   2.829   1.231   4.884 -0.0030  0.8649  0.0107
 2813TIP3    H129854   2.855   1.265   4.799  2.4967  0.2791  0.4415
 2813TIP3    H229855   2.832   1.136   4.873  1.8599  0.7538  1.0852
 2814TIP3   OH229856   6.130   6.258   1.495  0.0007 -1.0216 -0.1206
 2814TIP3    H129857   6.070   6.332   1.486  1.0920 -0.1991 -0.8061
 2814TIP3    H229858   6.120   6.210   1.412  1.1379 -0.2152 -0.7474
 2815TIP3   OH229859   2.720   4.955   2.411  0.1035 -0.1811  0.5128
 2815TIP3    H129860   2.629   4.985   2.419  0.0608 -0.4991  1.2874
 2815TIP3    H229861   2.718   4.895   2.336 -0.4405 -0.5899  0.8409
 2816TIP3   OH229862   4.462   2.244   1.920  0.0734  0.0737 -0.7115
 2816TIP3    H129863   4.524   2.289   1.977 -0.7211  0.6788 -0.3050
 2816TIP3    H229864   4.433   2.311   1.858  0.5891 -0.4637 -1.5594
 2817TIP3   OH229865   4.583   2.228   3.453  0.1497 -0.0864  0.3225
 2817TIP3    H129866   4.662   2.186   3.418 -0.1437 -1.4477  1.2102
 2817TIP3    H229867   4.539   2.265   3.377  0.7830 -0.7944 -0.4006
 2818TIP3   OH229868   3.119   6.338  13.635 -0.2648  0.0314 -0.1515
 2818TIP3    H129869   3.160   6.282  13.569 -1.4063  0.3942 -1.2028
 2818TIP3    H229870   3.035   6.364  13.596 -0.9368  0.3129  1.4208
 2819TIP3   OH229871   2.588   4.638   0.405 -0.5292  0.2322  0.2309
 2819TIP3    H129872   2.569   4.546   0.387  1.2899  0.1949 -1.8968
 2819TIP3    H229873   2.537   4.687   0.340  1.3267  0.4639 -1.1236
 2820TIP3   OH229874   2.451   1.608   2.752 -0.1732  0.1272 -0.0540
 2820TIP3    H129875   2.451   1.703   2.754 -0.2449  0.1693  2.9038
 2820TIP3    H229876   2.544   1.584   2.754 -0.1017  0.2799  2.8448
 2821TIP3   OH229877   2.636   3.419  17.221  0.3150  0.4306  0.1302
 2821TIP3    H129878   2.590   3.468  17.288  1.8337 -0.1651  1.6967
 2821TIP3    H229879   2.629   3.327  17.249  2.6085  0.3289  0.6366
 2822TIP3   OH229880   0.712   2.303   5.614  0.1078  0.1520 -0.4383
 2822TIP3    H129881   0.771   2.245   5.565 -0.7828 -1.5359  0.3761
 2822TIP3    H229882   0.664   2.244   5.672 -2.2238  1.4785 -0.8874
 2823TIP3   OH229883   2.125   1.762   6.273 -0.3990  0.2740  0.5162
 2823TIP3    H129884   2.058   1.768   6.205 -0.1213  2.2709  0.3434
 2823TIP3    H229885   2.208   1.770   6.225 -0.1568  0.4435  0.9521
 2824TIP3   OH229886   6.383   6.603   3.273  0.2469 -0.4238  0.1322
 2824TIP3    H129887   6.443   6.593   3.199  0.9556 -0.8621  0.7577
 2824TIP3    H229888   6.318   6.533   3.261  0.2363 -0.3613 -0.1841
 2825TIP3   OH229889   0.892   2.469   0.676 -0.0488 -0.0202 -0.3773
 2825TIP3    H129890   0.885   2.383   0.718  0.4987 -0.0719 -0.3927
 2825TIP3    H229891   0.880   2.451   0.583  0.4537 -0.1355 -0.4235
 2826TIP3   OH229892   6.493   2.233   3.222 -0.8348  0.1497 -0.1518
 2826TIP3    H129893   6.478   2.163   3.286  0.1744 -0.5442 -0.6445
 2826TIP3    H229894   6.408   2.246   3.180 -1.0754 -0.6528  0.0704
 2827TIP3   OH229895   0.591   3.236   3.646 -0.2506 -0.3816 -0.3133
 2827TIP3    H129896   0.532   3.169   3.680  0.0490  0.2634  1.5851
 2827TIP3    H229897   0.677   3.193   3.645 -0.3100 -0.4993 -0.5943
 2828TIP3   OH229898   3.750   3.505  11.559 -0.4610  0.0188  0.1123
 2828TIP3    H129899   3.787   3.567  11.496  1.1910 -0.4973  0.5261
 2828TIP3    H229900   3.746   3.422  11.511 -4.5490  0.7031 -1.1188
 2829TIP3   OH229901   5.097   2.667  13.422  0.1768 -0.3232  0.3994
 2829TIP3    H129902   5.116   2.600  13.357  0.8141 -0.3402  0.5919
 2829TIP3    H229903   5.182   2.708  13.440 -0.0108 -0.2287  1.1161
 2830TIP3   OH229904   1.837   3.748  11.093 -0.4022  0.0768  0.1603
 2830TIP3    H129905   1.839   3.766  10.999 -1.2749 -0.9859 -0.0798
 2830TIP3    H229906   1.920   3.704  11.111 -0.6242 -0.5374 -0.2960
 2831TIP3   OH229907   3.781   6.420   1.980 -0.4612  0.7542  0.0915
 2831TIP3    H129908   3.753   6.357   1.914  3.9489 -2.0234  0.4206
 2831TIP3    H229909   3.823   6.490   1.930  2.6297 -1.2138 -0.3312
 2832TIP3   OH229910   2.180   3.975   3.289 -0.2953 -0.0522 -0.1475
 2832TIP3    H129911   2.203   3.992   3.380  1.2028 -0.8487 -0.3476
 2832TIP3    H229912   2.175   3.879   3.283 -0.1190 -0.0222 -0.9526
 2833TIP3   OH229913   6.134   6.287   6.584  0.0581  0.3494 -1.1000
 2833TIP3    H129914   6.208   6.275   6.645  0.2558 -0.6703 -1.5286
 2833TIP3    H229915   6.167   6.350   6.520 -0.9722  3.4610  1.1283
 2834TIP3   OH229916   3.133   5.632   0.812  0.3153  0.1958 -0.4642
 2834TIP3    H129917   3.073   5.564   0.841 -0.8623  1.3984  0.0483
 2834TIP3    H229918   3.220   5.592   0.816 -0.2507 -0.9809  0.6844
 2835TIP3   OH229919   1.762   4.631  13.671  0.1005  0.3051 -0.5956
 2835TIP3    H129920   1.694   4.565  13.660 -0.9294  0.7357  2.2936
 2835TIP3    H229921   1.730   4.707  13.623 -2.3150  0.9875  1.8248
 2836TIP3   OH229922   4.665   0.889  11.454 -0.2895  0.1152  0.2958
 2836TIP3    H129923   4.751   0.929  11.446  1.1025 -2.6636  0.1872
 2836TIP3    H229924   4.664   0.853  11.543 -0.8944 -0.8255 -0.0784
 2837TIP3   OH229925   0.841   0.194   2.920 -0.4370 -0.1102  0.0109
 2837TIP3    H129926   0.810   0.278   2.955 -0.1712  0.1355 -0.3379
 2837TIP3    H229927   0.848   0.209   2.826  0.8092 -0.1315  0.0847
 2838TIP3   OH229928   4.780   0.540   3.858 -0.4628  0.5284  0.4750
 2838TIP3    H129929   4.772   0.589   3.940  0.6690 -2.0200  2.2411
 2838TIP3    H229930   4.848   0.474   3.876 -1.1041 -0.9643 -2.0906
 2839TIP3   OH229931   6.391   1.867  13.628 -0.3329 -0.2519  0.0151
 2839TIP3    H129932   6.420   1.857  13.538 -1.8145 -3.4721 -0.2356
 2839TIP3    H229933   6.369   1.960  13.636  0.5560  0.2656 -2.6778
 2840TIP3   OH229934   3.157   0.828   1.411 -0.1822  0.1397  0.0510
 2840TIP3    H129935   3.203   0.891   1.466  0.8551  0.3268 -1.0012
 2840TIP3    H229936   3.064   0.848   1.424  0.0755  0.7369  1.0493
 2841TIP3   OH229937   3.689   3.605   6.394  0.2165 -0.0686 -0.5624
 2841TIP3    H129938   3.659   3.679   6.446 -0.3540 -0.2471 -0.6267
 2841TIP3    H229939   3.657   3.528   6.441  1.3292 -0.3015 -0.1724
 2842TIP3   OH229940   0.855   0.269  16.238 -0.3189  0.1272 -0.2074
 2842TIP3    H129941   0.858   0.272  16.143 -1.7242 -2.3193 -0.3998
 2842TIP3    H229942   0.946   0.261  16.265  0.0503  0.3046 -1.3491
 2843TIP3   OH229943   1.588   0.388   5.188 -0.5816 -0.2036 -0.7361
 2843TIP3    H129944   1.555   0.300   5.173  0.5723 -0.7937 -0.0102
 2843TIP3    H229945   1.514   0.436   5.225 -0.7576 -1.3840  0.5292
 2844TIP3   OH229946   3.414   2.476  11.364  0.1558  0.0815  0.1741
 2844TIP3    H129947   3.320   2.459  11.364 -0.0848  0.8195 -2.8015
 2844TIP3    H229948   3.453   2.394  11.335  0.1215  0.6006 -1.4400
 2845TIP3   OH229949   1.943   5.589   0.781 -0.3435  0.2654 -0.2791
 2845TIP3    H129950   1.996   5.573   0.702 -0.6134  0.6293 -0.5371
 2845TIP3    H229951   1.898   5.507   0.797 -1.3946  0.6036 -1.3468
 2846TIP3   OH229952   2.071   2.368   1.924 -0.3898 -0.2774  0.4263
 2846TIP3    H129953   2.020   2.369   2.005  0.3828  3.0045  1.0037
 2846TIP3    H229954   2.006   2.369   1.854 -1.1473  1.2706  1.1133
 2847TIP3   OH229955   6.587   1.739   1.624 -0.1193  0.0883 -0.2018
 2847TIP3    H129956   6.587   1.835   1.620  2.4536  0.2168  0.5411
 2847TIP3    H229957   6.559   1.719   1.713 -3.3193 -0.0740 -1.1229
 2848TIP3   OH229958   0.548   4.288  13.376 -0.0868 -0.5124  0.2805
 2848TIP3    H129959   0.629   4.339  13.368 -0.7580  1.1563  2.8697
 2848TIP3    H229960   0.538   4.245  13.291  2.7189  0.3995 -0.6157
 2849TIP3   OH229961   4.126   0.531  14.307 -0.1363  0.0393 -0.2070
 2849TIP3    H129962   4.071   0.483  14.245 -0.8418  0.8248 -0.2131
 2849TIP3    H229963   4.197   0.566  14.254  1.2049 -2.1136  0.0171
 2850TIP3   OH229964   0.069   4.703  11.276  0.2871 -0.2462 -0.6277
 2850TIP3    H129965   0.034   4.668  11.358 -0.5439 -0.5402 -1.0978
 2850TIP3    H229966   0.090   4.626  11.223  2.0910 -0.0982 -0.2128
 2851TIP3   OH229967   0.386   5.979  16.811  0.7349 -0.2314  0.2908
 2851TIP3    H129968   0.357   5.912  16.749  0.8891  1.1073 -1.2937
 2851TIP3    H229969   0.311   5.991  16.869 -0.6669  0.6942 -1.6007
 2852TIP3   OH229970   1.072   6.598   1.873 -0.0723  0.2946  0.4616
 2852TIP3    H129971   0.987   6.601   1.829 -0.3415  1.6847  1.0466
 2852TIP3    H229972   1.060   6.646   1.954  0.8500 -0.9092  1.3587
 2853TIP3   OH229973   4.285   0.845   0.303 -0.2353  0.4055 -0.1996
 2853TIP3    H129974   4.284   0.749   0.303 -0.3541  0.3493  1.8310
 2853TIP3    H229975   4.232   0.870   0.227 -1.8484 -1.1797  0.3242
 2854TIP3   OH229976   0.876   4.547   5.672 -0.1050  0.3111 -0.3150
 2854TIP3    H129977   0.807   4.498   5.716  0.9896 -1.0549 -0.0486
 2854TIP3    H229978   0.857   4.639   5.692 -0.5837 -0.1736  1.6043
 2855TIP3   OH229979   2.059   1.234  15.920 -0.6827  0.3592 -0.3786
 2855TIP3    H129980   2.028   1.299  15.857  1.9594  1.5687 -0.5760
 2855TIP3    H229981   2.055   1.277  16.005  2.2755  1.3961 -0.6594
 2856TIP3   OH229982   4.683   0.485  16.466 -0.0781 -0.6653  0.6772
 2856TIP3    H129983   4.659   0.540  16.392  0.2783 -1.1501  0.1937
 2856TIP3    H229984   4.638   0.402  16.450 -0.5925 -0.5292  1.3902
 2857TIP3   OH229985   5.379   3.875   0.515 -0.4224  0.1160 -0.0802
 2857TIP3    H129986   5.373   3.968   0.494  3.0767  0.2591 -1.0567
 2857TIP3    H229987   5.381   3.832   0.429  0.6904 -0.5622  0.2642
 2858TIP3   OH229988   2.949   4.122   6.492  0.4437  0.3480 -0.0199
 2858TIP3    H129989   2.982   4.102   6.580  0.1043  2.6207  0.7002
 2858TIP3    H229990   2.859   4.151   6.507  0.5663  1.3236 -1.0364
 2859TIP3   OH229991   6.027   3.540  13.233 -0.0757 -0.0536  0.0324
 2859TIP3    H129992   5.966   3.504  13.297 -1.1248  1.4292 -0.1115
 2859TIP3    H229993   6.097   3.578  13.286  1.4835 -2.8225  0.1960
 2860TIP3   OH229994   4.166   2.026  13.349 -0.3321 -0.2622 -0.8976
 2860TIP3    H129995   4.221   1.952  13.323 -0.4911 -1.3593  1.5167
 2860TIP3    H229996   4.188   2.040  13.441 -2.2256  0.9611 -0.5716
 2861TIP3   OH229997   0.722   2.984   3.275 -0.3015  0.2009  0.4162
 2861TIP3    H129998   0.665   2.919   3.317 -0.9118  1.4788  1.6442
 2861TIP3    H229999   0.664   3.031   3.215 -0.4731  1.2029  1.3344
 2862TIP3   OH230000   1.706   3.338   1.960  0.3363  0.0860  0.4450
 2862TIP3    H130001   1.702   3.292   2.044  0.6627 -0.9268 -0.0715
 2862TIP3    H230002   1.669   3.424   1.978 -0.7388 -0.5368  1.3507
 2863TIP3   OH230003   3.403   0.282  14.762 -0.0594 -0.0784  0.0104
 2863TIP3    H130004   3.344   0.248  14.695  0.0290  1.1085 -0.7035
 2863TIP3    H230005   3.489   0.246  14.739 -0.0761  0.1184 -0.3745
 2864TIP3   OH230006   3.045   1.698  13.384 -0.3266 -0.1949  0.1029
 2864TIP3    H130007   3.085   1.611  13.380 -0.1700 -0.0967 -0.9868
 2864TIP3    H230008   3.058   1.727  13.474  0.6099 -0.8406  0.1951
 2865TIP3   OH230009   0.744   6.046   5.525  0.4064 -0.7769  0.0696
 2865TIP3    H130010   0.733   6.055   5.619  1.6187 -0.0026  0.1431
 2865TIP3    H230011   0.837   6.061   5.509  0.0065  0.4281 -1.3930
 2866TIP3   OH230012   1.146   0.741  12.337  0.3390 -0.0277  0.3787
 2866TIP3    H130013   1.129   0.726  12.430  0.9223  3.5940  1.2146
 2866TIP3    H230014   1.239   0.761  12.333 -0.0880  2.0852 -0.5404
 2867TIP3   OH230015   1.080   1.294  15.930 -0.1705  0.8657  0.2451
 2867TIP3    H130016   1.068   1.387  15.910 -0.9409  0.8229  0.4789
 2867TIP3    H230017   1.155   1.292  15.989  0.2242  1.2787 -0.2247
 2868TIP3   OH230018   3.681   3.370  15.940  0.4859  0.1083  0.3217
 2868TIP3    H130019   3.629   3.404  16.012 -0.5100 -0.4126 -0.1235
 2868TIP3    H230020   3.770   3.363  15.974  0.0980  0.2190  1.3669
 2869TIP3   OH230021   3.295   2.886   2.834 -0.6413 -0.4032 -0.0473
 2869TIP3    H130022   3.306   2.818   2.901 -2.7320 -1.0712 -0.3074
 2869TIP3    H230023   3.355   2.861   2.764  0.1906 -0.7562  0.7738
 2870TIP3   OH230024   3.877   5.489   1.056  0.2742  0.0759 -0.2299
 2870TIP3    H130025   3.918   5.405   1.075  0.6152  0.2524 -0.1877
 2870TIP3    H230026   3.944   5.540   1.011 -0.4885 -0.3016 -1.8529
 2871TIP3   OH230027   1.830   0.828  15.024 -0.0701  0.6600  0.5959
 2871TIP3    H130028   1.797   0.864  14.942 -0.5018 -0.6829  0.1534
 2871TIP3    H230029   1.769   0.860  15.091 -1.8083 -1.0480 -0.0851
 2872TIP3   OH230030   1.971   1.613   5.670 -0.0554 -0.4387  0.1892
 2872TIP3    H130031   1.954   1.607   5.576 -0.7155  1.4580  0.1354
 2872TIP3    H230032   1.950   1.704   5.692  1.9677 -0.2860  1.8026
 2873TIP3   OH230033   1.662   1.576   1.725  0.4768  0.3604 -0.1180
 2873TIP3    H130034   1.571   1.550   1.743  0.5311 -0.2966 -0.7874
 2873TIP3    H230035   1.688   1.626   1.803 -0.7963  1.4667 -0.3582
 2874TIP3   OH230036   1.854   3.609  15.874  0.4204  0.5103 -0.4057
 2874TIP3    H130037   1.942   3.618  15.838  0.8279 -0.8579  0.1823
 2874TIP3    H230038   1.802   3.571  15.803  0.2429  1.4867 -0.8116
 2875TIP3   OH230039   0.407   3.402   5.454 -0.6533 -0.7799 -0.0016
 2875TIP3    H130040   0.445   3.314   5.454  0.3145 -0.4561 -2.4503
 2875TIP3    H230041   0.461   3.451   5.392 -1.3058  1.5113  1.1094
 2876TIP3   OH230042   0.145   2.938   3.121 -0.3060 -0.1727  0.3651
 2876TIP3    H130043   0.216   2.905   3.065 -1.5871 -0.2619 -1.2691
 2876TIP3    H230044   0.083   2.865   3.127 -1.1961  0.5453  0.1167
 2877TIP3   OH230045   0.194   0.372   5.691 -0.6009  0.5971  0.0871
 2877TIP3    H130046   0.138   0.303   5.655  1.5796 -0.2907 -1.8371
 2877TIP3    H230047   0.234   0.331   5.768  1.1010 -0.6026 -1.3495
 2878TIP3   OH230048   5.777   3.243  13.653  0.2203 -0.0841  0.4172
 2878TIP3    H130049   5.819   3.276  13.732  1.3979  2.0491 -1.0083
 2878TIP3    H230050   5.849   3.228  13.592 -0.7192 -1.0542 -0.5061
 2879TIP3   OH230051   2.176   5.280   5.211 -0.1072 -0.1718  0.3286
 2879TIP3    H130052   2.176   5.354   5.272  0.4012  0.5680 -0.5414
 2879TIP3    H230053   2.096   5.291   5.160  0.7666  0.7403 -0.9012
 2880TIP3   OH230054   1.653   1.990   4.480  0.1910 -0.6043  0.1498
 2880TIP3    H130055   1.692   1.949   4.558  3.2390  0.8703 -0.4322
 2880TIP3    H230056   1.579   2.040   4.514  0.4790 -1.2711  1.8627
 2881TIP3   OH230057   4.895   0.722  16.829  0.1231 -0.0570 -0.2990
 2881TIP3    H130058   4.942   0.639  16.817 -0.6973 -0.6499  0.4285
 2881TIP3    H230059   4.833   0.704  16.900 -0.4638  1.0164 -0.5231
 2882TIP3   OH230060   4.141   4.475  13.214 -1.0545 -0.4344 -0.3208
 2882TIP3    H130061   4.065   4.519  13.253 -0.5444  0.8788 -0.7551
 2882TIP3    H230062   4.196   4.547  13.182 -0.1434 -1.4032 -0.9723
 2883TIP3   OH230063   4.142   6.286   1.087 -0.4679  0.4236  0.5176
 2883TIP3    H130064   4.173   6.347   1.020  0.1834 -1.0963 -0.6316
 2883TIP3    H230065   4.221   6.261   1.135 -0.4201 -0.7795 -0.1397
 2884TIP3   OH230066   5.942   0.149  11.297 -0.1988 -0.7973 -0.0164
 2884TIP3    H130067   5.928   0.159  11.391 -1.3181  0.3763 -0.2867
 2884TIP3    H230068   5.955   0.239  11.265  1.7170 -1.2957 -0.7726
 2885TIP3   OH230069   1.986   2.708   1.296 -0.1499 -0.5632  0.5387
 2885TIP3    H130070   1.956   2.641   1.234  0.2482  0.9855 -1.4303
 2885TIP3    H230071   1.908   2.762   1.311 -0.0559 -0.5106  0.8401
 2886TIP3   OH230072   4.945   4.687   3.959  0.1806  0.4824 -0.2853
 2886TIP3    H130073   4.908   4.599   3.965  1.0197  0.2032  1.5512
 2886TIP3    H230074   4.994   4.687   3.877  0.8133 -1.0499  0.0543
 2887TIP3   OH230075   0.396   1.777   2.582 -0.4897  0.3259  0.1434
 2887TIP3    H130076   0.328   1.767   2.648 -0.1733 -2.4737  0.1893
 2887TIP3    H230077   0.361   1.733   2.504  1.5058 -2.0167  0.4361
 2888TIP3   OH230078   3.668   2.026   3.867 -0.5188 -0.5080  0.6249
 2888TIP3    H130079   3.731   2.087   3.830 -1.4054 -0.8350 -1.5942
 2888TIP3    H230080   3.717   1.977   3.933  1.0548  0.3730  0.1511
 2889TIP3   OH230081   1.276   2.606   3.232  0.6950 -0.4990 -0.3135
 2889TIP3    H130082   1.214   2.608   3.159  0.1650  1.0251  0.1408
 2889TIP3    H230083   1.235   2.550   3.298 -0.5626  1.0071  0.2444
 2890TIP3   OH230084   2.085   3.652  12.654 -0.1048 -0.1587  0.1242
 2890TIP3    H130085   2.126   3.728  12.696  1.6625 -1.1559  0.2885
 2890TIP3    H230086   2.015   3.690  12.601  0.2549  1.5152  0.7616
 2891TIP3   OH230087   4.818   1.145  17.040  0.4192 -1.2595 -0.1321
 2891TIP3    H130088   4.884   1.098  16.988  0.7169 -1.7868  0.7062
 2891TIP3    H230089   4.835   1.118  17.130  0.2215  0.0141  0.3064
 2892TIP3   OH230090   1.491   2.867  11.400 -0.4723  0.6459 -0.3989
 2892TIP3    H130091   1.581   2.839  11.389 -0.1343  1.1252  0.9212
 2892TIP3    H230092   1.470   2.914  11.319  1.0611  2.0646 -0.0222
 2893TIP3   OH230093   0.214   2.725  11.802 -0.2297 -0.0354  0.1271
 2893TIP3    H130094   0.168   2.787  11.859 -1.5166 -0.9259  0.1188
 2893TIP3    H230095   0.306   2.745  11.813 -0.6147  1.8076  0.2009
 2894TIP3   OH230096   4.999   4.224  15.570 -0.2209 -0.2439 -0.0789
 2894TIP3    H130097   4.958   4.306  15.597 -0.4199 -0.5162  0.4574
 2894TIP3    H230098   5.050   4.247  15.492 -0.9118  0.2185 -0.4056
 2895TIP3   OH230099   1.542   2.707  14.172 -0.5376 -0.0898 -0.5092
 2895TIP3    H130100   1.525   2.797  14.198  0.5630  0.3293 -1.1871
 2895TIP3    H230101   1.637   2.702  14.160 -0.4255 -1.6369  0.6055
 2896TIP3   OH230102   5.404   1.745  10.757  0.0786  0.1449 -0.4295
 2896TIP3    H130103   5.445   1.831  10.768  0.6029 -0.0401 -0.8699
 2896TIP3    H230104   5.380   1.741  10.665 -0.1660 -0.0846 -0.3574
 2897TIP3   OH230105   4.311   5.678  12.302  0.6450  0.5505 -0.2401
 2897TIP3    H130106   4.375   5.614  12.270 -2.1054 -1.9220 -1.2949
 2897TIP3    H230107   4.296   5.654  12.393  0.3902  0.3474 -0.3327
 2898TIP3   OH230108   5.608   6.369   0.350  0.0803  0.0561 -0.3025
 2898TIP3    H130109   5.640   6.421   0.424  0.3402  0.6373 -0.8180
 2898TIP3    H230110   5.636   6.279   0.370 -2.2409 -0.3439  1.6913
 2899TIP3   OH230111   1.285   5.939   3.524  0.4441  0.3237  0.1164
 2899TIP3    H130112   1.327   6.022   3.546 -1.6023  1.4531 -0.0117
 2899TIP3    H230113   1.270   5.897   3.609  2.0332 -0.2405  0.1473
 2900TIP3   OH230114   2.346   4.851   4.056 -0.3494  0.1601 -0.1756
 2900TIP3    H130115   2.418   4.903   4.092 -0.7026  1.7268 -1.6218
 2900TIP3    H230116   2.386   4.798   3.988  0.0350 -1.6648  1.3836
 2901TIP3   OH230117   4.451   4.114   6.519  0.5970 -0.3208 -0.6857
 2901TIP3    H130118   4.515   4.181   6.544  2.5266 -2.0255 -0.7953
 2901TIP3    H230119   4.497   4.058   6.457 -0.1205 -3.0881  1.0980
 2902TIP3   OH230120   6.602   0.537   2.806  0.0338  0.0388  0.0230
 2902TIP3    H130121   6.550   0.483   2.747  2.3704  0.2424 -2.4274
 2902TIP3    H230122   6.693   0.520   2.781  1.0175  2.2408  1.7184
 2903TIP3   OH230123   6.156   4.680   0.583 -0.4470  0.4464  0.5688
 2903TIP3    H130124   6.243   4.643   0.568  0.0030 -0.7152  4.7510
 2903TIP3    H230125   6.170   4.750   0.646 -2.4926  0.5431  0.9788
 2904TIP3   OH230126   2.326   4.657   0.840 -0.1185 -0.0229 -0.0758
 2904TIP3    H130127   2.305   4.713   0.765  0.6568 -1.2610 -1.2472
 2904TIP3    H230128   2.339   4.719   0.912 -1.5540  1.1508 -0.7669
 2905TIP3   OH230129   4.115   4.090  13.398  0.3762  0.1532  0.0029
 2905TIP3    H130130   4.113   3.995  13.394 -2.0771  0.1533 -0.5326
 2905TIP3    H230131   4.078   4.118  13.314 -2.0647  1.4569  1.3959
 2906TIP3   OH230132   4.759   5.426   4.213  0.2219 -0.2188  0.6082
 2906TIP3    H130133   4.723   5.342   4.184  0.1490 -0.3242  1.0005
 2906TIP3    H230134   4.778   5.413   4.306  1.2225 -0.1588  0.4318
 2907TIP3   OH230135   3.790   4.054   4.421 -0.2825  0.2225  0.3320
 2907TIP3    H130136   3.762   3.994   4.490 -0.8857  1.5162  1.2396
 2907TIP3    H230137   3.802   4.138   4.464 -2.4898  1.5481 -1.4174
 2908TIP3   OH230138   4.612   1.946   2.829 -0.5845 -0.1664 -0.5423
 2908TIP3    H130139   4.658   1.866   2.803 -0.5872 -0.4473  0.2759
 2908TIP3    H230140   4.679   2.014   2.827 -0.1364 -0.5510  0.5347
 2909TIP3   OH230141   2.742   1.541   2.740 -0.2359  0.1563 -0.4540
 2909TIP3    H130142   2.811   1.604   2.724 -0.0853  0.3642  0.9380
 2909TIP3    H230143   2.785   1.467   2.783 -0.7625  0.0031 -0.1709
 2910TIP3   OH230144   2.460   0.630  13.559  0.2976 -0.4007  0.4303
 2910TIP3    H130145   2.523   0.569  13.520  0.3900  0.6638 -1.1801
 2910TIP3    H230146   2.391   0.637  13.493 -0.0294  0.7204  0.8819
 2911TIP3   OH230147   4.538   0.633   1.718  0.0481 -0.2536  0.1082
 2911TIP3    H130148   4.628   0.632   1.749  1.0172 -3.1843 -2.3068
 2911TIP3    H230149   4.487   0.592   1.788  1.2709 -1.9339  0.0669
 2912TIP3   OH230150   6.442   3.827   5.404 -0.5149 -0.2450 -0.4671
 2912TIP3    H130151   6.412   3.754   5.349 -0.6551 -1.2158  0.8368
 2912TIP3    H230152   6.458   3.787   5.489  0.1523  1.1291  0.0786
 2913TIP3   OH230153   3.779   4.438   1.064 -0.0241  0.1859  0.2178
 2913TIP3    H130154   3.810   4.413   1.151  0.0542 -0.5439 -0.0085
 2913TIP3    H230155   3.693   4.396   1.057  0.0044  0.1760 -0.0809
 2914TIP3   OH230156   5.948   5.847   1.839  0.1163 -0.1143 -0.3612
 2914TIP3    H130157   5.868   5.899   1.843 -0.9762 -1.7793  1.3075
 2914TIP3    H230158   5.924   5.770   1.788  0.7482 -0.4583 -0.1517
 2915TIP3   OH230159   0.480   0.946  15.187 -0.2262 -0.4782 -0.2168
 2915TIP3    H130160   0.547   0.959  15.120  0.5939  0.4199  0.7449
 2915TIP3    H230161   0.397   0.947  15.139  0.3521  0.0203 -1.2338
 2916TIP3   OH230162   1.561   2.590   0.840  0.4375 -0.2388  0.2899
 2916TIP3    H130163   1.657   2.592   0.839  0.4300  0.1116 -0.3265
 2916TIP3    H230164   1.539   2.497   0.849  0.8245 -0.2450  1.4703
 2917TIP3   OH230165   3.119   0.725   6.431  0.3433 -0.4530 -0.8593
 2917TIP3    H130166   3.199   0.671   6.435  0.9018  0.4098  0.8030
 2917TIP3    H230167   3.137   0.798   6.491 -2.6556 -1.6105  1.7468
 2918TIP3   OH230168   2.354   2.179   1.506 -0.4127  0.3482  0.0653
 2918TIP3    H130169   2.305   2.221   1.576 -1.3995  0.7468 -0.8361
 2918TIP3    H230170   2.303   2.197   1.427  1.9675  2.1941 -1.1866
 2919TIP3   OH230171   1.611   0.545   2.835 -0.5056  0.0370 -0.3804
 2919TIP3    H130172   1.577   0.578   2.919 -1.4603  0.0216 -0.7509
 2919TIP3    H230173   1.658   0.465   2.858 -0.5840  0.1462  0.1712
 2920TIP3   OH230174   0.907   1.885  11.929  0.3648 -0.1124 -0.4929
 2920TIP3    H130175   0.821   1.847  11.908 -0.1967  1.0357 -0.3682
 2920TIP3    H230176   0.903   1.974  11.893  0.7354  0.6616  1.2738
 2921TIP3   OH230177   5.388   3.636  16.510 -0.0002  0.1880 -0.0323
 2921TIP3    H130178   5.417   3.668  16.424  2.9596  1.9005  1.4359
 2921TIP3    H230179   5.295   3.614  16.497 -0.6920  3.6883 -2.8324
 2922TIP3   OH230180   3.768   5.685   4.953  0.0035 -0.2809  0.8675
 2922TIP3    H130181   3.853   5.704   4.911  0.7538 -2.2484  1.3778
 2922TIP3    H230182   3.724   5.770   4.957  2.8517  1.2886  2.6053
 2923TIP3   OH230183   3.685   4.314  16.605  0.4420  0.2292  0.1783
 2923TIP3    H130184   3.602   4.353  16.633  0.4304 -0.1807  0.7280
 2923TIP3    H230185   3.709   4.362  16.526  0.2265  1.0825  0.6188
 2924TIP3   OH230186   1.920   2.686   1.942  0.3736  0.5556  0.1472
 2924TIP3    H130187   1.884   2.771   1.917 -2.4580 -0.4156  0.5372
 2924TIP3    H230188   1.844   2.628   1.948  2.1154 -1.9022  0.4481
 2925TIP3   OH230189   0.445   2.648  12.889 -0.1957  0.4089  0.3965
 2925TIP3    H130190   0.375   2.707  12.920 -0.1889 -1.4206  4.6283
 2925TIP3    H230191   0.526   2.696  12.907 -0.2501  0.5003  0.3999
 2926TIP3   OH230192   2.619   4.274  12.644 -0.4102 -1.1479  0.2550
 2926TIP3    H130193   2.704   4.237  12.621 -1.6556 -2.6003 -2.5928
 2926TIP3    H230194   2.588   4.220  12.716  0.0467 -2.2820 -0.3725
 2927TIP3   OH230195   3.778   1.079   1.039 -0.7070 -0.5942 -0.4920
 2927TIP3    H130196   3.765   1.067   0.945  0.8900 -0.8516 -0.7064
 2927TIP3    H230197   3.819   0.998   1.068  1.1640  0.4241 -0.0916
 2928TIP3   OH230198   2.654   3.625  13.584 -0.0746 -0.2679 -0.1062
 2928TIP3    H130199   2.740   3.616  13.542  0.6691 -3.2108  1.7396
 2928TIP3    H230200   2.607   3.687  13.529  2.1004 -1.0116 -3.0554
 2929TIP3   OH230201   1.068   0.718  12.595  0.3065 -0.5115 -0.6928
 2929TIP3    H130202   1.032   0.656  12.659 -0.8175  1.2696  0.4847
 2929TIP3    H230203   1.128   0.773  12.646 -1.1362  1.3965 -0.9502
 2930TIP3   OH230204   5.588   4.394   3.097 -0.0054  0.6544 -0.0094
 2930TIP3    H130205   5.664   4.452   3.100 -1.7684  3.1376  0.2102
 2930TIP3    H230206   5.601   4.341   3.019  0.5350  3.2057 -1.7742
 2931TIP3   OH230207   6.118   3.561   5.203 -0.9884 -0.6036 -0.0523
 2931TIP3    H130208   6.050   3.626   5.188 -0.8800 -0.5650 -0.3856
 2931TIP3    H230209   6.108   3.536   5.295 -0.9708 -0.0445  0.1057
 2932TIP3   OH230210   4.785   6.239   2.504 -0.5174  0.1935  0.4254
 2932TIP3    H130211   4.794   6.262   2.411  0.9151 -0.1537  0.4496
 2932TIP3    H230212   4.783   6.143   2.505 -0.0766  0.1800  0.7640
 2933TIP3   OH230213   3.564   5.005  13.655 -0.1860 -0.1547  0.4462
 2933TIP3    H130214   3.650   4.967  13.637 -0.5272  0.0369 -1.7685
 2933TIP3    H230215   3.503   4.953  13.604 -0.9984  1.6139 -0.4521
 2934TIP3   OH230216   6.162   5.659   2.739  0.1746 -0.1091 -0.2792
 2934TIP3    H130217   6.238   5.676   2.684  1.9287 -2.5253  1.2584
 2934TIP3    H230218   6.117   5.586   2.697 -0.1288 -0.0746 -0.0243
 2935TIP3   OH230219   1.976   5.180  13.776  0.5253  0.0867  0.2125
 2935TIP3    H130220   2.070   5.162  13.778  0.1408 -2.1989  0.6870
 2935TIP3    H230221   1.941   5.132  13.851 -1.1339  0.1451 -0.4751
 2936TIP3   OH230222   6.629   0.158   1.805 -0.0903  0.1279  0.0837
 2936TIP3    H130223   6.556   0.101   1.782 -1.2563  1.9600 -1.0753
 2936TIP3    H230224   6.672   0.115   1.879 -1.2922 -1.8548 -0.3025
 2937TIP3   OH230225   2.745   0.375  10.907  0.1079  0.4364  0.3231
 2937TIP3    H130226   2.726   0.430  10.831  0.0936 -1.6788 -1.2944
 2937TIP3    H230227   2.660   0.361  10.948 -0.5724 -1.4706 -1.5400
 2938TIP3   OH230228   5.784   2.328  14.100  0.5355 -0.1274  0.0062
 2938TIP3    H130229   5.796   2.281  14.018 -1.1995 -0.5432 -0.0349
 2938TIP3    H230230   5.790   2.421  14.077  0.6690 -0.2567 -0.4757
 2939TIP3   OH230231   2.308   0.533   3.744 -0.1287 -0.2830  0.1728
 2939TIP3    H130232   2.358   0.457   3.775  1.4381  0.0030 -1.4673
 2939TIP3    H230233   2.366   0.607   3.759 -1.5289  0.5977  1.4928
 2940TIP3   OH230234   3.646   0.375  12.789  0.1425  0.1899 -0.2293
 2940TIP3    H130235   3.651   0.352  12.882 -1.3113  0.0710 -0.1547
 2940TIP3    H230236   3.712   0.444  12.778 -0.4678  1.0569  1.1606
 2941TIP3   OH230237   0.633   5.600   5.985  0.0955 -0.1891  0.3740
 2941TIP3    H130238   0.683   5.680   5.970 -1.2019  0.5690 -0.0623
 2941TIP3    H230239   0.596   5.611   6.073  2.0168 -1.5087  1.4147
 2942TIP3   OH230240   0.199   6.165   0.150  0.2970  0.4795  0.0682
 2942TIP3    H130241   0.240   6.141   0.233 -2.2277  2.3106  2.0148
 2942TIP3    H230242   0.269   6.207   0.100  1.8126 -0.3740  1.3824
 2943TIP3   OH230243   4.228   0.486  11.457  0.3711  0.2187 -0.0034
 2943TIP3    H130244   4.304   0.472  11.400 -0.1101  0.0602 -0.6124
 2943TIP3    H230245   4.221   0.405  11.507  0.9579  0.4631  0.4760
 2944TIP3   OH230246   5.797   3.428  15.321 -0.4693 -0.2461  0.2169
 2944TIP3    H130247   5.750   3.496  15.272  0.4750  1.4406  1.5329
 2944TIP3    H230248   5.783   3.451  15.413  0.6660 -1.2850  0.6779
 2945TIP3   OH230249   4.475   1.188   1.200  0.0749 -0.3354  0.8188
 2945TIP3    H130250   4.389   1.153   1.178 -0.2465  0.7147  0.3473
 2945TIP3    H230251   4.478   1.274   1.157  1.8311 -0.8734 -0.2491
 2946TIP3   OH230252   5.855   4.610   5.022 -0.0387 -0.0398  0.3781
 2946TIP3    H130253   5.781   4.549   5.027  0.6664 -1.0161 -0.6966
 2946TIP3    H230254   5.842   4.669   5.097 -1.4273 -0.7151  0.7076
 2947TIP3   OH230255   2.473   0.726   1.940 -0.2624 -0.3869 -0.0581
 2947TIP3    H130256   2.496   0.738   1.848  0.4709  0.5342  0.2379
 2947TIP3    H230257   2.449   0.633   1.947  2.5731 -1.2427 -0.5676
 2948TIP3   OH230258   6.007   3.170   0.807  0.1150 -0.4701 -0.2599
 2948TIP3    H130259   6.074   3.167   0.740  0.5602  0.0902  0.1481
 2948TIP3    H230260   5.944   3.236   0.775  1.0216  0.8062  0.4774
 2949TIP3   OH230261   1.605   0.540   1.193 -0.1777  0.1303  0.0400
 2949TIP3    H130262   1.564   0.556   1.108 -0.2462  0.4057  0.1247
 2949TIP3    H230263   1.687   0.589   1.189  0.7801 -1.4364 -0.6196
 2950TIP3   OH230264   3.291   0.596   3.396  0.3015  0.2880 -0.7367
 2950TIP3    H130265   3.254   0.533   3.459  0.1750 -0.7673 -1.8149
 2950TIP3    H230266   3.362   0.548   3.353  2.8169  2.1676  1.0511
 2951TIP3   OH230267   3.184   0.912  11.176  0.2144 -0.3886  0.2762
 2951TIP3    H130268   3.161   1.005  11.177 -0.1129 -0.4705  0.4652
 2951TIP3    H230269   3.125   0.873  11.112  0.8481 -0.3447 -0.3502
 2952TIP3   OH230270   4.625   1.159   3.310  0.0922 -0.0784 -0.0976
 2952TIP3    H130271   4.679   1.125   3.381 -1.8968 -1.3868  0.8820
 2952TIP3    H230272   4.652   1.110   3.233  0.3980 -0.6007  0.3393
 2953TIP3   OH230273   1.888   5.222   4.451 -0.0717 -0.7389  0.3314
 2953TIP3    H130274   1.809   5.234   4.503  0.6404  0.1910  1.2509
 2953TIP3    H230275   1.949   5.289   4.484  0.7288 -0.7326 -1.0793
 2954TIP3   OH230276   4.187   5.351  12.050 -0.7202  0.1622 -0.2271
 2954TIP3    H130277   4.221   5.312  12.130 -1.2583  0.7722  0.3178
 2954TIP3    H230278   4.258   5.407  12.018 -0.2717 -0.5649 -0.5347
 2955TIP3   OH230279   0.161   3.054   4.740 -0.7781 -0.0533 -0.2844
 2955TIP3    H130280   0.073   3.031   4.772  0.1238 -1.7456  1.2031
 2955TIP3    H230281   0.186   2.979   4.687 -0.8891  1.2287 -2.2270
 2956TIP3   OH230282   2.995   3.430   0.134  0.3309  0.0719 -0.3388
 2956TIP3    H130283   3.038   3.495   0.189 -1.7618  0.5562  0.8068
 2956TIP3    H230284   2.952   3.371   0.196 -1.4169  0.1489 -1.4251
 2957TIP3   OH230285   0.869   1.765  16.840  0.1261  0.2565  0.0894
 2957TIP3    H130286   0.857   1.857  16.865  1.9360  0.4967  0.2097
 2957TIP3    H230287   0.921   1.727  16.910 -2.0307 -1.3880  0.9263
 2958TIP3   OH230288   4.230   2.106   5.868 -0.3089 -0.1214  0.1508
 2958TIP3    H130289   4.210   2.178   5.929 -0.4808 -1.4933  1.7867
 2958TIP3    H230290   4.318   2.078   5.893 -0.2502 -0.4915 -0.4636
 2959TIP3   OH230291   1.285   2.185   2.023 -0.1578  0.0431 -0.4776
 2959TIP3    H130292   1.317   2.095   2.036 -0.5836 -0.1417 -0.6770
 2959TIP3    H230293   1.225   2.178   1.949  0.3825  0.6368 -0.9796
 2960TIP3   OH230294   4.473   2.133  12.985 -0.5051 -0.0054  0.3726
 2960TIP3    H130295   4.521   2.076  13.046  1.4008  0.6313 -0.4664
 2960TIP3    H230296   4.392   2.154  13.032 -0.0717 -1.2676  1.7859
 2961TIP3   OH230297   2.646   5.935   5.830  0.6056  0.1512  0.0009
 2961TIP3    H130298   2.649   5.859   5.889  0.6589  1.6516  2.0673
 2961TIP3    H230299   2.649   5.897   5.742  1.7451 -2.1862  0.9422
 2962TIP3   OH230300   2.831   0.497  13.817 -0.1016 -0.0045  0.1361
 2962TIP3    H130301   2.756   0.487  13.758 -1.2957  0.4985  1.5068
 2962TIP3    H230302   2.819   0.428  13.883  0.8110 -0.0973  0.2133
 2963TIP3   OH230303   0.290   3.614   1.108  0.4072  0.4658  0.2817
 2963TIP3    H130304   0.338   3.697   1.112  1.5055 -0.0887 -0.4833
 2963TIP3    H230305   0.333   3.558   1.173 -0.2351  0.4619  0.6986
 2964TIP3   OH230306   1.364   0.000  14.862  0.2395 -0.2795  0.5554
 2964TIP3    H130307   1.373   0.094  14.877  1.9796 -0.7037  2.6581
 2964TIP3    H230308   1.271  -0.012  14.844 -0.5796  1.5314  3.0585
 2965TIP3   OH230309   0.008   1.399  12.758 -0.4462  0.0323  0.1429
 2965TIP3    H130310   0.090   1.417  12.805  0.1758 -0.8242 -0.5945
 2965TIP3    H230311   0.002   1.304  12.756 -1.7610  0.0788  0.6758
 2966TIP3   OH230312   5.602   3.186  11.250 -0.8762 -0.5994 -0.0957
 2966TIP3    H130313   5.641   3.258  11.298 -0.6546  0.6224 -1.9914
 2966TIP3    H230314   5.645   3.108  11.284  0.2460  0.3337  0.7122
 2967TIP3   OH230315   0.792   1.753  17.116 -0.4402  0.3239 -0.0788
 2967TIP3    H130316   0.760   1.669  17.083  0.4573 -0.8117  1.7553
 2967TIP3    H230317   0.875   1.731  17.158  0.5736  2.4165 -0.8474
 2968TIP3   OH230318   4.313   0.972  13.229 -0.2698  0.0283  0.6173
 2968TIP3    H130319   4.376   0.911  13.267  1.3065 -0.0115 -1.8598
 2968TIP3    H230320   4.276   0.926  13.154  0.2934  1.7653 -0.7821
 2969TIP3   OH230321   0.658   2.288   2.733 -0.0256 -0.0660  0.0691
 2969TIP3    H130322   0.569   2.299   2.700 -0.6114 -0.8137  1.3094
 2969TIP3    H230323   0.650   2.225   2.805  1.6978 -1.0828 -0.5650
 2970TIP3   OH230324   5.416   3.417   3.264  0.1274  0.0566 -0.5905
 2970TIP3    H130325   5.464   3.416   3.347  0.6970 -0.4366 -0.9164
 2970TIP3    H230326   5.423   3.507   3.233 -1.8323  0.7939  0.8689
 2971TIP3   OH230327   6.501   4.703   3.595  0.4082 -0.1614 -0.7797
 2971TIP3    H130328   6.497   4.625   3.650 -0.0815 -0.7664 -1.6397
 2971TIP3    H230329   6.550   4.767   3.646  1.2562 -1.2029 -0.2650
 2972TIP3   OH230330   3.221   4.396  12.148 -0.0812  0.1980 -0.4474
 2972TIP3    H130331   3.275   4.347  12.085 -2.2897 -1.3153 -1.3083
 2972TIP3    H230332   3.169   4.455  12.094 -0.3418  0.5653  0.1970
 2973TIP3   OH230333   6.281   2.300  11.308 -0.3317  0.1904  0.1535
 2973TIP3    H130334   6.232   2.358  11.366  1.1240  0.7200  0.9049
 2973TIP3    H230335   6.234   2.305  11.224 -1.4366  0.8020  0.7864
 2974TIP3   OH230336   2.011   5.951  15.126  0.6901 -0.1979 -0.2002
 2974TIP3    H130337   1.987   5.913  15.211 -1.5700  1.0309 -0.1932
 2974TIP3    H230338   1.941   6.014  15.108  1.8606  0.5883 -2.3389
 2975TIP3   OH230339   6.618   6.076   0.442 -0.8394  0.2188  0.5876
 2975TIP3    H130340   6.683   6.145   0.427  0.1818 -0.6931  0.7410
 2975TIP3    H230341   6.637   6.044   0.530 -0.0452 -1.5471 -0.1868
 2976TIP3   OH230342   5.211   5.207  14.451  0.5205 -0.3784 -0.2248
 2976TIP3    H130343   5.299   5.174  14.436  0.7100 -0.5814  1.2121
 2976TIP3    H230344   5.166   5.193  14.368  1.6569 -0.8584 -0.7799
 2977TIP3   OH230345   2.431   0.061   2.394  0.6179 -0.0767 -0.2349
 2977TIP3    H130346   2.381   0.135   2.428 -0.1090 -0.5898 -0.1716
 2977TIP3    H230347   2.472   0.022   2.471  1.9094  0.9019 -0.3923
 2978TIP3   OH230348   2.258   4.929   2.954 -0.1556 -0.1127 -0.6849
 2978TIP3    H130349   2.230   4.981   2.879 -2.4769 -0.5718 -0.2154
 2978TIP3    H230350   2.204   4.961   3.027  1.3342 -0.3534  0.5721
 2979TIP3   OH230351   3.185   0.183  13.806  0.1688 -0.4900  0.8473
 2979TIP3    H130352   3.280   0.183  13.812  0.3744 -0.8959 -1.3335
 2979TIP3    H230353   3.159   0.269  13.840  1.7005  1.2228 -1.8838
 2980TIP3   OH230354   2.423   5.054  14.812  0.0269  0.1982  0.3344
 2980TIP3    H130355   2.366   5.054  14.735  0.5732  0.8205 -0.0815
 2980TIP3    H230356   2.368   5.019  14.883  0.2568 -2.8519 -0.8633
 2981TIP3   OH230357   0.631   0.211  10.827 -0.3602  0.3640  0.2461
 2981TIP3    H130358   0.577   0.147  10.781 -0.5874 -1.0437  2.3680
 2981TIP3    H230359   0.569   0.273  10.864 -0.2273  1.0421 -0.6390
 2982TIP3   OH230360   0.734   3.783  11.944  0.6933 -0.5038  0.2803
 2982TIP3    H130361   0.804   3.735  11.989 -0.0423  0.0114  2.0038
 2982TIP3    H230362   0.740   3.872  11.977  0.2986 -0.0211 -0.8731
 2983TIP3   OH230363   4.821   4.510   3.397  0.8004  0.3512  0.5351
 2983TIP3    H130364   4.795   4.515   3.305  1.0867 -0.3154  0.4094
 2983TIP3    H230365   4.903   4.460   3.396 -0.7274 -2.4283  1.3826
 2984TIP3   OH230366   2.073   5.601   5.645 -0.0897 -0.4932  0.2282
 2984TIP3    H130367   1.987   5.559   5.638 -0.1960 -0.2443  0.0020
 2984TIP3    H230368   2.108   5.572   5.729  0.1171 -1.5498 -0.2104
 2985TIP3   OH230369   0.263   3.620  13.374  0.2178 -0.4828 -0.1716
 2985TIP3    H130370   0.337   3.662  13.417 -0.8091 -0.2353  1.4025
 2985TIP3    H230371   0.194   3.685  13.374 -0.0066 -0.6690 -1.7378
 2986TIP3   OH230372   6.591   3.685  12.304 -0.3465  0.0052 -0.2290
 2986TIP3    H130373   6.602   3.776  12.277  0.0300 -0.2128 -0.8142
 2986TIP3    H230374   6.650   3.635  12.247 -0.0243 -0.5282  0.5486
 2987TIP3   OH230375   4.213   6.557  13.248 -0.7273  0.0437 -0.0948
 2987TIP3    H130376   4.142   6.500  13.279 -1.0904  0.6882  0.2848
 2987TIP3    H230377   4.184   6.585  13.161 -0.8111  0.1015 -0.0476
 2988TIP3   OH230378   5.612   3.872  11.628 -0.3069 -0.0168 -0.8428
 2988TIP3    H130379   5.627   3.805  11.562 -1.1028 -1.4782  0.3927
 2988TIP3    H230380   5.622   3.827  11.711  3.2027  2.2841  0.2220
 2989TIP3   OH230381   4.349   5.941   5.919 -0.0563  0.1514  0.2777
 2989TIP3    H130382   4.318   5.929   5.829 -0.5179  0.7760  0.3448
 2989TIP3    H230383   4.429   5.889   5.924 -0.9227 -1.2729  0.0130
 2990TIP3   OH230384   1.080   4.686  10.739 -0.3371  0.8416 -0.2040
 2990TIP3    H130385   1.019   4.742  10.786  2.0185  2.1734  1.4922
 2990TIP3    H230386   1.120   4.744  10.674 -1.3230 -0.1975 -1.7980
 2991TIP3   OH230387   5.421   1.072   4.801  0.6546  0.4377 -0.1121
 2991TIP3    H130388   5.378   1.036   4.879 -2.6709  2.4059 -0.8371
 2991TIP3    H230389   5.432   1.165   4.821 -2.7570  1.6371 -2.7286
 2992TIP3   OH230390   0.304   4.241   3.456  0.8406 -0.0772  0.1454
 2992TIP3    H130391   0.298   4.153   3.494 -2.2368  0.5272  1.3785
 2992TIP3    H230392   0.264   4.298   3.522 -1.8118  1.4941 -2.5501
 2993TIP3   OH230393   3.402   2.765   0.625 -0.4141  0.1309 -0.3849
 2993TIP3    H130394   3.415   2.680   0.667 -1.8834  0.4203  0.7621
 2993TIP3    H230395   3.456   2.825   0.676 -0.3932  0.0934 -0.3632
 2994TIP3   OH230396   4.023   4.218  14.734 -0.0520  0.3590 -0.2547
 2994TIP3    H130397   3.940   4.170  14.728 -0.9533  1.6574  0.9605
 2994TIP3    H230398   4.079   4.163  14.788  0.2178 -0.9352 -1.7915
 2995TIP3   OH230399   3.899   4.984  16.400 -0.1756 -0.5298  0.2053
 2995TIP3    H130400   3.857   5.047  16.460 -0.8438  0.3826 -1.1793
 2995TIP3    H230401   3.826   4.936  16.361  0.2946 -1.6268  0.6341
 2996TIP3   OH230402   0.878   5.644  12.517  0.1011 -0.1849 -0.3520
 2996TIP3    H130403   0.876   5.641  12.421 -1.7977  2.0184 -0.4899
 2996TIP3    H230404   0.964   5.681  12.537 -0.3791  1.6996 -1.4275
 2997TIP3   OH230405   6.332   2.845   0.803 -0.0640 -1.4595  0.3279
 2997TIP3    H130406   6.392   2.911   0.768 -0.2846 -1.2654  0.3125
 2997TIP3    H230407   6.371   2.821   0.887 -1.4937  0.8646  1.7755
 2998TIP3   OH230408   1.404   4.670   5.179  0.0649 -0.1076  0.7187
 2998TIP3    H130409   1.430   4.660   5.087 -2.1216  1.1115 -0.0796
 2998TIP3    H230410   1.382   4.581   5.207 -0.4395 -0.3281 -0.3352
 2999TIP3   OH230411   1.064   0.512  15.873 -0.5460  0.3645 -0.2733
 2999TIP3    H130412   1.159   0.521  15.881 -0.3525 -1.7488  0.3015
 2999TIP3    H230413   1.030   0.538  15.959 -0.2635 -1.0825  0.3053
 3000TIP3   OH230414   0.380   6.194  14.187 -0.1886  0.4352 -0.4397
 3000TIP3    H130415   0.436   6.132  14.235  0.7980 -0.1252 -2.2456
 3000TIP3    H230416   0.291   6.162  14.201 -0.0499  0.8449  1.7669
 3001TIP3   OH230417   5.794   4.049   6.066 -0.7992  0.1178 -0.1424
 3001TIP3    H130418   5.872   4.059   6.012 -0.1276 -0.8800  0.6124
 3001TIP3    H230419   5.788   4.131   6.116  0.1786 -0.0726  0.3121
 3002TIP3   OH230420   5.765   5.675   5.072 -0.0554 -0.3308 -0.4786
 3002TIP3    H130421   5.750   5.666   4.978  1.4822 -1.8087 -0.6354
 3002TIP3    H230422   5.698   5.619   5.112 -0.0961 -0.4769 -0.7471
 3003TIP3   OH230423   6.120   6.705  15.211 -0.1158  0.6357  0.4906
 3003TIP3    H130424   6.074   6.662  15.140 -0.1289  1.1950  0.1531
 3003TIP3    H230425   6.138   6.793  15.178  0.3997  0.7099  0.9546
 3004TIP3   OH230426   4.622   2.362   2.350  0.6654  0.8407  0.3636
 3004TIP3    H130427   4.568   2.336   2.425  1.1869  2.0982  1.2161
 3004TIP3    H230428   4.656   2.449   2.374  1.4455  0.9456 -1.0151
 3005TIP3   OH230429   6.016   1.573  15.693 -0.2327 -0.4990 -0.2337
 3005TIP3    H130430   6.043   1.518  15.619  1.1725 -2.3119  1.5120
 3005TIP3    H230431   6.083   1.641  15.698 -0.1313 -0.5872 -0.3896
 3006TIP3   OH230432   6.445   2.625   5.296  0.4346  0.2349  0.2115
 3006TIP3    H130433   6.431   2.662   5.209 -0.7860  1.7518  1.0049
 3006TIP3    H230434   6.451   2.530   5.281 -0.6822  0.3788 -1.4197
 3007TIP3   OH230435   5.766   5.090   4.111 -0.0498  0.1280  0.1729
 3007TIP3    H130436   5.723   5.109   4.028  0.6128 -1.3903 -0.5663
 3007TIP3    H230437   5.858   5.082   4.089  0.0823 -0.7297  0.9524
 3008TIP3   OH230438   1.121   4.572   5.491 -0.8306  0.2007 -0.3742
 3008TIP3    H130439   1.207   4.551   5.528 -0.5935  0.6384 -0.6715
 3008TIP3    H230440   1.059   4.525   5.548 -0.3874 -0.3171 -0.3024
 3009TIP3   OH230441   4.577   2.828  12.236 -0.8764 -0.2327 -0.1778
 3009TIP3    H130442   4.609   2.739  12.221 -0.2916 -0.0057 -0.3040
 3009TIP3    H230443   4.482   2.820  12.232 -0.8039 -0.6913 -1.0739
 3010TIP3   OH230444   1.035   0.157   3.140 -0.1303 -0.0627  0.0029
 3010TIP3    H130445   1.047   0.188   3.050  2.4939  0.1913  0.3476
 3010TIP3    H230446   0.945   0.182   3.163 -0.1382  1.8413 -1.8110
 3011TIP3   OH230447   1.606   0.395   0.088 -0.2511 -0.3560 -0.1546
 3011TIP3    H130448   1.640   0.310   0.115  1.3088  0.5233  0.8331
 3011TIP3    H230449   1.511   0.389   0.101 -0.3037 -2.2475 -1.0827
 3012TIP3   OH230450   5.146   3.537   3.305  0.3804 -0.4004 -0.2399
 3012TIP3    H130451   5.105   3.456   3.276 -1.5073  0.1668  0.6943
 3012TIP3    H230452   5.239   3.517   3.309 -0.0290 -2.4490 -0.2368
 3013TIP3   OH230453   3.310   1.034  12.059 -0.0652 -0.2541 -0.3772
 3013TIP3    H130454   3.285   1.068  11.973  0.1302 -0.2902 -0.4481
 3013TIP3    H230455   3.355   1.107  12.102 -1.7232  0.3588  0.3886
 3014TIP3   OH230456   2.838   0.867   4.350 -0.8266 -0.6948  0.0583
 3014TIP3    H130457   2.870   0.894   4.437 -2.5210  1.1327  0.1945
 3014TIP3    H230458   2.848   0.772   4.349  0.2039 -0.6503  1.8468
 3015TIP3   OH230459   4.313   4.630   6.476 -0.1245  0.0100 -0.4371
 3015TIP3    H130460   4.384   4.656   6.535 -0.4065 -0.4551  0.1136
 3015TIP3    H230461   4.298   4.538   6.495  0.1507 -0.3023 -1.6377
 3016TIP3   OH230462   0.853   3.988  14.524  0.2030  0.0052 -0.2222
 3016TIP3    H130463   0.884   3.937  14.599 -1.0479  1.9231  1.7438
 3016TIP3    H230464   0.770   4.025  14.554  1.2065  3.5001 -1.2737
 3017TIP3   OH230465   4.181   4.538   5.938  0.2342  0.1222 -0.4012
 3017TIP3    H130466   4.123   4.574   5.871 -1.6469 -1.1479  0.4785
 3017TIP3    H230467   4.166   4.593   6.015  0.3093 -0.1127 -0.2178
 3018TIP3   OH230468   1.272   3.036  15.954 -0.4040  0.3275 -0.4493
 3018TIP3    H130469   1.256   3.130  15.940 -0.0608  0.4551 -0.0079
 3018TIP3    H230470   1.304   3.031  16.044  3.3574  0.2616 -1.6045
 3019TIP3   OH230471   1.621   5.604   4.672 -0.1454  0.4353 -0.1737
 3019TIP3    H130472   1.575   5.614   4.589  0.5323  1.0102 -0.4954
 3019TIP3    H230473   1.681   5.679   4.675  0.5672 -0.1389  0.3474
 3020TIP3   OH230474   4.256   2.057   5.223  0.0024 -0.0787  0.1416
 3020TIP3    H130475   4.249   2.108   5.304 -0.8053 -0.2689  0.2036
 3020TIP3    H230476   4.232   2.118   5.154 -2.9798 -0.8004  0.3777
 3021TIP3   OH230477   2.170   5.174   2.816 -0.1910  0.7449 -0.2660
 3021TIP3    H130478   2.229   5.213   2.751  3.8550 -1.8463  1.3865
 3021TIP3    H230479   2.175   5.233   2.891 -0.2532  0.8707 -0.3604
 3022TIP3   OH230480   3.872   3.997  15.538  0.0977  0.0414 -0.4717
 3022TIP3    H130481   3.790   4.013  15.491  0.5303  1.2977 -0.8481
 3022TIP3    H230482   3.930   3.961  15.471 -0.7360 -2.9108  0.2714
 3023TIP3   OH230483   3.095   4.745  11.209  0.5440  0.3635  0.6798
 3023TIP3    H130484   3.089   4.771  11.301  0.4800  3.6553 -0.1538
 3023TIP3    H230485   3.089   4.827  11.160  0.0143 -1.3252 -2.3164
 3024TIP3   OH230486   2.489   5.997   1.838  0.3531  0.5408  0.5901
 3024TIP3    H130487   2.439   5.962   1.764  0.3047  3.3413 -0.8274
 3024TIP3    H230488   2.581   5.987   1.811  0.3246  2.2888 -0.3061
 3025TIP3   OH230489   4.690   1.505   2.744  0.0735  0.3907  0.3106
 3025TIP3    H130490   4.700   1.494   2.839  0.0666 -1.1614  0.1460
 3025TIP3    H230491   4.690   1.416   2.709 -1.9581  0.8189 -0.9400
 3026TIP3   OH230492   1.086   0.209   4.345  0.4661 -0.0749 -0.2900
 3026TIP3    H130493   1.148   0.135   4.351  1.6419  0.9394  0.6242
 3026TIP3    H230494   1.076   0.238   4.435 -2.6202 -1.1674 -0.1785
 3027TIP3   OH230495   1.847   3.340  13.159 -0.3833  0.0673  0.0164
 3027TIP3    H130496   1.861   3.433  13.141  0.1093  0.9409  3.9713
 3027TIP3    H230497   1.922   3.315  13.212 -1.6355 -1.9640  0.9198
 3028TIP3   OH230498   2.682   1.027  15.772 -0.3243  0.5407 -0.1612
 3028TIP3    H130499   2.654   0.942  15.806 -1.1424  0.3578 -1.2342
 3028TIP3    H230500   2.741   1.005  15.700  0.2532  0.9029  0.1915
 3029TIP3   OH230501   0.878   3.407   2.695 -0.3117  0.3644 -0.2886
 3029TIP3    H130502   0.966   3.443   2.691 -0.0687 -0.1785 -0.0127
 3029TIP3    H230503   0.845   3.414   2.606 -0.6277  2.1031 -0.0552
 3030TIP3   OH230504   4.284   0.029   2.072  0.1798 -0.0104  0.1228
 3030TIP3    H130505   4.244   0.109   2.038  2.1989  1.3165  0.7184
 3030TIP3    H230506   4.279   0.039   2.167 -0.0889 -0.8821  0.2024
 3031TIP3   OH230507   5.077   0.952   3.005  0.2083  0.3850 -0.7524
 3031TIP3    H130508   5.153   0.983   2.955  0.3959 -0.4168 -0.9871
 3031TIP3    H230509   5.064   1.018   3.073  2.0106 -0.1694  0.2028
 3032TIP3   OH230510   5.964   6.215   3.791  0.2935  0.1600  0.6986
 3032TIP3    H130511   5.950   6.286   3.854  1.4728  0.9406  0.1113
 3032TIP3    H230512   5.979   6.138   3.846 -1.1904  0.2990  1.3451
 3033TIP3   OH230513   6.142   2.264   4.466  0.0276 -0.3818  0.4506
 3033TIP3    H130514   6.158   2.332   4.531 -1.0855 -0.6041  0.9751
 3033TIP3    H230515   6.229   2.237   4.438  0.4946  0.8840  0.6199
 3034TIP3   OH230516   0.969   4.127  12.758 -0.0359 -0.3941  0.2492
 3034TIP3    H130517   0.964   4.104  12.665 -2.6142  0.1969  0.1854
 3034TIP3    H230518   0.885   4.101  12.794  0.0864  1.3777  1.9658
 3035TIP3   OH230519   5.468   6.113   5.914 -0.0249 -0.0028  0.0614
 3035TIP3    H130520   5.516   6.193   5.891  0.7070 -0.8708 -1.6621
 3035TIP3    H230521   5.536   6.045   5.916 -0.5559 -0.5120  2.0288
 3036TIP3   OH230522   5.211   0.484   1.940  0.3971 -0.4586 -0.3745
 3036TIP3    H130523   5.264   0.562   1.960  0.7582 -0.8447  0.1888
 3036TIP3    H230524   5.170   0.504   1.855  2.3447 -0.6238 -1.3972
 3037TIP3   OH230525   1.187   5.402  15.592 -0.1092 -0.4606 -0.0162
 3037TIP3    H130526   1.164   5.434  15.679 -0.4648 -1.7222  0.3649
 3037TIP3    H230527   1.282   5.405  15.590 -0.0699 -1.0626  0.6679
 3038TIP3   OH230528   1.909   4.015   5.086 -0.0052 -0.0049  0.5055
 3038TIP3    H130529   1.842   4.079   5.064 -0.6478 -0.6377  0.5698
 3038TIP3    H230530   1.953   3.996   5.003 -1.6288 -1.4974 -0.0774
 3039TIP3   OH230531   5.511   6.553  13.676  0.4477 -0.3358 -0.5740
 3039TIP3    H130532   5.449   6.608  13.627  0.5771  0.5267  0.1933
 3039TIP3    H230533   5.597   6.576  13.641  0.6450  1.0327  0.6796
 3040TIP3   OH230534   3.064   5.098   0.757 -0.1668  0.5987  0.1762
 3040TIP3    H130535   3.062   5.109   0.662 -0.5532 -1.0092 -0.0215
 3040TIP3    H230536   2.997   5.158   0.789 -1.0113  0.1329 -0.6811
 3041TIP3   OH230537   2.499   5.317   3.078  0.0013  0.1185 -0.0656
 3041TIP3    H130538   2.448   5.379   3.026 -0.4736  1.1750  1.5877
 3041TIP3    H230539   2.436   5.249   3.103 -0.0415  0.2042  0.0608
 3042TIP3   OH230540   2.940   2.639  15.589  0.0878  0.0378 -0.5784
 3042TIP3    H130541   2.851   2.674  15.594  0.4332  0.8170  0.3899
 3042TIP3    H230542   2.928   2.545  15.573 -0.8737  0.3587 -1.8647
 3043TIP3   OH230543   2.450   4.775  13.044 -0.3094  0.7557 -0.0809
 3043TIP3    H130544   2.422   4.693  13.086  2.7063 -0.1240  0.4364
 3043TIP3    H230545   2.480   4.747  12.957 -0.8430  1.6164 -0.5527
 3044TIP3   OH230546   2.316   2.846   4.911 -0.4612 -0.3899  0.6386
 3044TIP3    H130547   2.337   2.897   4.832 -0.0464 -0.0292  0.9746
 3044TIP3    H230548   2.375   2.770   4.906  0.6772  0.4068  1.3643
 3045TIP3   OH230549   0.760   6.518  10.139  0.9796 -0.2706 -0.0895
 3045TIP3    H130550   0.819   6.591  10.157  0.0759  0.2645  0.8490
 3045TIP3    H230551   0.720   6.498  10.223  1.5855 -2.2191 -0.2201
 3046TIP3   OH230552   4.555   4.728  11.440 -0.2912 -0.1350  0.2080
 3046TIP3    H130553   4.550   4.651  11.383 -1.7626  0.2047 -0.1560
 3046TIP3    H230554   4.479   4.781  11.416  1.0405  1.7731 -0.0185
 3047TIP3   OH230555   6.546   1.706   2.954 -0.1981 -0.4547 -0.3034
 3047TIP3    H130556   6.478   1.750   3.005  0.0217  0.2788 -0.6296
 3047TIP3    H230557   6.624   1.711   3.010  0.3829  1.5144 -1.2104
 3048TIP3   OH230558   1.834   4.802   1.162  0.3169  0.4499 -0.2732
 3048TIP3    H130559   1.761   4.799   1.100 -0.0333  1.0201  0.1000
 3048TIP3    H230560   1.799   4.764   1.242  1.1169 -1.3677 -0.7405
 3049TIP3   OH230561   2.691   0.505   1.797 -0.3418  0.1897  0.2883
 3049TIP3    H130562   2.745   0.452   1.856  1.3979  2.1049  0.5160
 3049TIP3    H230563   2.602   0.497   1.833  0.2396 -0.7461  1.6214
 3050TIP3   OH230564   3.043   5.807   3.575 -0.2579  0.0676  0.5814
 3050TIP3    H130565   2.996   5.773   3.498 -0.5222 -1.8758  1.5283
 3050TIP3    H230566   3.088   5.730   3.611  0.6499  1.1404  1.8057
 3051TIP3   OH230567   2.678   0.830   3.016 -0.2825 -0.2094 -0.3941
 3051TIP3    H130568   2.761   0.872   3.036 -0.1804 -0.7827  0.4381
 3051TIP3    H230569   2.667   0.765   3.085 -1.6138  0.1285 -0.2618
 3052TIP3   OH230570   5.597   6.216  12.478 -0.1937 -0.1474 -0.5687
 3052TIP3    H130571   5.568   6.236  12.388  2.2605  0.5243 -1.2953
 3052TIP3    H230572   5.687   6.248  12.481 -0.6118  1.0815  2.5906
 3053TIP3   OH230573   1.019   2.639  15.016  0.6728 -0.2855 -0.2418
 3053TIP3    H130574   1.090   2.658  14.955 -0.1851 -1.7491 -1.7724
 3053TIP3    H230575   1.063   2.614  15.097  1.8906 -0.3214 -0.8961
 3054TIP3   OH230576   3.244   5.572   2.789 -0.1149 -0.0489  0.0557
 3054TIP3    H130577   3.159   5.535   2.764  1.2626 -1.5507 -2.9556
 3054TIP3    H230578   3.290   5.499   2.831 -0.3332  0.8366  1.9286
 3055TIP3   OH230579   3.704   4.240  12.623 -0.0504  0.3872 -0.2749
 3055TIP3    H130580   3.657   4.222  12.541 -0.4501  0.6619 -0.1063
 3055TIP3    H230581   3.767   4.168  12.630 -2.4707 -1.7691  1.0299
 3056TIP3   OH230582   0.161   5.315   1.112  0.2246 -0.1943  0.2083
 3056TIP3    H130583   0.250   5.279   1.105  0.2082 -0.8695  2.5152
 3056TIP3    H230584   0.165   5.374   1.187 -0.8869  1.1570 -0.7399
 3057TIP3   OH230585   4.604   2.966  15.833  0.3046  0.1198  0.4544
 3057TIP3    H130586   4.509   2.959  15.827  0.3113  0.6501 -0.4157
 3057TIP3    H230587   4.637   2.906  15.765  0.6132 -0.5476  1.1802
 3058TIP3   OH230588   5.621   3.143   4.264 -0.2611  0.2077  0.3602
 3058TIP3    H130589   5.684   3.163   4.333 -1.4470  0.0991  1.5161
 3058TIP3    H230590   5.594   3.229   4.232  2.4604  0.2862 -2.1134
 3059TIP3   OH230591   1.111   5.687   3.614 -0.2816 -0.1274 -0.2884
 3059TIP3    H130592   1.068   5.754   3.561 -1.2435  0.3993  1.0905
 3059TIP3    H230593   1.039   5.637   3.653  0.4138 -1.5760 -0.7716
 3060TIP3   OH230594   3.924   4.665  11.911  0.1000 -0.2941  0.3844
 3060TIP3    H130595   3.985   4.595  11.934  0.6198  1.0133  3.4699
 3060TIP3    H230596   3.976   4.727  11.861  0.1944 -1.0551 -0.4887
 3061TIP3   OH230597   1.786   0.781   6.382  1.1025  0.6567 -0.3885
 3061TIP3    H130598   1.810   0.784   6.289  0.8811 -1.2978 -0.5617
 3061TIP3    H230599   1.867   0.806   6.427  1.4714  0.7906 -1.0939
 3062TIP3   OH230600   5.536   1.447  12.224 -0.6527 -0.0663 -0.5561
 3062TIP3    H130601   5.510   1.492  12.305 -0.6934  1.9440 -1.6058
 3062TIP3    H230602   5.572   1.364  12.254  0.7821  1.2262  1.6942
 3063TIP3   OH230603   4.311   3.042  16.456 -0.5677  1.0604 -0.0362
 3063TIP3    H130604   4.359   3.117  16.491  1.5583 -0.5382  0.7404
 3063TIP3    H230605   4.370   3.004  16.391 -2.3937  1.0812 -1.8085
 3064TIP3   OH230606   1.691   1.186   1.865  0.2607 -0.5299  0.1810
 3064TIP3    H130607   1.769   1.242   1.867 -0.7727  0.9850  0.9800
 3064TIP3    H230608   1.623   1.239   1.909 -1.0994 -1.9586 -0.1069
 3065TIP3   OH230609   5.337   0.096  15.175 -0.0864  0.0892  0.0454
 3065TIP3    H130610   5.388   0.020  15.144  0.0122  0.2879 -0.2895
 3065TIP3    H230611   5.248   0.080  15.144  0.2977  0.9982 -1.6834
 3066TIP3   OH230612   6.602   2.019   1.698 -0.1685 -0.4908  0.3855
 3066TIP3    H130613   6.524   2.075   1.700  0.2238  0.0468  1.1666
 3066TIP3    H230614   6.646   2.036   1.781  0.8399 -0.7154 -0.0875
 3067TIP3   OH230615   2.764   0.970   0.968  0.1939 -0.3923  0.2074
 3067TIP3    H130616   2.754   1.050   0.916  1.9109 -0.6277 -0.5738
 3067TIP3    H230617   2.814   0.998   1.044 -1.0309 -0.3434  1.0193
 3068TIP3   OH230618   5.498   0.190  16.390  0.9185 -0.5966 -0.6589
 3068TIP3    H130619   5.506   0.250  16.465 -1.0808 -0.2470 -0.6693
 3068TIP3    H230620   5.446   0.117  16.424 -0.7982 -0.0155 -1.8872
 3069TIP3   OH230621   4.469   6.611   2.685 -0.1517 -0.4862 -0.2842
 3069TIP3    H130622   4.428   6.639   2.602 -0.1762  4.0775  0.9929
 3069TIP3    H230623   4.397   6.573   2.735 -1.4654  1.5996 -0.4639
 3070TIP3   OH230624   2.024   0.227   1.681 -0.0559  0.1622  0.7747
 3070TIP3    H130625   1.988   0.314   1.698  0.2291  0.5729 -0.6437
 3070TIP3    H230626   1.981   0.198   1.601  0.8867 -0.4096  0.4631
 3071TIP3   OH230627   6.101   6.345   0.495  0.2358 -0.7292  0.4073
 3071TIP3    H130628   6.100   6.273   0.432  2.1895 -0.1544 -0.3326
 3071TIP3    H230629   6.139   6.307   0.574 -0.7826 -1.0501  0.7590
 3072TIP3   OH230630   5.446   0.084   0.881  0.3326 -0.2044 -0.2887
 3072TIP3    H130631   5.353   0.061   0.883  0.2999 -0.2420  2.5855
 3072TIP3    H230632   5.450   0.169   0.837 -1.3360  0.6224  1.0342
 3073TIP3   OH230633   2.757   6.229   1.130  0.1418  0.3002  0.2901
 3073TIP3    H130634   2.763   6.134   1.137  2.2359  0.4037  0.3241
 3073TIP3    H230635   2.761   6.260   1.220  1.1209  0.4852  0.1885
 3074TIP3   OH230636   0.387   4.743   5.195 -0.1120 -0.5998 -0.0757
 3074TIP3    H130637   0.303   4.783   5.172  0.1249  0.1977  0.4284
 3074TIP3    H230638   0.451   4.787   5.139  0.2903  0.4643  1.2012
 3075TIP3   OH230639   6.279   5.380   3.436 -0.0891  0.6479  0.7354
 3075TIP3    H130640   6.347   5.370   3.502 -0.1893  1.3479  0.9517
 3075TIP3    H230641   6.225   5.301   3.446  0.6683  0.0951  0.5669
 3076TIP3   OH230642   4.294   2.990  11.722  0.0815 -0.4681  0.2966
 3076TIP3    H130643   4.381   2.994  11.761  0.1401 -2.2946  0.4453
 3076TIP3    H230644   4.235   2.982  11.797 -0.0375 -1.2279  0.1262
 3077TIP3   OH230645   3.671   4.171  12.998 -0.1708 -0.3571  0.5439
 3077TIP3    H130646   3.663   4.252  13.047 -3.5272 -0.4798  0.3923
 3077TIP3    H230647   3.648   4.194  12.908  2.4176 -0.8571 -0.3577
 3078TIP3   OH230648   3.166   6.290   5.517  0.2758  0.1170  0.6914
 3078TIP3    H130649   3.248   6.328   5.486  0.3663 -0.2185  0.5088
 3078TIP3    H230650   3.098   6.339   5.473  0.4103 -1.6079 -1.6021
 3079TIP3   OH230651   6.069   6.016   5.329 -0.2983  0.7452 -0.2186
 3079TIP3    H130652   6.042   5.983   5.243  1.0796 -0.2743 -0.2933
 3079TIP3    H230653   6.093   6.108   5.313  0.5182  0.4007 -1.0678
 3080TIP3   OH230654   0.414   2.039   1.015  0.1296 -0.3661 -0.3133
 3080TIP3    H130655   0.502   2.039   0.977 -0.2709 -0.8299 -1.2728
 3080TIP3    H230656   0.361   2.087   0.952 -0.4508 -0.7119 -0.0987
 3081TIP3   OH230657   6.621   6.670   3.052 -0.1979  0.0017 -0.3158
 3081TIP3    H130658   6.711   6.640   3.039  0.2382  1.7666 -1.8133
 3081TIP3    H230659   6.629   6.744   3.113 -0.5038  0.6857 -1.0863
 3082TIP3   OH230660   0.604   3.155  10.969 -0.2141 -0.3822  0.9973
 3082TIP3    H130661   0.540   3.087  10.949 -1.5142  1.5994 -2.3456
 3082TIP3    H230662   0.685   3.123  10.930 -0.6699 -0.3043 -0.0397
 3083TIP3   OH230663   3.120   3.543   4.171 -0.6057 -0.2663  0.2768
 3083TIP3    H130664   3.047   3.481   4.176 -0.5594 -0.5976 -2.1968
 3083TIP3    H230665   3.086   3.623   4.212 -1.5765 -1.0872  1.1452
 3084TIP3   OH230666   4.471   6.395   3.808 -0.4265 -0.1066  0.4006
 3084TIP3    H130667   4.564   6.383   3.788 -0.6848  0.9030 -1.7625
 3084TIP3    H230668   4.432   6.308   3.793 -0.0139 -0.2435  0.0935
 3085TIP3   OH230669   1.755   3.219   2.699  0.7396  0.0594 -0.6037
 3085TIP3    H130670   1.737   3.261   2.784  1.0828  0.4680 -0.7285
 3085TIP3    H230671   1.749   3.291   2.636  1.7314  0.0031 -0.7744
 3086TIP3   OH230672   2.965   3.331   3.060 -0.2159  0.6340  0.1772
 3086TIP3    H130673   3.054   3.364   3.073  0.4855 -0.6913 -0.9153
 3086TIP3    H230674   2.972   3.273   2.984 -2.1087  0.8112 -0.1861
 3087TIP3   OH230675   0.212   5.304  12.875  0.4049  0.4390 -0.4316
 3087TIP3    H130676   0.123   5.325  12.905  0.8421  1.1206  0.4488
 3087TIP3    H230677   0.252   5.258  12.949  1.5711  2.3166  0.1990
 3088TIP3   OH230678   5.226   5.270   0.002  0.5080 -0.4234 -0.0691
 3088TIP3    H130679   5.179   5.242   0.080 -0.2075 -2.1885 -1.0813
 3088TIP3    H230680   5.159   5.276  -0.066  0.9660  1.8744 -0.4240
 3089TIP3   OH230681   5.964   1.282   1.237  0.2018 -0.0998 -0.0639
 3089TIP3    H130682   6.037   1.321   1.286  2.7804 -1.6516 -2.3252
 3089TIP3    H230683   5.936   1.208   1.291  0.2239  0.5628  0.8777
 3090TIP3   OH230684   4.583   3.978  11.779 -0.0891 -0.1418 -0.0001
 3090TIP3    H130685   4.573   3.893  11.822 -1.0447  0.4900  1.0860
 3090TIP3    H230686   4.602   3.957  11.687  0.4709 -1.5188  0.4171
 3091TIP3   OH230687   1.357   4.736  16.728  0.1538 -0.3400  0.0502
 3091TIP3    H130688   1.432   4.772  16.775  0.6183 -0.8161 -0.3263
 3091TIP3    H230689   1.368   4.766  16.638  1.9787 -3.4742 -0.9326
 3092TIP3   OH230690   4.486   0.766   5.349  0.4790 -0.9529  0.5343
 3092TIP3    H130691   4.469   0.812   5.432  1.1998 -0.8072  0.6048
 3092TIP3    H230692   4.404   0.777   5.299  0.5372  0.1950  0.6519
 3093TIP3   OH230693   4.123   6.266   3.672  0.7116  0.2672  0.0910
 3093TIP3    H130694   4.090   6.227   3.591  0.4721  0.2111  0.2132
 3093TIP3    H230695   4.051   6.322   3.702  1.6226  2.0381 -0.9066
 3094TIP3   OH230696   5.530   1.881   3.308  0.7666  0.4688 -0.1389
 3094TIP3    H130697   5.481   1.806   3.275 -0.3786  1.4070 -0.6370
 3094TIP3    H230698   5.618   1.847   3.326 -0.2385 -1.4794  1.5652
 3095TIP3   OH230699   5.909   5.123   0.964 -0.0282  0.0693 -0.0423
 3095TIP3    H130700   5.861   5.100   1.044  1.0328  0.4933  0.7329
 3095TIP3    H230701   5.948   5.209   0.983  1.4273 -0.4736 -0.4712
 3096TIP3   OH230702   2.367   2.959  16.230  0.0732 -0.1629  0.1719
 3096TIP3    H130703   2.290   3.003  16.268  1.3375  1.6245  0.8329
 3096TIP3    H230704   2.389   3.012  16.154  0.9877 -0.2985  0.3360
 3097TIP3   OH230705   5.816   4.663  16.983 -0.1775  0.3097  0.2707
 3097TIP3    H130706   5.826   4.639  17.075 -1.3536  1.0496  0.6108
 3097TIP3    H230707   5.722   4.678  16.972  0.3353  5.1372  0.2480
 3098TIP3   OH230708   4.165   4.846  11.532  0.1278 -0.0498  0.4551
 3098TIP3    H130709   4.249   4.892  11.534  0.3340 -0.4329  2.0089
 3098TIP3    H230710   4.188   4.753  11.533 -0.2630 -0.3594 -3.5960
 3099TIP3   OH230711   2.972   4.073   3.023  0.0646  0.1096 -0.1705
 3099TIP3    H130712   3.050   4.112   2.984  1.3785 -2.4170 -0.2399
 3099TIP3    H230713   2.948   4.133   3.093  1.7288  1.2360 -0.5098
 3100TIP3   OH230714   5.077   0.135   5.929  0.7673 -0.1799  0.2041
 3100TIP3    H130715   5.029   0.077   5.988  0.2564 -1.8870 -1.7523
 3100TIP3    H230716   5.134   0.186   5.986  0.2992 -1.7313  2.1649
 3101TIP3   OH230717   3.182   5.952  15.396  0.2811 -0.3482  0.1859
 3101TIP3    H130718   3.112   5.905  15.352  0.8207 -0.5480 -0.4746
 3101TIP3    H230719   3.257   5.893  15.392  0.3758 -0.3073  1.2562
 3102TIP3   OH230720   0.103   5.511  11.140 -0.0551 -0.2931  0.2592
 3102TIP3    H130721   0.094   5.448  11.069 -0.6933  1.1510 -0.9824
 3102TIP3    H230722   0.140   5.459  11.213 -2.9043 -2.6875  0.1832
 3103TIP3   OH230723   4.464   1.447  16.990  0.3466  0.5576 -0.2181
 3103TIP3    H130724   4.530   1.503  16.950 -0.1523  2.0480  0.9645
 3103TIP3    H230725   4.380   1.486  16.965 -0.0640 -0.5431 -0.6111
 3104TIP3   OH230726   2.994   2.328   3.917 -0.2875 -0.0981 -0.4656
 3104TIP3    H130727   3.069   2.359   3.866 -0.0023 -1.2356 -0.7737
 3104TIP3    H230728   2.979   2.396   3.983  0.2403  0.7145 -1.1755
 3105TIP3   OH230729   1.283   6.497  11.018 -0.5215 -0.6039 -0.3389
 3105TIP3    H130730   1.265   6.530  11.106  0.9798  0.3438 -0.3622
 3105TIP3    H230731   1.377   6.481  11.017 -0.6437 -1.3836 -1.5373
 3106TIP3   OH230732   2.903   5.290   5.015 -0.4954 -0.6805 -0.6493
 3106TIP3    H130733   2.939   5.350   5.081 -0.3220 -1.5365  0.0574
 3106TIP3    H230734   2.909   5.204   5.056  0.8128 -1.4138 -2.2733
 3107TIP3   OH230735   1.976   2.602  13.866  0.4889  0.1726  0.1359
 3107TIP3    H130736   2.042   2.614  13.798  0.3805 -0.6147 -0.1162
 3107TIP3    H230737   1.926   2.684  13.865  0.2320  0.0230 -1.0194
 3108TIP3   OH230738   2.298   5.803  12.456 -0.1302  0.4111 -0.3018
 3108TIP3    H130739   2.381   5.759  12.439 -0.1426  0.8955 -1.7725
 3108TIP3    H230740   2.298   5.820  12.550  0.6719 -1.0970  0.0073
 3109TIP3   OH230741   0.146   2.239  14.203  0.1542 -0.0483  0.0889
 3109TIP3    H130742   0.202   2.214  14.277 -0.5000 -0.7466  0.3687
 3109TIP3    H230743   0.141   2.159  14.149 -2.2384 -0.7224  1.1558
 3110TIP3   OH230744   1.924   2.831   3.816  0.1648 -0.7982  0.5647
 3110TIP3    H130745   1.857   2.786   3.765 -0.6079  1.4485 -0.5545
 3110TIP3    H230746   1.976   2.879   3.751 -0.1455  1.2501  1.7351
 3111TIP3   OH230747   4.800   2.221   0.178 -0.3317 -0.7270 -0.1008
 3111TIP3    H130748   4.807   2.247   0.086 -1.6272 -0.5244 -0.1609
 3111TIP3    H230749   4.832   2.131   0.180 -1.4708 -1.1783 -0.9969
 3112TIP3   OH230750   5.969   4.219  13.023  0.2591  0.2538  0.5858
 3112TIP3    H130751   6.041   4.211  13.086 -2.3860 -1.3084  3.6996
 3112TIP3    H230752   5.959   4.131  12.987  0.1816  0.5808 -0.2213
 3113TIP3   OH230753   5.439   4.416   5.509  0.3928  0.0536 -0.0844
 3113TIP3    H130754   5.414   4.410   5.417 -0.2657  3.2569 -0.2485
 3113TIP3    H230755   5.381   4.354   5.554  0.2219 -1.0260 -1.7365
 3114TIP3   OH230756   1.093   2.333  16.106  0.3663  0.6522 -0.1142
 3114TIP3    H130757   1.136   2.302  16.186  0.9698 -0.2052 -0.7596
 3114TIP3    H230758   1.105   2.263  16.043  0.8260  1.7407 -1.2898
 3115TIP3   OH230759   4.838   2.681   2.524 -0.6685  0.6303  0.1833
 3115TIP3    H130760   4.848   2.605   2.467  0.4227  0.4685  0.5777
 3115TIP3    H230761   4.762   2.660   2.579  0.4561 -0.8150  1.2559
 3116TIP3   OH230762   3.812   0.838  16.553  0.0630  0.1168 -0.2211
 3116TIP3    H130763   3.767   0.922  16.563 -0.1208  0.1489 -1.1597
 3116TIP3    H230764   3.904   0.861  16.537  0.0476  0.1377 -0.2815
 3117TIP3   OH230765   2.565   4.135  12.873 -0.6133 -0.4702  0.8325
 3117TIP3    H130766   2.616   4.058  12.849 -0.4680 -0.4809  1.1693
 3117TIP3    H230767   2.585   4.150  12.965  0.1721  0.5898  0.5104
 3118TIP3   OH230768   4.939   2.754   3.312  0.2244 -0.6094  0.8050
 3118TIP3    H130769   5.017   2.782   3.264  1.1850  0.0595  2.6714
 3118TIP3    H230770   4.957   2.777   3.403 -1.2630 -2.3875  1.6155
 3119TIP3   OH230771   2.492   5.970  11.510  0.5131 -0.1154 -0.3120
 3119TIP3    H130772   2.455   6.018  11.436  1.2514  0.0309 -0.5963
 3119TIP3    H230773   2.432   5.897  11.523 -0.5297  0.7697  0.0131
 3120TIP3   OH230774   6.244   5.917   1.036  0.3773  0.3741 -0.0328
 3120TIP3    H130775   6.183   5.874   1.096  1.9527 -0.2977  1.1495
 3120TIP3    H230776   6.232   5.872   0.952 -0.7586  0.2903  0.1607
 3121TIP3   OH230777   3.810   1.314   5.169  0.4861  0.2835  0.6054
 3121TIP3    H130778   3.799   1.379   5.100 -0.1468  0.8497  1.2157
 3121TIP3    H230779   3.809   1.230   5.123  0.5382  0.6688 -0.1177
 3122TIP3   OH230780   3.969   4.965   0.814 -0.3566  0.1987  0.1862
 3122TIP3    H130781   3.911   4.896   0.848  0.6310  0.2489  2.0991
 3122TIP3    H230782   4.052   4.951   0.859  0.2072  1.9529 -0.2373
 3123TIP3   OH230783   6.048   0.216   1.041  0.1472  0.1357  0.1493
 3123TIP3    H130784   5.971   0.272   1.053  0.3079  0.0741  1.6624
 3123TIP3    H230785   6.053   0.202   0.947 -3.0458 -1.7011  0.1102
 3124TIP3   OH230786   3.202   5.885  16.520  0.3483 -0.1720  0.2184
 3124TIP3    H130787   3.125   5.917  16.567  1.0221  2.0309 -0.0355
 3124TIP3    H230788   3.268   5.871  16.588  0.5953  0.7499  0.1837
 3125TIP3   OH230789   5.899   1.633   0.038  0.5291 -0.2226 -0.2010
 3125TIP3    H130790   5.838   1.574  -0.005 -1.0411  1.3274 -0.2051
 3125TIP3    H230791   5.868   1.639   0.128  0.9056  0.2792 -0.0976
 3126TIP3   OH230792   2.696   0.606  12.100  0.7614  0.2478 -0.1989
 3126TIP3    H130793   2.690   0.701  12.096 -1.4996  0.1404 -0.6185
 3126TIP3    H230794   2.764   0.589  12.166 -0.9070  2.1807  2.1993
 3127TIP3   OH230795   0.680   3.051   1.765 -0.6242  0.2161 -0.2737
 3127TIP3    H130796   0.707   3.142   1.756  0.2147 -0.1617 -2.1014
 3127TIP3    H230797   0.622   3.035   1.691 -0.9972 -0.6604  0.1871
 3128TIP3   OH230798   3.966   5.860   6.524  0.1240 -0.3639  0.0606
 3128TIP3    H130799   3.904   5.907   6.580 -0.0573 -0.7581  0.1935
 3128TIP3    H230800   4.052   5.889   6.555  0.0049  0.4564 -0.3634
 3129TIP3   OH230801   4.716   3.010   5.961 -0.0223  0.3167  0.0012
 3129TIP3    H130802   4.767   3.065   6.021 -0.5621  1.9590 -0.9772
 3129TIP3    H230803   4.625   3.034   5.978 -0.5082 -2.1212  1.2809
 3130TIP3   OH230804   3.997   5.026   4.557  0.1369  0.2668 -0.3874
 3130TIP3    H130805   4.052   5.066   4.489  1.1960 -1.2051 -0.4317
 3130TIP3    H230806   4.055   4.966   4.602 -0.9113  0.2371  0.9761
 3131TIP3   OH230807   0.832   5.463   2.253  0.2091 -0.2459 -0.1414
 3131TIP3    H130808   0.859   5.437   2.165  0.1118  2.2351 -0.9798
 3131TIP3    H230809   0.740   5.436   2.258  0.5985 -1.6827 -0.2190
 3132TIP3   OH230810   1.531   4.882   3.731 -0.2936  0.0556  0.1999
 3132TIP3    H130811   1.502   4.853   3.644  0.1273  0.8623 -0.2291
 3132TIP3    H230812   1.499   4.815   3.791 -0.4191 -0.6224 -0.6028
 3133TIP3   OH230813   2.436   0.242   6.049 -0.6536  0.0801  0.9953
 3133TIP3    H130814   2.435   0.310   6.116  2.7931 -0.6326  1.9647
 3133TIP3    H230815   2.383   0.171   6.085 -0.8784  0.6587  1.8252
 3134TIP3   OH230816   2.513   2.045  12.699 -0.2017 -0.3141  0.0710
 3134TIP3    H130817   2.493   1.954  12.674  0.0035 -0.4021  0.2205
 3134TIP3    H230818   2.608   2.046  12.709 -0.1976 -0.0647  0.0078
 3135TIP3   OH230819   4.711   2.250   4.925  0.1362 -0.1981  0.3355
 3135TIP3    H130820   4.736   2.211   5.009  0.7579 -2.3036 -0.7346
 3135TIP3    H230821   4.794   2.259   4.878 -0.3649 -0.7960 -0.7124
 3136TIP3   OH230822   2.829   5.021   5.052  0.3235  0.3823 -0.3191
 3136TIP3    H130823   2.734   5.033   5.047  0.0982 -1.4839 -2.2035
 3136TIP3    H230824   2.845   4.991   5.142 -1.0356 -0.2447 -0.2601
 3137TIP3   OH230825   1.189   3.865  15.299 -0.0618 -0.2444 -1.4895
 3137TIP3    H130826   1.273   3.830  15.329  0.1056  0.7265 -0.7704
 3137TIP3    H230827   1.127   3.845  15.370 -0.2560 -0.2501 -1.6583
 3138TIP3   OH230828   1.332   3.002   0.389  0.0260  0.3236 -0.3223
 3138TIP3    H130829   1.263   3.035   0.333  0.1678  1.7834  0.3022
 3138TIP3    H230830   1.412   3.014   0.338 -0.1933 -2.0639 -1.3464
 3139TIP3   OH230831   4.542   4.148   1.907 -0.1432  0.1733  0.2809
 3139TIP3    H130832   4.461   4.107   1.879  0.1699 -0.4259  0.2317
 3139TIP3    H230833   4.603   4.134   1.835  0.1519  0.1797  0.5245
 3140TIP3   OH230834   0.280   3.153   3.792 -0.2374  0.1131  0.0741
 3140TIP3    H130835   0.318   3.065   3.787  0.7890  0.4038  1.9474
 3140TIP3    H230836   0.279   3.184   3.701 -2.4044 -2.5093 -0.9421
 3141TIP3   OH230837   2.035   0.333  15.451 -0.7339 -0.3765 -0.2628
 3141TIP3    H130838   1.976   0.329  15.526 -0.1351  0.3657  0.2653
 3141TIP3    H230839   1.996   0.274  15.386 -1.7700 -0.2900  0.2649
 3142TIP3   OH230840   2.436   3.936  15.239  0.4009  0.3349 -0.2758
 3142TIP3    H130841   2.467   3.846  15.247 -1.1862 -0.0897  1.9253
 3142TIP3    H230842   2.491   3.974  15.171  1.6721 -2.0427 -0.6812
 3143TIP3   OH230843   2.747   5.743  17.069 -0.4209  0.4187  0.0706
 3143TIP3    H130844   2.833   5.784  17.071  0.5483 -1.4994  0.7606
 3143TIP3    H230845   2.730   5.718  17.160  0.3673 -3.1172 -0.5840
 3144TIP3   OH230846   2.469   1.703  11.412 -0.5614 -0.2843  0.3668
 3144TIP3    H130847   2.513   1.715  11.496  0.1810 -0.6524  0.0375
 3144TIP3    H230848   2.376   1.697  11.435 -0.3275 -0.8780  1.2146
 3145TIP3   OH230849   0.169   3.481  14.033  0.7888 -0.1087  0.3925
 3145TIP3    H130850   0.165   3.551  14.097  0.0548  0.3564 -0.1384
 3145TIP3    H230851   0.176   3.526  13.949 -0.4366 -0.6257 -0.0163
 3146TIP3   OH230852   2.046   3.143   2.558  0.3377 -0.6735 -0.5153
 3146TIP3    H130853   1.983   3.073   2.570 -1.9312  1.0492 -1.7007
 3146TIP3    H230854   2.013   3.215   2.612  1.0654  0.4052 -1.4513
 3147TIP3   OH230855   5.096   2.905  12.099  0.0092 -0.3672  0.2936
 3147TIP3    H130856   5.177   2.944  12.066  0.7749 -1.9047  0.2658
 3147TIP3    H230857   5.033   2.915  12.027  0.5431 -0.2689 -0.1661
 3148TIP3   OH230858   2.363   4.072   5.827 -0.4757 -0.7017  0.2550
 3148TIP3    H130859   2.416   4.051   5.750 -0.5639  1.4734 -0.4543
 3148TIP3    H230860   2.422   4.061   5.901  0.3400 -0.4271 -0.3419
 3149TIP3   OH230861   5.108   4.276  13.590  0.4174  0.0817 -0.1183
 3149TIP3    H130862   5.032   4.224  13.564 -0.8551  1.7772 -0.0195
 3149TIP3    H230863   5.169   4.268  13.516 -0.2011 -0.6835 -0.5599
 3150TIP3   OH230864   5.089   3.487  10.386 -0.1289  0.3565  0.0072
 3150TIP3    H130865   5.173   3.441  10.378 -0.7015 -0.4326 -2.3148
 3150TIP3    H230866   5.096   3.559  10.323 -0.8974  0.7555  0.3687
 3151TIP3   OH230867   4.259   6.435   1.386  0.5066 -0.3526 -0.2296
 3151TIP3    H130868   4.286   6.446   1.477  2.1998 -2.8988 -0.3387
 3151TIP3    H230869   4.202   6.510   1.369 -0.4798 -0.1870  3.1131
 3152TIP3   OH230870   6.704   2.638   2.230  0.7245 -0.3725  0.1279
 3152TIP3    H130871   6.652   2.713   2.203 -0.7438 -0.7475  1.7194
 3152TIP3    H230872   6.640   2.569   2.246  1.7224 -0.9744  1.8024
 3153TIP3   OH230873   1.198   5.465  11.389 -0.7636 -0.3528  0.3603
 3153TIP3    H130874   1.133   5.530  11.362 -0.2658 -0.2180 -0.5369
 3153TIP3    H230875   1.234   5.500  11.471 -0.1477  0.7882 -0.3643
 3154TIP3   OH230876   6.437   6.289   0.163 -0.1030  0.2016 -0.0844
 3154TIP3    H130877   6.470   6.379   0.172  3.0208 -0.9844  1.5932
 3154TIP3    H230878   6.395   6.270   0.246 -1.9675  0.4455 -0.9079
 3155TIP3   OH230879   6.024   4.021  11.088  0.2351 -0.4426 -0.5494
 3155TIP3    H130880   6.060   4.059  11.167  0.5655  1.7514 -1.6683
 3155TIP3    H230881   6.100   3.989  11.039  0.2456  0.0628 -0.8739
 3156TIP3   OH230882   1.279   5.982  13.809  0.1852 -0.5067 -0.0355
 3156TIP3    H130883   1.204   5.931  13.840  0.1677 -1.2518 -1.2071
 3156TIP3    H230884   1.246   6.027  13.731  0.8069 -0.4214 -0.2564
 3157TIP3   OH230885   3.655   1.087  12.993  0.5512 -0.6582 -0.4266
 3157TIP3    H130886   3.697   1.088  13.079 -0.1976 -0.4399 -0.0553
 3157TIP3    H230887   3.683   1.004  12.954  0.4722 -1.0064  0.2430
 3158TIP3   OH230888   5.118   6.720   0.845 -0.3087 -0.4254  0.3321
 3158TIP3    H130889   5.100   6.809   0.814  0.6595 -0.7181 -1.1507
 3158TIP3    H230890   5.080   6.663   0.778  1.8750 -1.0670 -0.4351
 3159TIP3   OH230891   5.328   5.156  11.188 -0.5043 -0.0592  0.7798
 3159TIP3    H130892   5.245   5.143  11.233  0.8584 -0.0414  3.5327
 3159TIP3    H230893   5.355   5.069  11.161 -1.3073 -0.0849  0.0330
 3160TIP3   OH230894   0.169   2.421   3.480 -0.3498 -0.1726  0.2975
 3160TIP3    H130895   0.241   2.358   3.469 -0.8461 -0.4625 -1.9657
 3160TIP3    H230896   0.102   2.372   3.528  0.3189 -0.4666  0.9413
 3161TIP3   OH230897   0.432   1.934  15.612 -0.1170  0.1288  0.2679
 3161TIP3    H130898   0.400   2.019  15.642 -1.5063 -0.2782  0.0008
 3161TIP3    H230899   0.464   1.951  15.523  0.6976  0.5999  0.6430
 3162TIP3   OH230900   4.504   0.505  11.381  0.3646 -0.2546  0.4157
 3162TIP3    H130901   4.550   0.421  11.377 -1.3877 -1.2413 -0.1258
 3162TIP3    H230902   4.561   0.566  11.334  0.8359 -1.5866 -0.8305
 3163TIP3   OH230903   5.703   3.428  11.357  0.6169  0.7287  0.2248
 3163TIP3    H130904   5.797   3.444  11.346  0.5351  1.7305  0.8407
 3163TIP3    H230905   5.664   3.464  11.278  0.8150 -0.6751 -0.5558
 3164TIP3   OH230906   0.235   3.711  16.150  0.0109 -0.0402 -0.4445
 3164TIP3    H130907   0.167   3.738  16.211  0.6184  2.6268 -0.8018
 3164TIP3    H230908   0.301   3.669  16.205  0.1849  1.5976  0.6826
 3165TIP3   OH230909   1.015   1.481  14.029 -0.2382 -0.2698  0.2416
 3165TIP3    H130910   0.974   1.437  13.955 -2.1333  3.1807 -1.0216
 3165TIP3    H230911   1.109   1.476  14.011 -0.6277  0.1030 -2.2179
 3166TIP3   OH230912   1.231   2.529  12.668  0.2391 -0.0207 -0.4803
 3166TIP3    H130913   1.215   2.544  12.574  0.2694 -1.1121 -0.6644
 3166TIP3    H230914   1.224   2.435  12.679  2.0031 -0.0930  0.2871
 3167TIP3   OH230915   5.384   4.408  17.238 -0.0771  0.3405  0.2807
 3167TIP3    H130916   5.356   4.418  17.147  1.2020 -2.4636 -0.5625
 3167TIP3    H230917   5.307   4.429  17.290 -1.7074 -0.6094 -1.6107
 3168TIP3   OH230918   1.891   6.096   0.960  0.5537  0.1269  0.1155
 3168TIP3    H130919   1.828   6.083   1.030 -0.9803  0.2253 -1.2019
 3168TIP3    H230920   1.929   6.009   0.946  0.6643  0.0476  0.8498
 3169TIP3   OH230921   3.086   5.207   5.561  0.2644 -0.0264  0.8479
 3169TIP3    H130922   3.149   5.204   5.490  0.8339 -0.2044  1.3497
 3169TIP3    H230923   3.037   5.124   5.554 -1.8260  1.2607 -1.2114
 3170TIP3   OH230924   3.026   2.851   3.252  0.4715  0.4871  0.4258
 3170TIP3    H130925   3.046   2.909   3.177 -0.7361  0.4455  0.0447
 3170TIP3    H230926   2.976   2.779   3.213  0.5805  0.0157  1.1539
 3171TIP3   OH230927   4.903   6.712   3.532 -0.4027 -0.3908  0.1378
 3171TIP3    H130928   4.926   6.625   3.564  2.2740  0.0878 -0.2751
 3171TIP3    H230929   4.901   6.702   3.437 -3.2236 -0.6254  0.1254
 3172TIP3   OH230930   6.498   5.908   4.147 -0.4354 -0.1947  0.3185
 3172TIP3    H130931   6.430   5.973   4.168 -2.1199 -1.4143 -1.0424
 3172TIP3    H230932   6.513   5.861   4.229 -1.5516 -0.1605  0.5598
 3173TIP3   OH230933   0.265   2.023   3.193 -0.3096 -0.0775 -0.3620
 3173TIP3    H130934   0.321   2.040   3.118 -1.0062 -0.0048 -0.8807
 3173TIP3    H230935   0.191   2.083   3.182 -0.4165 -0.0585  0.3885
 3174TIP3   OH230936   4.280   1.571  12.754  0.4135 -0.5930  0.2361
 3174TIP3    H130937   4.265   1.661  12.785  1.9529  0.0545 -0.7346
 3174TIP3    H230938   4.264   1.516  12.830  1.9154  0.7435  1.6133
 3175TIP3   OH230939   2.480   3.872   0.255 -0.5746 -0.7293 -0.3285
 3175TIP3    H130940   2.468   3.967   0.258 -1.7056 -0.8404 -0.6602
 3175TIP3    H230941   2.545   3.858   0.187  0.9902 -0.0940  0.9862
 3176TIP3   OH230942   2.797   6.306   3.814  0.2997  0.1712 -0.1039
 3176TIP3    H130943   2.849   6.228   3.833  1.0681  0.7683  0.2939
 3176TIP3    H230944   2.728   6.304   3.880 -1.1008 -1.4019 -1.5203
 3177TIP3   OH230945   0.204   6.607  15.864 -0.0494  0.4784  0.3482
 3177TIP3    H130946   0.131   6.667  15.851 -0.2141  1.1395  3.3683
 3177TIP3    H230947   0.267   6.658  15.915  2.0213 -0.4589 -1.1172
 3178TIP3   OH230948   6.297   3.244  13.760  0.4008 -0.3248 -0.6914
 3178TIP3    H130949   6.378   3.235  13.711 -0.0596 -0.7741 -1.3757
 3178TIP3    H230950   6.321   3.221  13.850  1.2140  0.3795 -0.7177
 3179TIP3   OH230951   5.719   0.779   1.890 -0.0523 -0.7277 -0.1954
 3179TIP3    H130952   5.686   0.833   1.962  1.1001  1.9977 -1.5213
 3179TIP3    H230953   5.775   0.839   1.841 -0.6168 -2.5014 -3.2302
 3180TIP3   OH230954   3.813   3.070  13.223  0.0366  0.6103  0.0550
 3180TIP3    H130955   3.815   2.976  13.207 -2.2028  0.2268  1.5634
 3180TIP3    H230956   3.905   3.094  13.234  0.6189 -1.5412  0.4153
 3181TIP3   OH230957   0.239   4.853  15.768 -0.1892 -0.0265  0.1698
 3181TIP3    H130958   0.281   4.859  15.854 -0.2134 -0.9214  0.2473
 3181TIP3    H230959   0.305   4.814  15.711  0.0793  1.2172 -0.4087
 3182TIP3   OH230960   1.816   4.467  15.944 -0.5248 -0.1684  0.1257
 3182TIP3    H130961   1.831   4.529  16.015 -1.2256  0.8906 -0.6240
 3182TIP3    H230962   1.894   4.411  15.944 -0.8787 -0.7456  2.2590
 3183TIP3   OH230963   2.707   3.154   0.048  0.3969  0.0314 -0.3880
 3183TIP3    H130964   2.774   3.160  -0.020  1.4013  1.4777  0.6803
 3183TIP3    H230965   2.697   3.059   0.062  0.4824 -0.2908 -2.1856
 3184TIP3   OH230966   0.137   2.794   2.359  0.5237 -0.0740  0.2077
 3184TIP3    H130967   0.063   2.742   2.327  0.7296 -0.5406  0.4712
 3184TIP3    H230968   0.133   2.876   2.309  0.3099 -0.4217 -0.3513
 3185TIP3   OH230969   4.202   1.140   4.721  0.0677  0.0192 -0.7389
 3185TIP3    H130970   4.272   1.196   4.755  1.6382 -1.7501 -0.8567
 3185TIP3    H230971   4.246   1.084   4.657 -1.3621 -1.5164 -0.4382
 3186TIP3   OH230972   4.834   3.995  10.583  0.2450  0.3894 -0.1951
 3186TIP3    H130973   4.927   3.977  10.601 -0.0157 -0.1222  0.7102
 3186TIP3    H230974   4.798   3.912  10.554  0.3604  0.9131 -1.9329
 3187TIP3   OH230975   5.521   6.147  16.875  0.5949  0.0180 -0.4742
 3187TIP3    H130976   5.547   6.055  16.883  0.2713  0.0046  0.6917
 3187TIP3    H230977   5.575   6.181  16.804  0.7965 -1.0471 -0.8521
 3188TIP3   OH230978   1.014   1.447  10.684  0.3846 -0.1950  0.0030
 3188TIP3    H130979   1.078   1.380  10.661  1.1534  0.4838  0.1321
 3188TIP3    H230980   0.960   1.406  10.752  1.2533 -0.4645  0.5464
 3189TIP3   OH230981   2.962   4.530   0.514 -0.0731 -0.0054  0.3614
 3189TIP3    H130982   2.960   4.604   0.454  0.3368  0.3587  0.7916
 3189TIP3    H230983   3.025   4.469   0.475  0.7086  0.5282  0.7542
 3190TIP3   OH230984   4.772   3.621  14.099  0.3061 -0.2312  0.2411
 3190TIP3    H130985   4.784   3.587  14.188 -1.6611  1.4383  1.2198
 3190TIP3    H230986   4.679   3.608  14.080  0.4614  0.4710 -1.1159
 3191TIP3   OH230987   3.726   4.676  14.989  0.3767 -0.0084 -0.6994
 3191TIP3    H130988   3.724   4.704  15.081 -0.8088 -1.1787 -0.3568
 3191TIP3    H230989   3.768   4.590  14.991  2.5657  0.9534 -1.5746
 3192TIP3   OH230990   6.106   5.934   2.170  0.0519  0.1208  0.5982
 3192TIP3    H130991   6.159   5.985   2.108 -0.6995  0.7372  0.4495
 3192TIP3    H230992   6.016   5.959   2.150 -0.1806  0.8108  2.3656
 3193TIP3   OH230993   2.876   2.693  15.936 -0.8740 -0.0950  0.1022
 3193TIP3    H130994   2.823   2.773  15.937 -2.7837 -1.2819  1.0229
 3193TIP3    H230995   2.885   2.671  15.844  1.8497  2.4245 -0.3912
 3194TIP3   OH230996   0.902   3.883   3.670  0.0512  0.1610 -0.0402
 3194TIP3    H130997   0.872   3.935   3.745  0.5928  0.9851 -0.3812
 3194TIP3    H230998   0.823   3.866   3.619 -0.2492 -0.0120  0.4718
 3195TIP3   OH230999   6.687   3.797  13.888  0.0563  0.0792 -0.0556
 3195TIP3    H131000   6.777   3.817  13.915  0.1916 -0.6149  0.0187
 3195TIP3    H231001   6.695   3.767  13.797 -0.1150  0.1212 -0.0851
 3196TIP3   OH231002   5.215   6.545   3.290  0.1157  0.1836 -0.0483
 3196TIP3    H131003   5.122   6.549   3.271  0.1550  1.0098 -0.0689
 3196TIP3    H231004   5.222   6.477   3.358 -0.6693  1.0477  0.9372
 3197TIP3   OH231005   1.851   4.129  12.813 -0.8787  0.3529 -0.7359
 3197TIP3    H131006   1.803   4.113  12.894  0.2111  0.3341 -0.0753
 3197TIP3    H231007   1.850   4.225  12.803 -0.4772  0.4040 -0.3450
 3198TIP3   OH231008   0.296   3.200  14.659  0.1917  0.7662  0.3367
 3198TIP3    H131009   0.387   3.177  14.643  0.3116 -0.6456  2.6341
 3198TIP3    H231010   0.297   3.295  14.671  1.3006  0.7953  0.0990
 3199TIP3   OH231011   3.688   3.815   3.805 -1.0528  0.2916  0.4092
 3199TIP3    H131012   3.632   3.781   3.735 -0.1541  0.5086 -0.4316
 3199TIP3    H231013   3.737   3.886   3.764 -0.6941  0.5910  1.3387
 3200TIP3   OH231014   4.423   2.228  14.341  0.1525 -0.1745  0.0540
 3200TIP3    H131015   4.335   2.192  14.334  0.0370  0.3890 -2.1628
 3200TIP3    H231016   4.479   2.152  14.361 -0.6482 -0.7523  0.1414
 3201TIP3   OH231017   3.420   5.833  14.683 -0.0655 -0.4049 -0.0888
 3201TIP3    H131018   3.490   5.897  14.699 -0.5459 -0.1173  0.9004
 3201TIP3    H231019   3.449   5.755  14.730 -0.1286 -0.4844 -0.1820
 3202TIP3   OH231020   0.870   1.636   4.423 -0.0987  0.1183 -0.2493
 3202TIP3    H131021   0.962   1.651   4.401 -0.1401 -0.8210 -1.1054
 3202TIP3    H231022   0.846   1.556   4.377 -1.8302  1.2647 -1.4787
 3203TIP3   OH231023   5.941   2.202  13.562 -0.2476  0.5823 -0.6318
 3203TIP3    H131024   5.908   2.285  13.596  1.1487  0.8431  0.1767
 3203TIP3    H231025   5.966   2.220  13.472 -0.5436  0.8657 -0.6585
 3204TIP3   OH231026   2.861   2.339   0.830  0.1440  0.0072 -0.0138
 3204TIP3    H131027   2.896   2.288   0.757  1.0466  0.1760  0.2883
 3204TIP3    H231028   2.918   2.417   0.834 -0.9611  0.8489 -0.2110
 3205TIP3   OH231029   1.590   5.228   2.976 -0.2167  0.0389  0.0468
 3205TIP3    H131030   1.603   5.162   2.908 -0.8884 -0.1458  0.0846
 3205TIP3    H231031   1.514   5.278   2.947  2.6566  3.6405 -2.1731
 3206TIP3   OH231032   5.139   4.357   1.073  0.4633 -0.0180  0.5386
 3206TIP3    H131033   5.048   4.379   1.052  0.8619  0.5433 -0.6969
 3206TIP3    H231034   5.133   4.289   1.140 -0.8428  1.3764  1.8976
 3207TIP3   OH231035   2.492   2.325   3.548  0.2795 -0.1974  0.3034
 3207TIP3    H131036   2.498   2.246   3.602  1.3545  0.0036  0.5001
 3207TIP3    H231037   2.581   2.341   3.519 -0.3743 -0.7773 -2.2486
 3208TIP3   OH231038   2.450   4.767   6.642 -0.2408  0.0008 -0.4194
 3208TIP3    H131039   2.487   4.772   6.731 -0.4149  0.0890 -0.3510
 3208TIP3    H231040   2.370   4.819   6.647  0.4296  1.1087 -0.9821
 3209TIP3   OH231041   1.263   5.867  16.151  0.4546 -0.2318 -0.3335
 3209TIP3    H131042   1.326   5.815  16.200  1.0794  0.9167  0.1248
 3209TIP3    H231043   1.196   5.804  16.123  1.4734 -1.3589 -0.3022
 3210TIP3   OH231044   4.683   1.832   5.973 -0.7077  0.2658  0.9715
 3210TIP3    H131045   4.706   1.776   5.899 -0.6655 -0.4588  1.5201
 3210TIP3    H231046   4.747   1.810   6.040 -1.6104 -0.1377  1.7292
 3211TIP3   OH231047   3.127   6.586   5.185 -0.4031  0.3209  0.1993
 3211TIP3    H131048   3.070   6.590   5.108 -0.5062  0.7125  0.2959
 3211TIP3    H231049   3.210   6.552   5.151 -0.6887 -0.2403  0.0575
 3212TIP3   OH231050   5.549   0.968  15.898  0.2536  0.1366  0.0883
 3212TIP3    H131051   5.559   1.062  15.884  2.3599 -0.0389  0.0159
 3212TIP3    H231052   5.638   0.937  15.918 -0.2663 -1.9265 -0.4928
 3213TIP3   OH231053   3.081   6.140   4.547  1.1920  0.2660 -0.2741
 3213TIP3    H131054   3.118   6.197   4.479 -0.6548 -1.5189 -3.0016
 3213TIP3    H231055   3.132   6.060   4.541  1.7428  0.4626  1.3364
 3214TIP3   OH231056   2.754   3.940  12.838  0.0486 -0.4466 -0.0419
 3214TIP3    H131057   2.803   3.924  12.919  1.3045  3.0150  0.0214
 3214TIP3    H231058   2.814   3.917  12.768  0.0398 -0.6353  0.0119
 3215TIP3   OH231059   1.589   2.243   3.412 -0.2634  0.2640  0.0363
 3215TIP3    H131060   1.668   2.279   3.452 -1.0024  1.8203  0.1884
 3215TIP3    H231061   1.570   2.303   3.339 -0.3589 -1.0783 -1.0941
 3216TIP3   OH231062   6.493   1.880  13.361 -0.0591 -0.1228  0.4532
 3216TIP3    H131063   6.468   1.960  13.316 -1.6262 -1.7718 -1.8327
 3216TIP3    H231064   6.581   1.861  13.330 -0.0708  0.1966  0.2253
 3217TIP3   OH231065   2.290   5.587   2.555  0.1246 -0.4119 -0.2930
 3217TIP3    H131066   2.261   5.612   2.467  1.1758 -0.3216 -0.6259
 3217TIP3    H231067   2.336   5.504   2.542 -1.5505 -1.5300  0.5033
 3218TIP3   OH231068   2.993   1.379  11.400 -0.2204  0.1401  0.4916
 3218TIP3    H131069   3.047   1.456  11.379 -0.1252  0.1128  0.6344
 3218TIP3    H231070   2.903   1.411  11.397 -0.2185  0.1063 -0.0966
 3219TIP3   OH231071   5.734   5.006  16.552 -0.6483  0.7587  0.6735
 3219TIP3    H131072   5.668   4.968  16.494 -1.5505  1.1502  1.4117
 3219TIP3    H231073   5.699   4.990  16.640  1.0185 -0.4396  1.1643
 3220TIP3   OH231074   4.384   2.711  14.074 -0.2473 -0.4700  0.2559
 3220TIP3    H131075   4.469   2.704  14.030 -0.0508  0.9244  0.3741
 3220TIP3    H231076   4.322   2.672  14.013  0.5231 -1.9616  0.3766
 3221TIP3   OH231077   2.252   5.618  13.239  0.1933  0.1309 -0.3609
 3221TIP3    H131078   2.311   5.689  13.264  0.6662  0.3137 -1.8871
 3221TIP3    H231079   2.284   5.590  13.153 -0.8145 -1.0263 -0.3783
 3222TIP3   OH231080   2.369   6.559  14.875 -0.8142  0.5186 -0.1960
 3222TIP3    H131081   2.379   6.465  14.863 -0.6791  0.3068  1.4214
 3222TIP3    H231082   2.396   6.575  14.965  0.2903  2.2914 -0.8017
 3223TIP3   OH231083   4.051   6.334  13.144  0.8797 -0.3777 -0.2718
 3223TIP3    H131084   4.012   6.358  13.228 -1.1953 -1.4192 -0.8765
 3223TIP3    H231085   4.050   6.238  13.143 -0.5217 -0.3988 -2.0504
 3224TIP3   OH231086   0.668   1.870  13.336  0.8753  0.3747 -0.3836
 3224TIP3    H131087   0.742   1.910  13.382  0.8772  0.0687 -0.1221
 3224TIP3    H231088   0.701   1.786  13.305  1.6841  1.5948 -3.1551
 3225TIP3   OH231089   5.935   2.146  16.330 -0.0989 -0.1688  0.2768
 3225TIP3    H131090   5.848   2.175  16.305 -0.1541  0.0899  0.7778
 3225TIP3    H231091   5.991   2.171  16.256 -0.2918  0.4560  0.3428
 3226TIP3   OH231092   3.122   1.425   4.258  0.2768 -0.2713  0.0840
 3226TIP3    H131093   3.058   1.496   4.260  0.8729  0.3230 -0.9451
 3226TIP3    H231094   3.073   1.350   4.223  0.6105  0.7826 -2.9920
 3227TIP3   OH231095   6.138   3.980  13.343  0.4344 -0.1017  0.0563
 3227TIP3    H131096   6.150   4.002  13.435  0.1160 -0.3855  0.1695
 3227TIP3    H231097   6.043   3.976  13.332  0.4376  1.2442 -0.6014
 3228TIP3   OH231098   1.624   6.317  16.479  0.8580 -0.6119 -0.1658
 3228TIP3    H131099   1.571   6.264  16.420  1.5585 -1.2366 -0.2538
 3228TIP3    H231100   1.584   6.305  16.565  0.4453 -0.5147 -0.3408
 3229TIP3   OH231101   1.364   3.228   0.674 -0.3776 -0.4297  0.0649
 3229TIP3    H131102   1.460   3.220   0.677 -0.3474 -0.5285 -0.8733
 3229TIP3    H231103   1.343   3.225   0.581 -1.1173  1.6275  0.1195
 3230TIP3   OH231104   4.799   1.309   4.602 -0.1389  0.3234 -0.0842
 3230TIP3    H131105   4.737   1.309   4.675  0.3549 -0.2679  0.3459
 3230TIP3    H231106   4.749   1.276   4.528  0.4087 -3.2899  0.9617
 3231TIP3   OH231107   3.707   5.430  16.223 -0.5389 -0.7175 -0.0946
 3231TIP3    H131108   3.686   5.512  16.177  0.2098 -0.2261  0.4178
 3231TIP3    H231109   3.723   5.368  16.152  3.1161  0.6490 -0.6858
 3232TIP3   OH231110   0.356   6.028  14.948  0.2660 -0.1786 -0.3336
 3232TIP3    H131111   0.387   6.096  15.009 -0.1066  0.5054 -0.8881
 3232TIP3    H231112   0.436   5.991  14.912  0.5138  1.5831 -1.7595
 3233TIP3   OH231113   4.587   6.706   3.355  0.6095 -0.7858 -0.4039
 3233TIP3    H131114   4.564   6.680   3.266 -2.5100  0.4357 -0.0732
 3233TIP3    H231115   4.649   6.779   3.344 -0.5673  0.0673 -1.6518
 3234TIP3   OH231116   5.486   2.712  12.150  0.3358  0.0785  0.0534
 3234TIP3    H131117   5.516   2.637  12.100  0.0271 -0.3113  0.4497
 3234TIP3    H231118   5.505   2.787  12.093  1.8647 -0.1610  0.1908
 3235TIP3   OH231119   1.850   1.078   5.488 -0.4869  0.2303 -0.1323
 3235TIP3    H131120   1.802   1.014   5.541 -1.5976  0.6133 -0.6418
 3235TIP3    H231121   1.890   1.136   5.552  0.2693 -0.7766  0.3285
 3236TIP3   OH231122   2.355   1.880  15.020  0.3078  0.5759 -0.4508
 3236TIP3    H131123   2.264   1.905  15.004  0.4723  0.6499 -1.2875
 3236TIP3    H231124   2.365   1.887  15.115 -0.2428  1.6683 -0.4572
 3237TIP3   OH231125   3.775   4.776   0.853  0.2505  0.0806  0.0791
 3237TIP3    H131126   3.807   4.689   0.828 -1.2000 -0.7945  1.1150
 3237TIP3    H231127   3.680   4.769   0.849  0.1144  1.7277 -0.1038
 3238TIP3   OH231128   2.061   6.186  16.982 -0.2998 -0.2574  0.2928
 3238TIP3    H131129   2.023   6.235  16.909 -2.0231  1.6877  2.3182
 3238TIP3    H231130   2.003   6.110  16.992  0.6007 -1.1466 -0.9928
 3239TIP3   OH231131   6.027   1.371  12.146 -0.4788 -0.5270  0.4122
 3239TIP3    H131132   6.118   1.384  12.171 -0.0742 -0.6418 -0.9090
 3239TIP3    H231133   6.024   1.394  12.053 -1.7541 -0.7100  0.3896
 3240TIP3   OH231134   4.437   3.058   2.773  0.1221 -0.6410 -0.4645
 3240TIP3    H131135   4.383   2.995   2.822 -1.2713  1.3047  0.6609
 3240TIP3    H231136   4.518   3.063   2.823 -0.8329  0.4363  1.0861
 3241TIP3   OH231137   4.409   2.614   4.857 -0.2148  0.1629  0.0301
 3241TIP3    H131138   4.341   2.550   4.842  0.1637 -0.3544  0.4757
 3241TIP3    H231139   4.366   2.699   4.847 -0.6368 -0.1571 -0.9073
 3242TIP3   OH231140   6.394   6.273  16.774 -0.2063 -0.3591  0.5439
 3242TIP3    H131141   6.485   6.302  16.776 -0.0019 -0.4303 -2.4463
 3242TIP3    H231142   6.399   6.179  16.755 -0.8922 -0.3770  0.4097
 3243TIP3   OH231143   1.992   5.790   3.680  0.2895 -0.1142  0.4863
 3243TIP3    H131144   1.971   5.881   3.658  0.3203  0.0673  1.1786
 3243TIP3    H231145   2.041   5.796   3.762  2.2509 -0.5848 -0.5791
 3244TIP3   OH231146   5.918   6.480  14.807 -0.2837  0.0358 -0.4760
 3244TIP3    H131147   5.833   6.451  14.838 -1.4242  0.0111 -3.3126
 3244TIP3    H231148   5.965   6.400  14.784 -0.4532  0.1341 -1.1780
 3245TIP3   OH231149   4.173   1.300   0.843  0.0400  0.2759 -0.2252
 3245TIP3    H131150   4.109   1.358   0.802 -0.8282  0.6545  1.5771
 3245TIP3    H231151   4.171   1.221   0.789 -0.2320  1.1465 -1.5395
 3246TIP3   OH231152   1.531   1.304   1.466 -0.2198  0.8441 -0.2560
 3246TIP3    H131153   1.518   1.246   1.541  0.3488  1.8722  0.6641
 3246TIP3    H231154   1.539   1.245   1.391  0.2962 -0.2610  0.6436
 3247TIP3   OH231155   0.581   3.565   0.277 -0.7530  0.0883 -0.2674
 3247TIP3    H131156   0.531   3.490   0.245 -0.6393 -0.4891  0.8560
 3247TIP3    H231157   0.640   3.587   0.204  0.2333 -1.8312 -0.1369
 3248TIP3   OH231158   1.347   5.013   4.515 -0.7452 -0.7975 -0.4994
 3248TIP3    H131159   1.442   5.009   4.509 -0.4932 -1.2493  2.3730
 3248TIP3    H231160   1.318   4.923   4.504 -0.5853 -1.0610  1.0248
 3249TIP3   OH231161   1.207   1.146   2.001 -0.4524  0.4026 -0.0127
 3249TIP3    H131162   1.154   1.207   2.051  1.9044  1.1394  1.7206
 3249TIP3    H231163   1.207   1.066   2.053 -1.7075 -0.4199 -1.1866
 3250TIP3   OH231164   6.060   3.119   3.072 -0.3047  0.6624 -0.1861
 3250TIP3    H131165   5.978   3.133   3.026  0.1325  0.6941 -0.9766
 3250TIP3    H231166   6.120   3.086   3.005  0.2646  0.4304  0.4250
 3251TIP3   OH231167   1.091   3.482  13.854 -0.3210 -0.7437  0.0618
 3251TIP3    H131168   1.122   3.559  13.807 -2.2206 -0.1692 -0.3509
 3251TIP3    H231169   1.162   3.418  13.846  1.1496  0.8222  0.1223
 3252TIP3   OH231170   0.097   4.254  11.999  0.1819  0.3989  0.1636
 3252TIP3    H131171   0.074   4.167  11.967 -1.1915  1.1583 -1.0517
 3252TIP3    H231172   0.053   4.260  12.084  0.7446 -0.2908  0.5062
 3253TIP3   OH231173   3.761   0.498   5.282 -0.4973  0.4793 -0.2171
 3253TIP3    H131174   3.754   0.571   5.220  0.1476 -0.9792 -2.1163
 3253TIP3    H231175   3.717   0.425   5.238 -1.7657 -0.1387  1.9384
 3254TIP3   OH231176   2.935   2.848  16.425  0.6037 -0.6841 -0.1223
 3254TIP3    H131177   2.944   2.794  16.346  0.1355 -1.7300  0.5195
 3254TIP3    H231178   2.843   2.871  16.428  0.7227 -0.1905 -0.1606
 3255TIP3   OH231179   1.542   5.737   5.134  0.0732 -0.0571 -0.1930
 3255TIP3    H131180   1.619   5.737   5.191 -0.7372 -0.9712  0.9853
 3255TIP3    H231181   1.548   5.818   5.083  1.5956  0.0642  0.1526
 3256TIP3   OH231182   1.217   2.243   0.630  0.5080 -0.6872  0.1343
 3256TIP3    H131183   1.190   2.322   0.676  1.2094 -0.6747  0.5363
 3256TIP3    H231184   1.167   2.245   0.548 -1.3712 -1.1088  1.1947
 3257TIP3   OH231185   6.609   1.480   2.025 -0.0423  0.3395 -0.3522
 3257TIP3    H131186   6.537   1.484   1.961 -0.4115 -0.9604 -0.0483
 3257TIP3    H231187   6.676   1.538   1.988 -0.7417  0.6019 -1.2781
 3258TIP3   OH231188   4.330   1.802  13.951 -0.0472 -0.1841 -0.0573
 3258TIP3    H131189   4.328   1.882  13.899  1.1271 -0.9683 -1.3631
 3258TIP3    H231190   4.328   1.731  13.887  0.3039 -1.1950  1.0113
 3259TIP3   OH231191   4.273   4.739  14.435  0.3046  0.1125 -0.0621
 3259TIP3    H131192   4.328   4.727  14.358  0.6642 -0.8680  0.3308
 3259TIP3    H231193   4.186   4.759  14.399  0.5504  0.0445 -0.7102
 3260TIP3   OH231194   3.471   2.086  15.940  0.5915 -0.2314  0.1436
 3260TIP3    H131195   3.431   2.066  15.856 -0.0907 -1.7186  0.7862
 3260TIP3    H231196   3.400   2.125  15.991 -0.5141 -3.6982  1.5991
 3261TIP3   OH231197   1.777   1.206  11.450 -0.0206  0.8152 -0.7179
 3261TIP3    H131198   1.833   1.191  11.374 -0.1098  1.4871 -0.9186
 3261TIP3    H231199   1.832   1.255  11.511  0.7453 -1.4278  0.5309
 3262TIP3   OH231200   4.027   4.404  15.699 -0.5960  0.3940  0.1536
 3262TIP3    H131201   3.976   4.432  15.775  0.1976  1.3975  0.3364
 3262TIP3    H231202   4.008   4.470  15.631 -1.9617 -0.9456 -0.8418
 3263TIP3   OH231203   4.098   0.398  16.803  0.3178 -0.0051  0.2377
 3263TIP3    H131204   4.153   0.321  16.820  0.8234 -0.1989 -1.9880
 3263TIP3    H231205   4.160   0.468  16.783 -0.2087  0.3985  0.0096
 3264TIP3   OH231206   1.909   6.574  12.688  0.2891  0.4563  0.4859
 3264TIP3    H131207   1.926   6.522  12.767 -2.2244 -0.3087  0.6134
 3264TIP3    H231208   1.820   6.607  12.701  0.3714  1.5211 -1.3961
 3265TIP3   OH231209   1.963   3.381   5.833  0.0577  0.2457  0.0091
 3265TIP3    H131210   1.913   3.442   5.780  0.4037  0.5308  0.0078
 3265TIP3    H231211   1.914   3.374   5.915  0.3062  0.9456  0.2185
 3266TIP3   OH231212   6.485   1.017  12.837 -0.5397 -0.0007 -0.8990
 3266TIP3    H131213   6.493   0.962  12.915  0.8377  0.5354 -0.6478
 3266TIP3    H231214   6.427   1.088  12.864 -1.7659 -0.9084 -1.0197
 3267TIP3   OH231215   5.961   0.900   2.804 -0.2863  0.2995 -0.1080
 3267TIP3    H131216   5.893   0.911   2.870  0.9346  0.4045  1.1875
 3267TIP3    H231217   6.037   0.947   2.839 -0.3928  2.8327 -2.9315
 3268TIP3   OH231218   5.307   0.282  14.651 -0.1079 -0.0546 -0.1822
 3268TIP3    H131219   5.343   0.193  14.646  1.7055  0.6612 -1.3240
 3268TIP3    H231220   5.299   0.300  14.744 -1.5952 -1.7818  0.0779
 3269TIP3   OH231221   1.825   6.527   4.433 -0.1628  0.3428  0.0889
 3269TIP3    H131222   1.783   6.544   4.517 -0.5445  2.0260 -0.4004
 3269TIP3    H231223   1.832   6.432   4.428  1.2970  0.2400  2.6829
 3270TIP3   OH231224   5.100   0.139  13.902 -0.0894 -0.7128  0.4080
 3270TIP3    H131225   5.138   0.160  13.987  0.3628 -1.7062  0.4704
 3270TIP3    H231226   5.170   0.093  13.856 -0.6193 -0.9483 -0.1770
 3271TIP3   OH231227   3.202   1.308  15.800 -0.2400 -0.0752  0.0103
 3271TIP3    H131228   3.189   1.383  15.858 -1.2722  0.2368 -0.5922
 3271TIP3    H231229   3.134   1.318  15.732  1.2027 -0.1681 -1.5206
 3272TIP3   OH231230   0.962   6.018   3.688  0.9349 -0.0836  0.0360
 3272TIP3    H131231   0.908   5.971   3.752  0.4471  2.3041  1.5141
 3272TIP3    H231232   1.038   6.049   3.739  0.3930  2.1166 -0.3883
 3273TIP3   OH231233   5.894   2.141  17.130  0.1012 -0.2949 -0.0829
 3273TIP3    H131234   5.946   2.216  17.157 -0.5401 -0.1833  0.8823
 3273TIP3    H231235   5.946   2.100  17.060 -0.0335  1.6355 -1.3893
 3274TIP3   OH231236   0.631   6.280   2.809 -0.1108  0.1169  0.0782
 3274TIP3    H131237   0.577   6.350   2.773 -1.6742 -1.4541 -0.8086
 3274TIP3    H231238   0.573   6.204   2.812  0.5676 -0.4625  3.9304
 3275TIP3   OH231239   4.318   5.127  13.377 -0.6793 -0.1395 -0.3821
 3275TIP3    H131240   4.355   5.188  13.313  1.8298  2.2398  2.9163
 3275TIP3    H231241   4.362   5.044  13.360  1.6595  1.0269 -0.4568
 3276TIP3   OH231242   2.169   2.929   3.683  0.7165  0.8083 -0.3374
 3276TIP3    H131243   2.236   2.973   3.735 -1.1079  3.2158  0.1514
 3276TIP3    H231244   2.144   2.994   3.617  0.0572 -0.6816 -1.6239
 3277TIP3   OH231245   0.101   2.752   1.783 -0.2049 -0.3382  0.4119
 3277TIP3    H131246   0.120   2.837   1.823 -3.4593 -0.1642  1.9174
 3277TIP3    H231247   0.032   2.770   1.719  1.3230 -1.4441 -1.6907
 3278TIP3   OH231248   3.148   3.789  13.203  0.0220  0.5123  0.0398
 3278TIP3    H131249   3.188   3.874  13.187  1.3428 -0.3354 -1.4585
 3278TIP3    H231250   3.201   3.728  13.152 -1.0369 -1.1837  0.8856
 3279TIP3   OH231251   2.846   3.696  15.983 -0.1051 -0.6040  0.7527
 3279TIP3    H131252   2.859   3.710  16.077 -0.4176  0.1721  0.6884
 3279TIP3    H231253   2.760   3.735  15.964  0.7525  0.9322 -0.1869
 3280TIP3   OH231254   6.156   1.629   0.042 -0.3043 -0.0983  0.5568
 3280TIP3    H131255   6.067   1.625   0.006  0.0130  3.3162 -1.0451
 3280TIP3    H231256   6.145   1.676   0.125 -0.0279 -0.0080  0.5420
 3281TIP3   OH231257   3.184   3.419  15.136 -0.5092 -0.0030  0.1394
 3281TIP3    H131258   3.151   3.401  15.048 -0.5882  1.0616 -0.0641
 3281TIP3    H231259   3.106   3.436  15.188 -0.4907 -1.0813  0.5324
 3282TIP3   OH231260   1.356   4.102   4.706  0.3656  0.0773 -0.4792
 3282TIP3    H131261   1.378   4.178   4.760  1.8816 -0.3304 -0.4872
 3282TIP3    H231262   1.431   4.092   4.648  0.4064 -1.7130 -0.1561
 3283TIP3   OH231263   4.975   4.485  16.655  0.5180 -0.4193 -0.6308
 3283TIP3    H131264   5.025   4.474  16.735 -2.1314 -0.9693  1.0685
 3283TIP3    H231265   4.947   4.397  16.631 -1.0794  0.0218 -0.4977
 3284TIP3   OH231266   1.464   0.271  11.318  0.2090 -0.4373 -0.1719
 3284TIP3    H131267   1.418   0.308  11.394 -0.0652 -0.7310 -0.1948
 3284TIP3    H231268   1.526   0.340  11.293 -0.5468  0.1678 -0.4354
 3285TIP3   OH231269   0.816   6.012   0.681 -0.0378  0.1592 -0.8178
 3285TIP3    H131270   0.851   6.100   0.698  1.6939 -0.8541  1.2258
 3285TIP3    H231271   0.741   6.004   0.740  0.8884 -0.3297  0.3334
 3286TIP3   OH231272   3.265   6.442   4.017  0.0129  0.0736  0.7393
 3286TIP3    H131273   3.290   6.528   4.052 -1.8827  1.3635 -0.8866
 3286TIP3    H231274   3.185   6.458   3.968 -0.5442 -2.7079  0.5721
 3287TIP3   OH231275   4.308   1.126  14.947  0.1491  0.1523  0.3450
 3287TIP3    H131276   4.231   1.118  15.004 -0.6476 -1.9873 -0.9346
 3287TIP3    H231277   4.370   1.062  14.981 -0.2715 -1.0340 -1.0216
 3288TIP3   OH231278   0.386   0.721   1.433  0.5167  0.1059 -0.0770
 3288TIP3    H131279   0.294   0.706   1.411  0.5045  0.5856 -0.3770
 3288TIP3    H231280   0.397   0.681   1.520 -0.6601  2.3331  1.1815
 3289TIP3   OH231281   4.735   5.163   3.411 -0.7338 -0.3597  0.5173
 3289TIP3    H131282   4.737   5.237   3.350  2.9044  1.2026  2.1748
 3289TIP3    H231283   4.689   5.196   3.488  1.0167  0.3553  1.3139
 3290TIP3   OH231284   1.983   2.707  17.087  0.0292 -0.5468 -0.4832
 3290TIP3    H131285   1.898   2.692  17.045 -0.2492  0.9082 -0.5128
 3290TIP3    H231286   1.981   2.800  17.111  0.4257 -1.1781  2.2567
 3291TIP3   OH231287   3.705   5.099   2.917 -0.2733  0.5368  0.3915
 3291TIP3    H131288   3.741   5.035   2.856  0.9109  0.5128  1.0900
 3291TIP3    H231289   3.620   5.063   2.942  0.0985 -0.4523  0.2887
 3292TIP3   OH231290   1.194   5.622  12.748 -0.0988 -0.1146 -0.0891
 3292TIP3    H131291   1.159   5.697  12.698 -1.2043 -0.8453 -0.4541
 3292TIP3    H231292   1.271   5.594  12.698 -0.4069  0.0077 -0.6450
 3293TIP3   OH231293   0.552   3.990   3.338 -0.1577 -0.1608 -0.0798
 3293TIP3    H131294   0.513   3.919   3.287 -0.6845  0.0447  0.0311
 3293TIP3    H231295   0.533   4.069   3.287 -0.1487 -0.0245  0.1270
 3294TIP3   OH231296   6.241   0.458  11.398 -0.4019  0.1427 -0.0089
 3294TIP3    H131297   6.324   0.475  11.444  0.0728  0.9925 -1.1189
 3294TIP3    H231298   6.247   0.366  11.371  0.3201  0.2755 -0.3293
 3295TIP3   OH231299   6.293   5.850   0.190 -0.6623 -0.5660 -0.6379
 3295TIP3    H131300   6.330   5.775   0.236 -1.6264 -0.1454  0.9233
 3295TIP3    H231301   6.365   5.913   0.184 -0.1310 -1.2031 -1.0416
 3296TIP3   OH231302   3.203   3.869   2.155 -0.6342  0.6443 -0.7046
 3296TIP3    H131303   3.185   3.774   2.158  0.6664  0.3984  1.5680
 3296TIP3    H231304   3.266   3.879   2.084 -2.1851  0.1332 -2.2409
 3297TIP3   OH231305   2.627   2.458  10.733 -0.1753  0.1037  0.8919
 3297TIP3    H131306   2.649   2.551  10.726 -1.2377  0.3165 -0.1792
 3297TIP3    H231307   2.686   2.415  10.671 -2.1325  0.5963 -1.5174
 3298TIP3   OH231308   2.493   1.210   0.857  0.0940  0.3941  0.3885
 3298TIP3    H131309   2.500   1.299   0.822  0.7794  0.1848 -0.0418
 3298TIP3    H231310   2.539   1.156   0.793  1.5745  0.0224  1.6953
 3299TIP3   OH231311   3.768   6.018   3.680  0.7188  0.5893 -0.1846
 3299TIP3    H131312   3.841   5.964   3.651  1.3340  1.2482  0.0947
 3299TIP3    H231313   3.694   5.958   3.688  1.0465  0.0466 -1.1655
 3300TIP3   OH231314   2.354   2.706  16.243 -0.1423 -0.2862 -0.0037
 3300TIP3    H131315   2.278   2.695  16.186 -0.0029 -0.0368 -0.2435
 3300TIP3    H231316   2.373   2.800  16.240 -0.9923 -0.0366  1.5839
 3301TIP3   OH231317   3.475   3.585  13.882 -0.2404  0.1728  0.1480
 3301TIP3    H131318   3.428   3.645  13.940 -0.2828 -0.5251  0.8522
 3301TIP3    H231319   3.453   3.498  13.915  2.4868 -0.1704  1.2346
 3302TIP3   OH231320   4.921   0.894  13.933 -0.3439  0.2745 -0.5643
 3302TIP3    H131321   5.014   0.913  13.931 -0.0265 -1.1686 -0.7367
 3302TIP3    H231322   4.892   0.904  13.842 -0.2245  0.1343 -0.6179
 3303TIP3   OH231323   5.633   2.527   1.595  0.2396  0.3675 -0.4388
 3303TIP3    H131324   5.653   2.543   1.687  0.6413  1.0316 -0.6377
 3303TIP3    H231325   5.719   2.524   1.552  0.1361 -1.2355 -0.5932
 3304TIP3   OH231326   2.377   0.260   1.509 -0.2471 -0.2334 -0.4651
 3304TIP3    H131327   2.444   0.326   1.490 -0.3476 -0.1608 -0.5706
 3304TIP3    H231328   2.301   0.287   1.458 -1.0192  0.7855  1.1336
 3305TIP3   OH231329   3.217   5.890  13.592 -0.0707  0.2682  0.1690
 3305TIP3    H131330   3.197   5.894  13.499 -0.3949 -2.0134  0.0939
 3305TIP3    H231331   3.275   5.815  13.601  0.5866  0.9140  1.7244
 3306TIP3   OH231332   4.377   0.295   4.652  0.1412 -0.2472 -0.3230
 3306TIP3    H131333   4.443   0.342   4.703  1.0709 -0.7450 -1.0209
 3306TIP3    H231334   4.341   0.230   4.712  0.7431 -0.3834 -0.1025
 3307TIP3   OH231335   0.322   4.557   2.072  0.3106 -0.1920 -0.3545
 3307TIP3    H131336   0.375   4.480   2.091  1.5343  0.2437 -1.7512
 3307TIP3    H231337   0.263   4.529   2.002 -0.3421 -0.2806  0.2223
 3308TIP3   OH231338   1.730   3.606   3.638 -0.8902 -0.0274  0.0333
 3308TIP3    H131339   1.732   3.689   3.685  1.5159  1.4077 -2.3250
 3308TIP3    H231340   1.638   3.583   3.634 -1.5749  2.1600  1.3572
 3309TIP3   OH231341   1.540   1.899  11.416  0.0379 -0.2639 -0.9011
 3309TIP3    H131342   1.451   1.883  11.386 -0.3210 -0.1198  0.0628
 3309TIP3    H231343   1.542   1.867  11.506  1.0539 -0.5649 -1.0130
 3310TIP3   OH231344   4.937   0.516   2.101 -1.1599 -0.2429 -0.3932
 3310TIP3    H131345   5.029   0.530   2.081 -0.6530 -0.8438  1.2949
 3310TIP3    H231346   4.915   0.434   2.057 -0.6708 -0.4639 -0.2348
 3311TIP3   OH231347   3.000   6.016  14.024  0.8356 -0.0531  0.4915
 3311TIP3    H131348   2.968   6.094  13.979 -1.0575 -0.8555  0.3573
 3311TIP3    H231349   2.945   6.010  14.103  0.4885 -1.6041  0.1545
 3312TIP3   OH231350   2.620   2.113   6.152  0.3064 -0.4823 -0.1849
 3312TIP3    H131351   2.653   2.182   6.209  2.6972 -1.2336 -0.5590
 3312TIP3    H231352   2.619   2.035   6.208 -0.0330 -0.6484 -0.4212
 3313TIP3   OH231353   4.480   2.163   4.774 -0.1966 -0.2361 -0.4336
 3313TIP3    H131354   4.526   2.082   4.752  0.1669  0.2526 -1.5106
 3313TIP3    H231355   4.529   2.200   4.847  0.5356 -0.2234 -0.9249
 3314TIP3   OH231356   0.672   5.815   4.198 -0.3028  0.3785 -0.4404
 3314TIP3    H131357   0.616   5.890   4.182  0.1249  0.7717 -0.1358
 3314TIP3    H231358   0.761   5.851   4.198 -0.2150  0.3832  2.3916
 3315TIP3   OH231359   4.546   3.256  13.623 -0.0604 -0.1331  0.6785
 3315TIP3    H131360   4.564   3.348  13.643 -1.3628  0.1920  0.4150
 3315TIP3    H231361   4.451   3.250  13.621 -0.2231 -0.2157 -4.7100
 3316TIP3   OH231362   4.934   2.182  15.571 -0.1752 -0.3787  0.3130
 3316TIP3    H131363   4.976   2.135  15.643  0.4335  0.4867  0.5532
 3316TIP3    H231364   4.844   2.152  15.572 -0.3846  0.1690  1.9531
 3317TIP3   OH231365   1.816   2.591  14.964  0.2442  0.4332 -0.5025
 3317TIP3    H131366   1.759   2.656  14.921 -1.4394  0.0318  1.0003
 3317TIP3    H231367   1.901   2.635  14.970 -0.6314  2.2301 -0.2645
 3318TIP3   OH231368   6.654   4.244   1.854 -0.1448 -0.3754  0.1304
 3318TIP3    H131369   6.585   4.281   1.799  0.9153  0.5552 -0.6330
 3318TIP3    H231370   6.709   4.195   1.793  0.9527  0.5314  0.3572
 3319TIP3   OH231371   3.861   6.289   2.261 -0.0428 -0.6361  0.1110
 3319TIP3    H131372   3.843   6.374   2.221  1.6310  0.3344  1.2882
 3319TIP3    H231373   3.874   6.308   2.354 -0.0172 -2.2523  0.4822
 3320TIP3   OH231374   1.991   4.966   3.895  0.2068 -0.2086  0.3118
 3320TIP3    H131375   1.916   4.978   3.837 -0.1611  0.6012  0.9274
 3320TIP3    H231376   1.957   4.917   3.970 -0.3635  2.1437  1.7249
 3321TIP3   OH231377   5.024   2.818   5.549 -0.1923  0.1575 -0.1346
 3321TIP3    H131378   5.050   2.804   5.641  2.5983 -0.7808 -0.9699
 3321TIP3    H231379   4.987   2.906   5.549 -0.9882 -0.1052  2.0120
 3322TIP3   OH231380   4.489   0.117  15.109  0.8408  0.2856  0.1900
 3322TIP3    H131381   4.402   0.124  15.150  1.0974  1.0209  0.6211
 3322TIP3    H231382   4.472   0.069  15.028  0.3897 -1.6254  1.3269
 3323TIP3   OH231383   3.611   0.849  11.002 -0.0991  0.5148 -0.0126
 3323TIP3    H131384   3.634   0.826  10.911 -1.2567 -1.9067  0.2204
 3323TIP3    H231385   3.662   0.789  11.055 -2.1935 -0.6857  0.7433
 3324TIP3   OH231386   4.354   3.317   2.928 -0.4035 -0.5793 -0.2969
 3324TIP3    H131387   4.390   3.389   2.980 -1.0563 -2.0240  2.3602
 3324TIP3    H231388   4.430   3.263   2.907 -0.4097 -1.5651  1.9102
 3325TIP3   OH231389   4.197   4.534  11.508 -0.3345 -0.1655 -0.0445
 3325TIP3    H131390   4.264   4.487  11.460  0.3768 -0.0230  0.7797
 3325TIP3    H231391   4.119   4.529  11.452 -0.0291 -1.5115 -0.3863
 3326TIP3   OH231392   2.856   3.031   2.059 -0.1734  0.0827  0.1629
 3326TIP3    H131393   2.814   2.992   1.982 -0.2407  0.3016  0.0899
 3326TIP3    H231394   2.807   2.996   2.133  2.1635 -3.2011  0.4012
 3327TIP3   OH231395   4.996   2.666   3.987  0.3722  0.0837  0.4785
 3327TIP3    H131396   5.046   2.617   4.052  1.4562 -2.6476 -2.1691
 3327TIP3    H231397   4.906   2.663   4.018  0.9421 -0.4229  2.2042
 3328TIP3   OH231398   2.273   4.524   1.930 -0.4628 -0.3757  0.0768
 3328TIP3    H131399   2.355   4.488   1.895  0.2434  0.4685  0.8051
 3328TIP3    H231400   2.210   4.512   1.859  0.0426 -1.8862 -0.1570
 3329TIP3   OH231401   3.232   1.195  16.806  0.5732 -0.1640 -0.1107
 3329TIP3    H131402   3.295   1.253  16.763  2.2851 -1.5462  0.4353
 3329TIP3    H231403   3.230   1.117  16.750  2.3701 -1.7371  1.8379
 3330TIP3   OH231404   1.046   2.820  16.743 -0.0358 -0.0980  0.1068
 3330TIP3    H131405   0.952   2.807  16.753  0.2675 -3.3219 -0.2299
 3330TIP3    H231406   1.081   2.732  16.727  3.1940  0.8359  1.3018
 3331TIP3   OH231407   3.065   5.795  13.839 -0.1706 -0.1030  0.9163
 3331TIP3    H131408   3.079   5.828  13.751  0.1150 -2.4749 -0.0178
 3331TIP3    H231409   3.057   5.873  13.894  1.8691  1.4450 -0.8332
 3332TIP3   OH231410   3.305   6.534   0.304 -0.3467  0.0206  0.1579
 3332TIP3    H131411   3.270   6.570   0.222  0.3167 -0.3865 -0.3131
 3332TIP3    H231412   3.325   6.611   0.357  0.2326  0.3404 -0.4971
 3333TIP3   OH231413   5.492   4.929   0.563 -0.2833 -0.0985 -0.3661
 3333TIP3    H131414   5.558   4.985   0.521 -0.8268  0.5518 -0.3615
 3333TIP3    H231415   5.416   4.986   0.575 -0.3440 -0.4307  0.9744
 3334TIP3   OH231416   0.886   1.290   0.904  0.7887 -0.7291 -0.1820
 3334TIP3    H131417   0.885   1.220   0.969  0.0359  0.9531  1.7387
 3334TIP3    H231418   0.799   1.287   0.864  0.3823 -0.2832  0.6370
 3335TIP3   OH231419   1.005   0.562  16.135 -0.1512 -0.0162 -0.7739
 3335TIP3    H131420   1.062   0.627  16.177  0.9178 -0.5984 -1.2703
 3335TIP3    H231421   0.969   0.511  16.208  0.9790 -0.4442 -0.4962
 3336TIP3   OH231422   0.588   2.274  12.237 -0.3701 -0.1672  0.8647
 3336TIP3    H131423   0.583   2.187  12.277 -1.0013 -0.1218  0.8873
 3336TIP3    H231424   0.650   2.263  12.165 -3.4916 -1.7247 -1.8202
 3337TIP3   OH231425   4.525   0.528  12.540  0.4498  0.3577  0.0406
 3337TIP3    H131426   4.521   0.583  12.619  0.6305  1.7144 -0.8558
 3337TIP3    H231427   4.434   0.515  12.515  0.4334  1.8371 -0.7693
 3338TIP3   OH231428   4.726   2.477  15.001 -0.3132 -0.8348 -0.0233
 3338TIP3    H131429   4.792   2.460  15.068 -0.6397  0.0297  0.5240
 3338TIP3    H231430   4.770   2.455  14.919 -0.1758 -2.7379  0.5022
 3339TIP3   OH231431   4.501   3.896  16.150  0.0341  0.4627 -0.5052
 3339TIP3    H131432   4.491   3.909  16.244 -0.0107  0.0787 -0.4527
 3339TIP3    H231433   4.576   3.951  16.126 -0.9854  1.8639 -0.5632
 3340TIP3   OH231434   2.975   6.455  17.202  0.1063 -0.5881  0.1563
 3340TIP3    H131435   2.944   6.378  17.250  0.5915 -1.4888 -0.9047
 3340TIP3    H231436   2.900   6.514  17.200 -1.2721 -2.2442 -1.3859
 3341TIP3   OH231437   6.457   0.444   3.039  0.4366 -0.5141  0.3375
 3341TIP3    H131438   6.479   0.354   3.062  1.7839 -0.5031 -0.7998
 3341TIP3    H231439   6.501   0.460   2.956  2.1573  1.9249  1.5754
 3342TIP3   OH231440   3.007   0.397  10.576 -0.3830  0.3039  0.5391
 3342TIP3    H131441   3.011   0.481  10.530 -0.8400  1.0581  1.8095
 3342TIP3    H231442   2.927   0.356  10.545  1.0064 -0.8202 -1.8967
 3343TIP3   OH231443   6.272   1.649  11.806  0.5756 -0.3779 -0.3577
 3343TIP3    H131444   6.188   1.676  11.842 -0.1295 -3.6015  0.7338
 3343TIP3    H231445   6.337   1.684  11.867 -0.4306 -2.9749  2.4611
 3344TIP3   OH231446   0.877   1.978  13.511  0.2819  0.2241 -0.0550
 3344TIP3    H131447   0.937   1.999  13.440  2.1072 -1.1197  1.0164
 3344TIP3    H231448   0.878   2.057  13.566  2.0613 -0.1811  0.5727
 3345TIP3   OH231449   3.540   5.939   5.271  0.6230 -0.2067  0.5178
 3345TIP3    H131450   3.542   6.028   5.306  1.2654  0.7792 -1.7917
 3345TIP3    H231451   3.587   5.886   5.335  2.9380  1.7302  0.5550
 3346TIP3   OH231452   3.147   3.768   5.922 -0.1763  0.5742 -0.4170
 3346TIP3    H131453   3.242   3.770   5.911 -0.1235  0.0156 -0.1300
 3346TIP3    H231454   3.118   3.856   5.897  0.2932  0.4186 -1.5569
 3347TIP3   OH231455   1.934   5.766  16.329  0.5936  0.1027 -0.9716
 3347TIP3    H131456   2.029   5.776  16.337  0.4989  0.2901  0.1883
 3347TIP3    H231457   1.914   5.796  16.240  1.5985  0.2276 -1.1710
 3348TIP3   OH231458   0.460   5.230   4.602 -0.3838 -0.6552  0.0132
 3348TIP3    H131459   0.375   5.266   4.629  0.1153  0.1158  0.5865
 3348TIP3    H231460   0.491   5.181   4.679  0.7303  0.9761  0.6446
 3349TIP3   OH231461   1.940   1.183   5.000  0.2191  0.0067 -0.3216
 3349TIP3    H131462   1.858   1.231   5.008  0.6669  0.5725  1.0801
 3349TIP3    H231463   1.987   1.228   4.929 -0.1144  0.5335 -0.2153
 3350TIP3   OH231464   6.623   5.960  16.106  0.2180 -0.1033  0.6420
 3350TIP3    H131465   6.610   5.875  16.064  0.3818 -0.3030  0.9937
 3350TIP3    H231466   6.654   5.939  16.194  1.9188  0.3330  0.1879
 3351TIP3   OH231467   4.857   6.103  11.691 -0.1883  0.3232 -0.2286
 3351TIP3    H131468   4.920   6.044  11.649 -2.1232 -0.6972 -1.8167
 3351TIP3    H231469   4.777   6.052  11.698 -1.0845  1.8126  1.1352
 3352TIP3   OH231470   1.702   4.373  13.881  0.3344  0.1881  0.1079
 3352TIP3    H131471   1.696   4.332  13.794  2.5162 -0.8283  0.3632
 3352TIP3    H231472   1.795   4.390  13.893  0.1813 -0.3106  2.5283
 3353TIP3   OH231473   4.227   4.135   4.644 -0.1842  0.2114  0.6398
 3353TIP3    H131474   4.291   4.084   4.693 -0.9009 -1.6645 -0.2900
 3353TIP3    H231475   4.220   4.091   4.559 -0.2620  2.3364 -0.5318
 3354TIP3   OH231476   4.838   3.318   1.004  0.3675  0.0228  0.8399
 3354TIP3    H131477   4.896   3.382   0.962 -0.0878  0.4991  0.9198
 3354TIP3    H231478   4.862   3.321   1.097  1.6347 -1.3083  0.5741
 3355TIP3   OH231479   2.043   5.874   1.162 -0.3109 -0.1421  0.1951
 3355TIP3    H131480   1.966   5.930   1.166  0.2566  0.9460 -2.0781
 3355TIP3    H231481   2.017   5.800   1.108 -0.1408 -0.4341  0.5098
 3356TIP3   OH231482   1.190   5.033   2.618 -0.5825  0.4507 -0.2905
 3356TIP3    H131483   1.160   5.055   2.707 -1.8341 -0.8279 -0.3753
 3356TIP3    H231484   1.110   5.019   2.568  0.0915  1.5166 -1.7570
 3357TIP3   OH231485   1.647   6.471   0.502  0.5485 -0.4021  0.1068
 3357TIP3    H131486   1.639   6.527   0.580 -0.1983  2.9877 -2.1449
 3357TIP3    H231487   1.740   6.450   0.497  0.8488  0.5573  1.1389
 3358TIP3   OH231488   2.608   4.226  16.291 -0.3010  0.8291 -1.0888
 3358TIP3    H131489   2.529   4.211  16.342  1.0357 -0.9740  0.6629
 3358TIP3    H231490   2.646   4.305  16.329  0.7500 -0.5624  1.0225
 3359TIP3   OH231491   4.209   1.280  14.462 -0.2858 -0.3333 -0.3977
 3359TIP3    H131492   4.258   1.223  14.404  2.8376  0.1465  1.5086
 3359TIP3    H231493   4.171   1.221  14.528 -1.4164 -0.5992 -1.2530
 3360TIP3   OH231494   0.548   3.846  15.972 -0.6787  0.4473 -0.5705
 3360TIP3    H131495   0.481   3.822  15.908 -2.2304 -1.4612  1.5998
 3360TIP3    H231496   0.591   3.763  15.994  0.3566  1.1831  0.2589
 3361TIP3   OH231497   4.890   4.484  15.755 -0.3654 -0.2832  0.0862
 3361TIP3    H131498   4.915   4.430  15.830  1.0803  0.3038  0.0688
 3361TIP3    H231499   4.794   4.478  15.751 -0.4125 -0.8707  1.5554
 3362TIP3   OH231500   2.065   2.690  15.025 -0.3013  0.0912 -0.1941
 3362TIP3    H131501   2.155   2.683  14.994 -0.3021 -0.4024 -0.0924
 3362TIP3    H231502   2.073   2.706  15.119 -0.3170  0.5194 -0.2611
 3363TIP3   OH231503   3.788   5.643  17.131 -0.0932 -0.0545 -0.2590
 3363TIP3    H131504   3.883   5.654  17.133  0.0306 -0.6905 -1.6583
 3363TIP3    H231505   3.757   5.694  17.206  1.3567 -0.0033  0.3497
 3364TIP3   OH231506   4.145   0.105   2.362 -0.1807  0.0694  0.0550
 3364TIP3    H131507   4.159   0.200   2.364 -1.5841  0.3018  2.5094
 3364TIP3    H231508   4.075   0.090   2.426 -1.8590 -2.3469 -2.1492
 3365TIP3   OH231509   3.726   3.031  11.503 -0.9436  0.2871 -0.2994
 3365TIP3    H131510   3.726   3.105  11.442  2.1582 -0.2142 -1.0667
 3365TIP3    H231511   3.765   2.959  11.454 -3.6646 -1.9021  0.5022
 3366TIP3   OH231512   1.056   5.229  11.067 -0.1079  0.0459  0.3620
 3366TIP3    H131513   1.005   5.151  11.044  0.7308 -0.2275 -0.6987
 3366TIP3    H231514   1.026   5.296  11.006 -0.0458  0.2340  0.5369
 3367TIP3   OH231515   2.253   1.226  10.511  0.0018  0.0006 -0.1799
 3367TIP3    H131516   2.246   1.311  10.556 -2.0951 -0.8289  1.2355
 3367TIP3    H231517   2.222   1.244  10.422 -1.0478  0.6336  0.2891
 3368TIP3   OH231518   0.644   6.770   3.551 -0.3988 -0.0411 -0.0947
 3368TIP3    H131519   0.672   6.861   3.559  0.2233 -0.2498  0.1630
 3368TIP3    H231520   0.722   6.724   3.521 -0.6293 -0.5422  0.0726
 3369TIP3   OH231521   6.156   5.458  14.101 -0.5300 -0.4354  0.6406
 3369TIP3    H131522   6.159   5.364  14.115  2.0293 -0.9303 -2.1462
 3369TIP3    H231523   6.113   5.493  14.179  0.4160 -3.6871  2.8051
 3370TIP3   OH231524   3.931   0.993   3.824  0.0548  0.1344  0.0460
 3370TIP3    H131525   4.005   1.052   3.819 -0.2882  0.5448 -0.1688
 3370TIP3    H231526   3.911   0.988   3.918 -2.2506  3.3027 -0.1312
 3371TIP3   OH231527   4.271   6.494  15.603  0.2039 -0.2810 -0.1934
 3371TIP3    H131528   4.198   6.491  15.541  1.7791 -0.6948 -2.1462
 3371TIP3    H231529   4.312   6.579  15.589  0.8175 -0.5408 -0.0576
 3372TIP3   OH231530   4.409   3.566   1.855  0.0396  0.0495  0.1403
 3372TIP3    H131531   4.327   3.516   1.846 -0.6394  1.1275  0.1942
 3372TIP3    H231532   4.470   3.504   1.894 -0.5325 -1.0035 -0.5728
 3373TIP3   OH231533   1.491   3.114  13.832 -0.0179 -0.0401 -0.0848
 3373TIP3    H131534   1.561   3.077  13.886 -1.6197 -0.9186  1.4883
 3373TIP3    H231535   1.475   3.048  13.765 -0.3684 -0.5378  0.4831
 3374TIP3   OH231536   1.841   0.069  16.302  0.3153 -0.2804 -0.5188
 3374TIP3    H131537   1.789  -0.001  16.342 -1.7915  0.8243 -1.1467
 3374TIP3    H231538   1.920   0.074  16.356 -0.9561 -0.9695  1.5623
 3375TIP3   OH231539   4.113   4.321  14.212  0.2342  0.7827 -0.0796
 3375TIP3    H131540   4.173   4.362  14.274  1.7507 -0.3228 -0.7562
 3375TIP3    H231541   4.054   4.268  14.266 -0.1167  1.8035  0.5784
 3376TIP3   OH231542   5.883   2.154   4.325  0.5565 -0.3329  0.0456
 3376TIP3    H131543   5.921   2.070   4.350 -0.0850 -0.8963 -0.8367
 3376TIP3    H231544   5.920   2.216   4.388  1.1855 -1.2344  0.5919
 3377TIP3   OH231545   0.430   2.800   6.241 -0.5035  0.1816 -0.2886
 3377TIP3    H131546   0.397   2.847   6.318  0.7314  1.2822 -0.4015
 3377TIP3    H231547   0.485   2.730   6.277 -1.1844 -0.2995 -0.1566
 3378TIP3   OH231548   4.478   3.424   5.461  0.5127  0.0364 -0.3122
 3378TIP3    H131549   4.569   3.453   5.462  0.7995 -0.8087 -0.9580
 3378TIP3    H231550   4.483   3.329   5.469 -0.4152  0.1134  2.0400
 3379TIP3   OH231551   2.248   0.568   1.691  0.5500  0.0902 -0.3812
 3379TIP3    H131552   2.305   0.496   1.717  2.3410  1.0870 -1.4113
 3379TIP3    H231553   2.159   0.531   1.696  1.2989 -1.6875  0.6198
 3380TIP3   OH231554   1.315   5.089  11.043 -0.9087 -0.6752 -0.3744
 3380TIP3    H131555   1.276   5.081  11.130  0.5215 -1.6569  0.2046
 3380TIP3    H231556   1.317   5.184  11.027 -2.1014 -0.5317  0.2092
 3381TIP3   OH231557   5.616   4.302  13.961 -0.5705 -0.6342 -0.5096
 3381TIP3    H131558   5.700   4.262  13.985 -1.5490 -3.0144 -0.7238
 3381TIP3    H231559   5.604   4.373  14.023  0.6517 -1.5515  0.8460
 3382TIP3   OH231560   1.116   6.635   4.255  0.2071 -0.0725  0.0821
 3382TIP3    H131561   1.158   6.568   4.310 -1.5593  1.2973  3.3793
 3382TIP3    H231562   1.023   6.614   4.258 -0.4352  2.5542  1.4207
 3383TIP3   OH231563   1.483   1.535  16.263 -0.1147  0.5573 -0.1221
 3383TIP3    H131564   1.537   1.614  16.253  1.7933 -0.8080 -1.1311
 3383TIP3    H231565   1.486   1.493  16.177  0.7145 -1.7174  0.9437
 3384TIP3   OH231566   1.575   3.346  11.965  0.2012 -0.2089  0.0081
 3384TIP3    H131567   1.659   3.388  11.984  0.8291 -1.0694 -0.7515
 3384TIP3    H231568   1.524   3.357  12.045  1.6710 -1.2040  1.1467
 3385TIP3   OH231569   3.507   3.444   4.521  0.3550 -0.4811  0.0063
 3385TIP3    H131570   3.544   3.356   4.525 -2.1330 -1.6056 -0.4665
 3385TIP3    H231571   3.432   3.436   4.463  0.9750  2.3273 -1.3671
 3386TIP3   OH231572   0.085   5.311   4.197  0.1973  0.2806 -0.4539
 3386TIP3    H131573   0.072   5.245   4.128  0.8710 -0.5810  0.2088
 3386TIP3    H231574   0.176   5.297   4.226 -0.0708  0.6322  0.5907
 3387TIP3   OH231575   0.339   2.146  14.781  0.0377  0.0667  0.4618
 3387TIP3    H131576   0.256   2.192  14.787 -0.6393 -0.7429 -1.6859
 3387TIP3    H231577   0.383   2.163  14.864 -2.5055  0.0253  1.9031
 3388TIP3   OH231578   2.582   2.715   4.169 -0.2039  0.1458 -0.0696
 3388TIP3    H131579   2.573   2.810   4.165 -0.4562  0.1006 -0.6841
 3388TIP3    H231580   2.583   2.687   4.078 -1.1564 -0.5334  0.1145
 3389TIP3   OH231581   2.451   3.599   2.449  0.5070  0.1592 -0.6719
 3389TIP3    H131582   2.437   3.686   2.410 -1.8110 -1.1244 -2.9714
 3389TIP3    H231583   2.506   3.553   2.385 -0.3926 -0.8650 -0.7280
 3390TIP3   OH231584   0.157   2.312  15.797  0.4400  0.3427 -0.4666
 3390TIP3    H131585   0.170   2.407  15.791  1.2499  0.2032 -1.0749
 3390TIP3    H231586   0.134   2.297  15.889  1.9512  0.9606  0.0545
 3391TIP3   OH231587   6.122   6.109  15.458  0.4410 -0.1148 -0.6516
 3391TIP3    H131588   6.169   6.133  15.538 -2.2500  3.0022  0.1950
 3391TIP3    H231589   6.162   6.162  15.390  1.6919 -1.6054 -1.1313
 3392TIP3   OH231590   5.650   5.581   1.351 -0.3050  0.2017 -0.4327
 3392TIP3    H131591   5.685   5.658   1.396  0.4322  0.4294 -1.3774
 3392TIP3    H231592   5.603   5.532   1.420  1.9779 -0.2007  0.9249
 3393TIP3   OH231593   3.871   1.433   3.205 -0.3149  0.3612  0.1009
 3393TIP3    H131594   3.958   1.392   3.202  0.6352  1.8053  3.2236
 3393TIP3    H231595   3.811   1.361   3.223  0.1591 -0.6597 -2.0422
 3394TIP3   OH231596   5.615   0.045  15.742 -0.2288  0.0720  0.2159
 3394TIP3    H131597   5.691   0.004  15.699  0.9535  1.8353  0.5383
 3394TIP3    H231598   5.588   0.114  15.682  0.6277  1.7160  1.6606
 3395TIP3   OH231599   2.048   1.048   2.724 -0.0174 -0.3039  0.5777
 3395TIP3    H131600   2.068   1.137   2.698 -3.5687  0.5902  0.4198
 3395TIP3    H231601   2.068   1.045   2.817  0.5228  0.5065  0.4952
 3396TIP3   OH231602   0.389   2.448   4.884 -0.2829  0.7211 -0.0858
 3396TIP3    H131603   0.449   2.513   4.847 -0.5103  1.2331  0.4430
 3396TIP3    H231604   0.398   2.372   4.826  2.2245  0.1031  0.9990
 3397TIP3   OH231605   5.532   4.256  12.748  0.0955 -0.0288  0.2499
 3397TIP3    H131606   5.586   4.241  12.825  1.7644  1.3591 -0.5921
 3397TIP3    H231607   5.443   4.239  12.778  0.9327 -2.3731  1.6909
 3398TIP3   OH231608   1.286   0.442  12.540 -0.2358  0.3405  0.3106
 3398TIP3    H131609   1.330   0.492  12.608 -0.2540 -0.1574  0.6928
 3398TIP3    H231610   1.331   0.467  12.459  1.4922 -0.9143  0.8081
 3399TIP3   OH231611   1.508   5.119   5.754 -0.1865  0.3350  0.1283
 3399TIP3    H131612   1.523   5.025   5.748 -2.0221 -0.1637  2.0259
 3399TIP3    H231613   1.441   5.137   5.687 -2.0980 -0.3535  1.7740
 3400TIP3   OH231614   0.490   3.957   0.749 -0.2542 -0.4055  0.3234
 3400TIP3    H131615   0.451   3.974   0.834 -0.6804 -1.2590  0.3120
 3400TIP3    H231616   0.416   3.964   0.687 -0.0705 -0.4067  0.1020
 3401TIP3   OH231617   1.681   6.685   1.445 -0.0264  0.3075  1.0531
 3401TIP3    H131618   1.700   6.754   1.381  0.7990 -0.8528 -0.0042
 3401TIP3    H231619   1.636   6.730   1.516  0.0056  1.8368  0.1501
 3402TIP3   OH231620   0.175   4.523   4.846 -0.2852  0.4883 -0.3418
 3402TIP3    H131621   0.151   4.437   4.880  0.1685  0.5722  0.1961
 3402TIP3    H231622   0.157   4.583   4.917  2.1809  0.4684  0.3788
 3403TIP3   OH231623   6.050   3.583  14.679  0.6837 -0.0689 -0.4774
 3403TIP3    H131624   6.102   3.576  14.760  1.8558 -2.0138 -1.3225
 3403TIP3    H231625   6.073   3.669  14.643 -1.8794  2.0734  2.4891
 3404TIP3   OH231626   0.703   3.160  11.806 -0.0171 -0.5914  0.0786
 3404TIP3    H131627   0.727   3.145  11.714 -0.9968 -0.2994 -0.2384
 3404TIP3    H231628   0.702   3.255  11.816  2.6173 -0.5868  1.1201
 3405TIP3   OH231629   3.652   2.915  16.449  0.1896  0.1962 -0.1580
 3405TIP3    H131630   3.669   2.874  16.534 -1.7106 -1.7982 -0.6500
 3405TIP3    H231631   3.717   2.875  16.391  0.7904  0.7481  0.1271
 3406TIP3   OH231632   1.766   4.589  15.392  0.0065 -0.1315  0.1744
 3406TIP3    H131633   1.763   4.585  15.296 -1.7861  0.6633  0.1525
 3406TIP3    H231634   1.820   4.514  15.417  2.3823  0.8962 -1.5033
 3407TIP3   OH231635   3.064   0.973   4.934  0.4402 -0.9682 -0.8366
 3407TIP3    H131636   2.991   0.946   4.878  0.8864 -1.1724 -1.3274
 3407TIP3    H231637   3.095   0.891   4.974 -0.4381 -0.7222  0.4242
 3408TIP3   OH231638   3.083   5.882  10.454  0.1773 -0.1116 -0.0266
 3408TIP3    H131639   3.029   5.882  10.533  2.2118 -1.0606  1.4537
 3408TIP3    H231640   3.167   5.843  10.481  1.2668  0.3119 -2.4475
 3409TIP3   OH231641   4.046   5.235  13.406 -0.0629  0.1699 -1.0463
 3409TIP3    H131642   4.087   5.311  13.365  1.5192 -1.3240 -2.4133
 3409TIP3    H231643   4.119   5.188  13.447 -0.8081 -1.2096 -1.2399
 3410TIP3   OH231644   1.700   3.495  13.472 -0.2360 -0.0317 -0.0477
 3410TIP3    H131645   1.669   3.406  13.486  1.2217 -0.3358  1.5464
 3410TIP3    H231646   1.790   3.485  13.442  0.1559  0.8818  0.7569
 3411TIP3   OH231647   4.408   3.188   5.343  0.6493 -0.4071 -0.1435
 3411TIP3    H131648   4.330   3.152   5.301 -0.4101 -0.4153  1.7500
 3411TIP3    H231649   4.480   3.166   5.283 -0.9468  1.1080 -2.8142
 3412TIP3   OH231650   5.518   6.360   5.125 -0.4073 -0.5238 -0.2645
 3412TIP3    H131651   5.534   6.441   5.075  0.2523 -0.8883 -0.6609
 3412TIP3    H231652   5.563   6.375   5.209  2.8697 -1.8001 -1.6101
 3413TIP3   OH231653   3.641   5.531  13.607  0.5872 -0.4232 -0.2125
 3413TIP3    H131654   3.716   5.487  13.646 -0.3478  0.2797  2.6231
 3413TIP3    H231655   3.565   5.487  13.644 -0.3877  0.3834 -1.1779
 3414TIP3   OH231656   6.571   6.412   5.190  0.0394 -0.1521  0.4178
 3414TIP3    H131657   6.529   6.340   5.143 -2.0366  0.8093  0.6666
 3414TIP3    H231658   6.575   6.383   5.281  1.2547 -0.8024  0.1744
 3415TIP3   OH231659   6.757   4.290   5.244  0.2920  0.2097 -0.3297
 3415TIP3    H131660   6.770   4.199   5.272 -1.8273  0.2031  0.8631
 3415TIP3    H231661   6.756   4.340   5.325 -2.4277  0.7071 -0.5633
 3416TIP3   OH231662   0.288   3.314   6.078 -0.6007  0.1665 -0.6629
 3416TIP3    H131663   0.248   3.340   6.161 -1.7156  1.4941 -1.5590
 3416TIP3    H231664   0.229   3.348   6.011  0.6231 -0.2563 -2.0243
 3417TIP3   OH231665   0.799   5.608   1.624 -0.0476  0.7076 -0.0414
 3417TIP3    H131666   0.722   5.556   1.605  1.3258 -1.0215 -1.1931
 3417TIP3    H231667   0.771   5.699   1.612 -1.8241  0.1136 -0.6154
 3418TIP3   OH231668   4.434   1.421   0.722 -0.8123  0.0392 -0.5368
 3418TIP3    H131669   4.505   1.358   0.716  0.4574  1.4262 -0.6195
 3418TIP3    H231670   4.355   1.370   0.705  0.1335 -1.5712 -0.2942
 3419TIP3   OH231671   1.302   6.711   1.765  0.0146  0.0909 -1.1170
 3419TIP3    H131672   1.221   6.667   1.788 -0.9543  2.6108  0.6877
 3419TIP3    H231673   1.367   6.640   1.762 -1.5810 -1.5861  0.7098
 3420TIP3   OH231674   6.650   1.165   3.265  0.1580 -0.0958  0.2860
 3420TIP3    H131675   6.656   1.173   3.360 -0.4179  2.0144  0.2011
 3420TIP3    H231676   6.695   1.243   3.232  0.6028 -0.9511 -1.1857
 3421TIP3   OH231677   4.630   5.310   1.286  0.1435  0.3758 -0.5352
 3421TIP3    H131678   4.574   5.375   1.328 -0.6797  0.3127 -1.4989
 3421TIP3    H231679   4.719   5.336   1.310 -0.2313  1.2572 -0.0650
 3422TIP3   OH231680   5.682   1.839  10.786 -0.6563  0.4472 -0.1551
 3422TIP3    H131681   5.610   1.882  10.832 -0.6152  0.6601 -0.2904
 3422TIP3    H231682   5.743   1.814  10.855 -1.3827 -0.7382  0.0781
 3423TIP3   OH231683   3.523   1.487   2.945  0.1786  0.0995 -0.2337
 3423TIP3    H131684   3.526   1.438   3.027  0.3299  2.5418  1.3174
 3423TIP3    H231685   3.614   1.510   2.926 -0.0818  1.9776  0.5493
 3424TIP3   OH231686   2.827   0.791  13.280 -0.8636  0.2976 -0.3776
 3424TIP3    H131687   2.821   0.881  13.250 -2.4387 -0.5432 -2.8160
 3424TIP3    H231688   2.893   0.750  13.224  0.3264  0.0260  1.1342
 3425TIP3   OH231689   6.117   5.060  10.981  0.2017 -0.0111  0.1245
 3425TIP3    H131690   6.144   5.128  10.919  2.3293 -0.9748 -0.0934
 3425TIP3    H231691   6.153   5.089  11.065  0.6481 -0.5948  0.1370
 3426TIP3   OH231692   0.057   2.895   1.334 -0.3823 -0.0385 -0.6140
 3426TIP3    H131693   0.138   2.890   1.283 -0.8643 -0.6338 -1.3399
 3426TIP3    H231694  -0.007   2.847   1.282 -0.7047 -1.3930  0.9538
 3427TIP3   OH231695   3.242   1.849   1.128 -0.4241 -0.3843  0.4036
 3427TIP3    H131696   3.253   1.930   1.178 -1.3175  0.9182 -1.3981
 3427TIP3    H231697   3.273   1.870   1.040 -0.0305 -2.2382  0.0474
 3428TIP3   OH231698   3.557   6.615  12.244 -0.3050 -0.5952  0.7025
 3428TIP3    H131699   3.528   6.568  12.166 -0.1566  1.1359 -0.4668
 3428TIP3    H231700   3.644   6.647  12.222 -0.6512  0.7612  1.1680
 3429TIP3   OH231701   4.876   0.608  16.039  0.4439  0.0193 -0.2445
 3429TIP3    H131702   4.802   0.574  16.088  0.1180  0.2708 -0.5603
 3429TIP3    H231703   4.852   0.698  16.018  0.5970 -0.0715 -0.8294
 3430TIP3   OH231704   5.927   5.764  12.267 -0.2362 -0.0095 -0.4449
 3430TIP3    H131705   5.855   5.793  12.323  0.9622  0.8434  0.6919
 3430TIP3    H231706   5.942   5.838  12.207  0.8565  0.5589  0.5027
 3431TIP3   OH231707   6.709   2.073   1.443 -0.6952  0.0055  0.4835
 3431TIP3    H131708   6.672   2.067   1.531  0.5122  0.8470  1.0783
 3431TIP3    H231709   6.801   2.097   1.458 -0.5399  0.4097 -1.0181
 3432TIP3   OH231710   5.271   3.071  13.002  0.3219  0.4656 -0.1890
 3432TIP3    H131711   5.290   3.159  13.035  0.3073 -0.8938  4.0337
 3432TIP3    H231712   5.356   3.031  12.988  0.3310  1.1208 -2.3364
 3433TIP3   OH231713   2.329   2.578   1.727 -0.0761 -0.1269 -0.8060
 3433TIP3    H131714   2.352   2.562   1.819  1.3816  1.0125 -0.9365
 3433TIP3    H231715   2.331   2.491   1.687  3.5821 -0.3124 -0.6415
 3434TIP3   OH231716   1.233   0.715  13.693 -0.0033 -0.0506 -0.6251
 3434TIP3    H131717   1.180   0.789  13.724 -1.4279 -2.1362  2.4769
 3434TIP3    H231718   1.322   0.738  13.717 -0.2840  1.0358 -0.5574
 3435TIP3   OH231719   3.700   4.137  16.263 -0.5194  0.6642  0.1161
 3435TIP3    H131720   3.666   4.114  16.176 -0.4715  0.9345  0.0246
 3435TIP3    H231721   3.623   4.138  16.319 -0.4269 -0.4381  0.2817
 3436TIP3   OH231722   1.966   3.160  11.097  0.0978  0.1801 -0.2240
 3436TIP3    H131723   1.935   3.138  11.009  1.2877 -0.8514 -0.4093
 3436TIP3    H231724   1.888   3.192  11.142 -1.4428 -2.8009 -0.5016
 3437TIP3   OH231725   3.062   5.900  13.374  0.1188 -0.2270 -0.6732
 3437TIP3    H131726   2.988   5.876  13.318  0.4308 -0.1169 -1.1304
 3437TIP3    H231727   3.104   5.973  13.330  0.8022 -0.6124 -0.6757
 3438TIP3   OH231728   3.990   6.601  14.947  0.2498 -0.1130  0.7424
 3438TIP3    H131729   4.026   6.630  15.031  0.6552 -0.1999  0.6012
 3438TIP3    H231730   3.951   6.680  14.909 -0.5080 -0.2049  1.2930
 3439TIP3   OH231731   1.320   4.238   2.287  0.4047  0.2043  0.2449
 3439TIP3    H131732   1.258   4.269   2.221 -0.8851 -0.1822  1.2232
 3439TIP3    H231733   1.384   4.308   2.294 -0.1891  0.8436 -0.4645
 3440TIP3   OH231734   1.642   0.076   5.156  0.0770 -0.8148 -0.0937
 3440TIP3    H131735   1.728   0.036   5.168 -0.0466 -1.0300  0.0832
 3440TIP3    H231736   1.634   0.088   5.062  0.9324  0.6122 -0.0175
 3441TIP3   OH231737   1.463   0.974  15.428  0.4508 -0.7954 -0.0294
 3441TIP3    H131738   1.438   1.062  15.456  0.7698 -0.5292 -0.5532
 3441TIP3    H231739   1.386   0.941  15.383 -0.1833 -1.3585  1.4262
 3442TIP3   OH231740   1.818   3.564   4.235  0.0400 -0.2934 -0.0475
 3442TIP3    H131741   1.902   3.575   4.279  1.9901 -1.2172 -3.2454
 3442TIP3    H231742   1.801   3.470   4.240 -0.4038 -0.2218 -0.1433
 3443TIP3   OH231743   3.226   1.740  15.225  0.0329 -0.1409  0.5515
 3443TIP3    H131744   3.245   1.834  15.218 -2.2082  0.2817 -1.0875
 3443TIP3    H231745   3.253   1.716  15.313  2.9377  1.4517  0.1997
 3444TIP3   OH231746   3.532   4.303   5.652 -0.4693  0.2451 -0.0204
 3444TIP3    H131747   3.485   4.251   5.718 -0.7116 -1.0855 -1.1916
 3444TIP3    H231748   3.618   4.261   5.646 -1.1217 -0.9465 -1.9465
 3445TIP3   OH231749   5.972   1.466   2.946  0.1031  0.0729  0.3073
 3445TIP3    H131750   5.925   1.399   2.897 -0.0117  1.0656 -1.0223
 3445TIP3    H231751   6.059   1.429   2.959 -0.0315 -0.4425 -0.1968
 3446TIP3   OH231752   1.234   5.579   1.783 -0.0691 -0.4653 -0.1113
 3446TIP3    H131753   1.194   5.640   1.845  1.8500 -1.5111  2.3207
 3446TIP3    H231754   1.160   5.541   1.736 -1.5826  0.8342  1.0976
 3447TIP3   OH231755   3.035   5.702  14.335  0.3319  0.2155 -0.7002
 3447TIP3    H131756   3.118   5.726  14.377 -0.2023 -0.8700  1.0864
 3447TIP3    H231757   3.052   5.616  14.297  0.2850  0.4139 -1.1790
 3448TIP3   OH231758   6.226   2.738   2.466  0.1468  0.2328  0.3717
 3448TIP3    H131759   6.230   2.722   2.372 -1.0373 -0.5301  0.4376
 3448TIP3    H231760   6.257   2.657   2.506 -0.7868  0.0012  0.6467
 3449TIP3   OH231761   0.379   4.654  12.705 -0.2474  0.1243  0.0839
 3449TIP3    H131762   0.332   4.600  12.769  0.8609 -3.0349 -1.5219
 3449TIP3    H231763   0.466   4.667  12.744 -0.0920 -0.4209 -0.0702
 3450TIP3   OH231764   1.591   0.159   0.997 -0.2436 -0.6001 -0.0791
 3450TIP3    H131765   1.518   0.160   0.935  0.2405 -0.1981 -0.6592
 3450TIP3    H231766   1.654   0.221   0.960 -0.3015  0.3054  1.2791
 3451TIP3   OH231767   1.539   0.592  12.626 -0.2202 -0.2899 -0.4865
 3451TIP3    H131768   1.539   0.675  12.579  1.3537 -0.3048 -0.5679
 3451TIP3    H231769   1.618   0.548  12.596  0.3248 -0.7163  1.4559
 3452TIP3   OH231770   1.798   6.633  13.914  0.3244  1.0665 -0.1400
 3452TIP3    H131771   1.825   6.691  13.842  0.8791  1.3493  0.2875
 3452TIP3    H231772   1.702   6.633  13.910  0.3565  0.7873 -1.1107
 3453TIP3   OH231773   5.600   3.406   5.745  0.1393  0.3872  0.2134
 3453TIP3    H131774   5.541   3.343   5.703 -1.1314  1.1031  0.8578
 3453TIP3    H231775   5.547   3.484   5.757  0.7831  0.5953  2.1216
 3454TIP3   OH231776   5.082   2.394  17.180 -0.6769  0.5578  0.0117
 3454TIP3    H131777   5.023   2.320  17.177  0.5504 -0.4461 -0.4549
 3454TIP3    H231778   5.163   2.362  17.138  0.4058  1.6521  1.1709
 3455TIP3   OH231779   5.364   1.994   1.749  0.6673  0.4317 -0.1207
 3455TIP3    H131780   5.295   2.014   1.687  0.3830 -1.8639 -0.6411
 3455TIP3    H231781   5.434   1.956   1.696  2.0041  1.9232  0.5125
 3456TIP3   OH231782   2.129   3.543   5.454  0.3094 -0.1631  0.1204
 3456TIP3    H131783   2.204   3.492   5.485  0.6856  1.8122  2.7981
 3456TIP3    H231784   2.078   3.562   5.533 -1.2308  1.3247 -1.1494
 3457TIP3   OH231785   5.306   3.429   3.009 -0.3403 -0.1759 -0.1289
 3457TIP3    H131786   5.338   3.407   3.096 -1.8766 -0.2866  0.4422
 3457TIP3    H231787   5.374   3.485   2.971 -0.0566  0.6221  1.4933
 3458TIP3   OH231788   0.859   2.201  13.700  0.3661  0.2463  0.1982
 3458TIP3    H131789   0.903   2.282  13.727 -1.1897  1.5567 -1.0083
 3458TIP3    H231790   0.777   2.201  13.749 -0.1506  0.0146 -0.6425
 3459TIP3   OH231791   0.711   6.337   5.021  0.7042  0.6864  0.1283
 3459TIP3    H131792   0.620   6.308   5.032  0.7422  0.6593  0.3695
 3459TIP3    H231793   0.714   6.373   4.932  0.8954 -0.9349 -0.5525
 3460TIP3   OH231794   2.223   4.402  15.856 -0.0059 -0.7207 -0.3415
 3460TIP3    H131795   2.236   4.307  15.855 -0.4438 -0.7773 -0.8988
 3460TIP3    H231796   2.291   4.437  15.798  0.1939 -0.6854 -0.0893
 3461TIP3   OH231797   4.668   3.971   4.963 -0.4892  0.3528 -0.0770
 3461TIP3    H131798   4.683   3.951   5.055  1.0441 -0.9870 -0.5776
 3461TIP3    H231799   4.694   3.892   4.916 -0.4902  1.2802 -1.7296
 3462TIP3   OH231800   3.935   3.150   2.539  0.4039 -0.0267  0.0365
 3462TIP3    H131801   3.910   3.057   2.540  0.2048  0.0343  0.8652
 3462TIP3    H231802   4.030   3.149   2.533  0.4633 -0.2968  0.9132
 3463TIP3   OH231803   5.818   0.131   0.054  0.0304  0.1639  0.0067
 3463TIP3    H131804   5.914   0.122   0.055 -0.0018 -0.4315 -1.3279
 3463TIP3    H231805   5.788   0.059  -0.000 -1.2639 -0.2123  1.1726
 3464TIP3   OH231806   2.230   4.930   6.577  0.5465  0.2714  0.3117
 3464TIP3    H131807   2.211   5.009   6.526  0.5195 -0.9405 -1.6133
 3464TIP3    H231808   2.167   4.933   6.650  0.0877  1.6600 -0.1156
 3465TIP3   OH231809   2.060   6.749  11.136  0.7475 -0.2654  0.1105
 3465TIP3    H131810   2.137   6.694  11.149  0.3185 -0.5499  1.6031
 3465TIP3    H231811   1.986   6.695  11.165  0.3974  1.3431  2.5126
 3466TIP3   OH231812   3.704   5.809  15.860  0.3313  0.1704  0.7796
 3466TIP3    H131813   3.652   5.888  15.873 -0.6381 -0.6577  2.1248
 3466TIP3    H231814   3.795   5.841  15.856 -0.0231  1.3291  1.5481
 3467TIP3   OH231815   1.577   6.275   3.000 -0.1386  0.7241  0.1066
 3467TIP3    H131816   1.596   6.218   3.074  1.3184 -0.1868 -0.9185
 3467TIP3    H231817   1.493   6.245   2.967 -0.4252  0.6259  0.9208
 3468TIP3   OH231818   3.721   3.707  14.211  0.8445  0.0659  0.4881
 3468TIP3    H131819   3.669   3.701  14.291  0.7954 -2.0236  0.3509
 3468TIP3    H231820   3.798   3.758  14.236  0.2015  0.5461  1.5216
 3469TIP3   OH231821   1.395   0.422   4.807  0.3672  0.1095  0.1939
 3469TIP3    H131822   1.393   0.424   4.711 -1.6675 -0.5153  0.1838
 3469TIP3    H231823   1.306   0.444   4.834  1.0441  0.8484  1.9806
 3470TIP3   OH231824   4.469   5.649   5.600  0.2034  0.2241  0.3357
 3470TIP3    H131825   4.555   5.661   5.559  0.5082 -0.7246  0.6544
 3470TIP3    H231826   4.468   5.556   5.624 -0.2344  0.5969  1.8523
 3471TIP3   OH231827   6.011   0.124   2.527 -0.1264  0.2734  0.2648
 3471TIP3    H131828   5.917   0.104   2.527 -0.5202  1.7579  2.8714
 3471TIP3    H231829   6.045   0.077   2.450 -2.6792 -1.6989  0.2128
 3472TIP3   OH231830   2.480   3.715  13.396 -0.5971  0.4191 -0.3925
 3472TIP3    H131831   2.397   3.684  13.431  0.1294  0.0399  1.0507
 3472TIP3    H231832   2.520   3.637  13.357  0.2027 -0.0080  1.2019
 3473TIP3   OH231833   2.011   2.697   6.041  0.1012  0.1738 -0.0399
 3473TIP3    H131834   2.022   2.737   6.127 -0.2932 -1.0470  0.5978
 3473TIP3    H231835   2.026   2.604   6.055  2.1271  0.1853 -1.7175
 3474TIP3   OH231836   5.956   3.929   3.352 -0.2209  0.4241  0.0152
 3474TIP3    H131837   5.935   3.904   3.262  1.0932  2.5606 -0.9623
 3474TIP3    H231838   5.874   3.963   3.387 -0.5338  0.4089 -0.6853
 3475TIP3   OH231839   4.091   1.770  14.305  0.3471 -0.2953  0.3676
 3475TIP3    H131840   4.159   1.764  14.373  0.2031 -0.6576  0.4837
 3475TIP3    H231841   4.050   1.683  14.305 -0.6411  0.1610  0.8326
 3476TIP3   OH231842   2.654   5.901  14.122 -0.0360  0.2218 -0.1911
 3476TIP3    H131843   2.713   5.962  14.166 -0.3380 -0.4898  1.2886
 3476TIP3    H231844   2.701   5.818  14.123 -1.1192 -0.4252  1.2622
 3477TIP3   OH231845   1.528   1.328   0.463 -0.2744  0.0337  0.5800
 3477TIP3    H131846   1.523   1.258   0.529  1.4562  0.2655  1.0304
 3477TIP3    H231847   1.501   1.287   0.381 -1.1179 -0.6384  1.1780
 3478TIP3   OH231848   1.115   1.156  10.698  0.2150  0.0198  0.1350
 3478TIP3    H131849   1.109   1.128  10.607 -1.0072 -1.3229  0.5911
 3478TIP3    H231850   1.151   1.081  10.745 -0.3314  0.2423  0.9399
 3479TIP3   OH231851   2.501   5.948  12.039 -0.5711  0.7300  0.1687
 3479TIP3    H131852   2.590   5.948  12.003 -0.6834  0.8610 -0.1113
 3479TIP3    H231853   2.446   5.918  11.967 -0.7347  0.4902  0.3923
 3480TIP3   OH231854   4.971   6.147   1.288 -0.1874  0.0232  0.6342
 3480TIP3    H131855   4.970   6.051   1.299 -0.2504  0.2390  2.9871
 3480TIP3    H231856   4.893   6.177   1.335 -0.0522  1.2614  0.1037
 3481TIP3   OH231857   0.348   3.396  13.148 -0.2029 -0.0572 -0.0592
 3481TIP3    H131858   0.429   3.428  13.186 -0.7987  0.9313  0.4178
 3481TIP3    H231859   0.329   3.456  13.075 -0.9996  0.3160  0.4428
 3482TIP3   OH231860   4.547   6.154   2.816  0.0476 -0.0289 -0.0951
 3482TIP3    H131861   4.466   6.148   2.766 -0.1112 -1.5766  0.2850
 3482TIP3    H231862   4.607   6.203   2.759 -0.0952 -1.8111 -1.9097
 3483TIP3   OH231863   1.979   3.638   6.287 -0.0880  0.4647 -0.2869
 3483TIP3    H131864   1.900   3.685   6.314 -0.4549  0.1344 -0.7717
 3483TIP3    H231865   2.029   3.702   6.236 -0.3758  0.4668 -0.5716
 3484TIP3   OH231866   4.921   2.630   1.050  0.6018 -0.2085  0.6062
 3484TIP3    H131867   4.857   2.562   1.028  0.6847  0.2590 -1.2245
 3484TIP3    H231868   4.895   2.705   0.997  1.3421  0.7248  1.5472
 3485TIP3   OH231869   2.222   0.986  11.545  0.4285  0.3082  0.6321
 3485TIP3    H131870   2.267   1.039  11.478  2.7822 -0.8531  1.1768
 3485TIP3    H231871   2.251   1.024  11.628 -0.1596 -0.0560  1.0037
 3486TIP3   OH231872   2.881   0.440  14.430 -0.4874  0.2024  0.2338
 3486TIP3    H131873   2.901   0.375  14.362  0.7071 -1.5118  2.0921
 3486TIP3    H231874   2.967   0.472  14.458 -0.9552  0.7633  1.0480
 3487TIP3   OH231875   4.393   4.345   5.873  0.0764  0.4326  0.2567
 3487TIP3    H131876   4.339   4.423   5.886 -0.1289  0.2775  0.3326
 3487TIP3    H231877   4.358   4.304   5.794  0.1172  0.3576  0.2775
 3488TIP3   OH231878   5.883   4.308   3.442 -0.5294  0.2960 -0.3042
 3488TIP3    H131879   5.897   4.363   3.366 -0.8228 -1.5402 -1.7762
 3488TIP3    H231880   5.959   4.250   3.445 -0.1674  0.8151  1.2560
 3489TIP3   OH231881   3.028   2.906   1.697  0.3835 -0.2877  0.2658
 3489TIP3    H131882   3.007   2.854   1.775 -1.6714 -0.1219 -0.1297
 3489TIP3    H231883   3.047   2.841   1.629  1.7756 -0.4335  0.7588
 3490TIP3   OH231884   4.383   3.625  12.159 -0.0205 -1.2015  0.4199
 3490TIP3    H131885   4.310   3.575  12.124  0.6615 -0.7218 -1.9030
 3490TIP3    H231886   4.460   3.571  12.143  0.4587 -0.4197 -0.0313
 3491TIP3   OH231887   2.556   6.554   0.463 -0.1490 -0.0513 -0.7378
 3491TIP3    H131888   2.554   6.472   0.511  0.3358 -0.3773 -1.2630
 3491TIP3    H231889   2.464   6.572   0.442 -0.1476 -1.1162 -1.7147
 3492TIP3   OH231890   6.125   5.336   5.713 -0.6015  0.5513 -0.0625
 3492TIP3    H131891   6.131   5.400   5.642 -0.9445  0.7115  0.0537
 3492TIP3    H231892   6.200   5.357   5.770  1.3277 -1.2838 -1.7516
 3493TIP3   OH231893   3.581   0.352  16.892  0.2806  0.0437 -0.0096
 3493TIP3    H131894   3.615   0.391  16.972  1.6666 -0.4628 -0.3206
 3493TIP3    H231895   3.655   0.304  16.855 -0.3505  0.1925 -1.5466
 3494TIP3   OH231896   6.099   4.405   6.242 -0.2375 -0.4208  0.3070
 3494TIP3    H131897   6.143   4.443   6.166 -0.1156  0.3949  0.7728
 3494TIP3    H231898   6.122   4.463   6.314  0.0531 -1.4764  1.0737
 3495TIP3   OH231899   4.553   4.289  14.211  0.4174  0.3401 -0.5811
 3495TIP3    H131900   4.621   4.325  14.153 -0.2899  1.5531 -0.7053
 3495TIP3    H231901   4.487   4.254  14.151 -0.0880  1.1623 -0.5261
 3496TIP3   OH231902   1.349   1.779   0.887  0.2347 -0.2407  0.2667
 3496TIP3    H131903   1.303   1.863   0.889 -1.1020 -0.9559  0.6554
 3496TIP3    H231904   1.362   1.761   0.793 -1.3465 -0.5584  0.0736
 3497TIP3   OH231905   5.294   3.713   4.500  0.0286 -0.5054 -0.5876
 3497TIP3    H131906   5.291   3.640   4.562 -0.7423  0.6610  0.8381
 3497TIP3    H231907   5.202   3.725   4.475  0.3553 -1.0546 -2.1098
 3498TIP3   OH231908   2.481   2.935   0.002 -0.2354 -0.6552  0.5510
 3498TIP3    H131909   2.525   2.992  -0.061 -1.6906 -0.2917 -0.1809
 3498TIP3    H231910   2.490   2.847  -0.034 -0.7789 -0.4843 -0.0229
 3499TIP3   OH231911   3.803   4.031  16.771  0.0832  0.6275 -0.4543
 3499TIP3    H131912   3.860   4.044  16.695  0.5979 -1.1384 -0.4238
 3499TIP3    H231913   3.724   4.081  16.751  0.2211  0.2359 -2.1552
 3500TIP3   OH231914   2.846   4.942  14.752 -0.3986  0.2648 -0.6771
 3500TIP3    H131915   2.824   5.013  14.813  0.9414  0.4108 -0.3208
 3500TIP3    H231916   2.849   4.864  14.806 -3.0125 -0.3288 -1.2679
 3501TIP3   OH231917   5.459   1.502   3.985  0.0274  0.0869 -0.0398
 3501TIP3    H131918   5.464   1.593   4.012  2.7409 -0.3722  1.3028
 3501TIP3    H231919   5.403   1.460   4.050 -0.0782  0.5355  0.1546
 3502TIP3   OH231920   5.650   4.830  15.742 -0.1138  0.2026  0.0689
 3502TIP3    H131921   5.571   4.843  15.794 -0.4355  1.3141 -0.6572
 3502TIP3    H231922   5.692   4.753  15.780  0.2040  1.5340  2.7029
 3503TIP3   OH231923   3.345   5.234   5.067 -0.0062  0.1346  0.4622
 3503TIP3    H131924   3.424   5.237   5.013  0.5448  1.6092  1.2883
 3503TIP3    H231925   3.293   5.162   5.031  2.0540 -1.4058  0.3939
 3504TIP3   OH231926   4.004   0.122   1.698 -0.1377  0.0173  0.0873
 3504TIP3    H131927   4.078   0.063   1.709 -0.0171  0.4100  1.6914
 3504TIP3    H231928   3.946   0.101   1.772 -0.7211  0.9881 -0.0834
 3505TIP3   OH231929   6.591   3.321   5.301  0.1392  0.3235 -0.0391
 3505TIP3    H131930   6.644   3.391   5.339  0.1601 -0.2383  1.0131
 3505TIP3    H231931   6.654   3.268   5.251  0.2667  0.6145 -0.1859
 3506TIP3   OH231932   6.762   5.925   2.980 -0.1890  0.1420  0.1294
 3506TIP3    H131933   6.779   5.881   2.897 -1.8141  0.5656 -0.4509
 3506TIP3    H231934   6.747   5.854   3.042  0.9192 -0.1731  0.0645
 3507TIP3   OH231935   4.069   0.719  17.220  0.1709 -0.3520 -0.4109
 3507TIP3    H131936   4.135   0.650  17.228  0.4883 -0.0428 -0.3895
 3507TIP3    H231937   4.001   0.680  17.165 -1.2132 -1.8971  2.1721
 3508TIP3   OH231938   5.062   0.864  11.925  0.3556 -0.0666 -0.2495
 3508TIP3    H131939   4.980   0.817  11.941  0.7724 -1.2590 -1.4869
 3508TIP3    H231940   5.119   0.841  11.998  1.5417 -3.8326 -2.1355
 3509TIP3   OH231941   4.337   0.682  11.704 -0.6527  0.3977  0.1245
 3509TIP3    H131942   4.301   0.692  11.616 -0.7556  0.7741  0.2112
 3509TIP3    H231943   4.313   0.762  11.750 -0.5475  0.2295  0.4794
 3510TIP3   OH231944   3.390   2.792  12.355 -0.4244 -0.1819  0.4089
 3510TIP3    H131945   3.481   2.767  12.371 -0.3947 -0.3848 -0.0621
 3510TIP3    H231946   3.354   2.808  12.443 -0.0511 -0.5068  0.6281
 3511TIP3   OH231947   1.511   0.344  13.705  0.0882  0.1683  0.2202
 3511TIP3    H131948   1.502   0.292  13.785  0.8140  0.0780  0.2479
 3511TIP3    H231949   1.422   0.349  13.670 -0.0768 -0.6578  0.4904
 3512TIP3   OH231950   1.212   6.075  12.566 -0.2218  0.0491  0.1980
 3512TIP3    H131951   1.208   6.061  12.472 -1.9733 -3.5732  0.6390
 3512TIP3    H231952   1.304   6.059  12.588  0.4186  1.9217 -0.9470
 3513TIP3   OH231953   2.669   1.715  14.971  0.4537 -0.2728  0.2977
 3513TIP3    H131954   2.742   1.653  14.975  0.1216 -0.6884  0.0731
 3513TIP3    H231955   2.607   1.674  14.911  0.5685  0.6561 -0.4806
 3514TIP3   OH231956   6.206   6.352  16.975  0.3021 -0.0227 -0.3037
 3514TIP3    H131957   6.281   6.357  16.916 -0.2562  0.4557 -0.9836
 3514TIP3    H231958   6.237   6.392  17.056  0.9767 -0.3948 -0.3697
 3515TIP3   OH231959   1.856   0.717   1.692 -0.5515  0.0545 -0.3370
 3515TIP3    H131960   1.811   0.731   1.608 -1.6031  1.5788  0.4164
 3515TIP3    H231961   1.862   0.805   1.730  1.2626 -0.4096  0.5288
 3516TIP3   OH231962   3.581   5.189  16.364 -0.2282 -0.2793  0.1268
 3516TIP3    H131963   3.522   5.235  16.424  1.4870  0.0367  1.6382
 3516TIP3    H231964   3.599   5.252  16.295 -0.6027  0.0861  0.3611
 3517TIP3   OH231965   4.031   6.509  15.435  0.1788  0.0417 -0.2893
 3517TIP3    H131966   3.979   6.586  15.460  0.2162 -0.4164  1.2911
 3517TIP3    H231967   3.982   6.470  15.362 -0.3314  1.0301 -0.5043
 3518TIP3   OH231968   4.929   2.819  14.756  0.7122 -0.3705  0.8226
 3518TIP3    H131969   4.841   2.854  14.740  0.5609 -0.7205  0.8851
 3518TIP3    H231970   4.987   2.895  14.747  0.5568 -0.3872 -0.6443
 3519TIP3   OH231971   3.791   2.865  15.665 -0.0453  0.1240 -0.5317
 3519TIP3    H131972   3.715   2.812  15.640 -1.3205  0.9515  1.3413
 3519TIP3    H231973   3.769   2.953  15.636  1.2726  0.0119 -2.0174
 3520TIP3   OH231974   3.242   2.098   1.309 -0.0982  0.1505  0.0580
 3520TIP3    H131975   3.166   2.144   1.345  0.4482 -0.1157  1.6244
 3520TIP3    H231976   3.318   2.148   1.341  0.4533  1.7620 -3.2864
 3521TIP3   OH231977   4.515   5.096  12.168  0.3906  0.5005  0.5976
 3521TIP3    H131978   4.587   5.054  12.122 -1.3376 -1.8072 -0.1491
 3521TIP3    H231979   4.504   5.180  12.123  0.6678 -0.4202 -1.2884
 3522TIP3   OH231980   5.469   1.562   3.491  0.0422  1.1392  0.1228
 3522TIP3    H131981   5.556   1.537   3.458 -0.8915 -0.2138 -1.4705
 3522TIP3    H231982   5.481   1.572   3.585  1.6575 -0.3191  0.1321
 3523TIP3   OH231983   1.437   1.430  12.029 -0.1353  0.5439 -0.0057
 3523TIP3    H131984   1.448   1.439  11.934 -0.2611  0.0061 -0.0749
 3523TIP3    H231985   1.488   1.352  12.051 -2.2030 -0.8993 -0.0461
 3524TIP3   OH231986   2.112   3.768  11.867  0.1322  0.4647 -0.4681
 3524TIP3    H131987   2.207   3.761  11.883  0.3130  2.8831 -0.1597
 3524TIP3    H231988   2.073   3.751  11.953  0.2210 -0.8659 -0.6618
 3525TIP3   OH231989   4.008   1.448  12.923 -0.4142 -0.6539 -0.1088
 3525TIP3    H131990   3.958   1.493  12.855 -0.1139  0.4098  0.3554
 3525TIP3    H231991   3.946   1.437  12.995  0.1197  1.1730  0.6862
 3526TIP3   OH231992   2.884   4.488  12.680  0.2391 -0.2151  0.4806
 3526TIP3    H131993   2.894   4.422  12.749 -2.9743 -1.6281 -0.2491
 3526TIP3    H231994   2.907   4.442  12.599 -1.2316 -0.2170  0.0521
 3527TIP3   OH231995   6.033   2.808  13.524  0.4486 -0.1491 -0.0242
 3527TIP3    H131996   6.102   2.850  13.576 -0.8339 -0.2701  1.8403
 3527TIP3    H231997   6.081   2.761  13.455  2.0368  2.5379 -0.9125
 3528TIP3   OH231998   6.005   4.625  15.566 -0.0773 -0.4929 -0.3902
 3528TIP3    H131999   5.976   4.536  15.585  1.1676 -0.5796  1.2751
 3528TIP3    H232000   5.948   4.654  15.494 -2.0204 -1.8119  0.5429
 3529TIP3   OH232001   6.219   1.310   5.681  0.4100 -0.7239 -0.3830
 3529TIP3    H132002   6.143   1.295   5.737 -0.2114 -0.4579 -1.1447
 3529TIP3    H232003   6.182   1.335   5.596  1.3295 -1.6325 -1.0733
 3530TIP3   OH232004   3.119   2.250   0.285 -0.0483  0.3825  0.1566
 3530TIP3    H132005   3.052   2.239   0.218 -1.3490  1.9879  1.1329
 3530TIP3    H232006   3.156   2.162   0.297 -2.6790 -0.7898  0.3084
 3531TIP3   OH232007   5.540   3.189   1.090 -0.6865 -0.4486  0.3341
 3531TIP3    H132008   5.470   3.199   1.155 -0.9325 -1.8439  0.3158
 3531TIP3    H232009   5.515   3.111   1.040 -1.4347  1.5590 -2.6502
 3532TIP3   OH232010   1.103   3.401   6.023 -0.1331  0.0824  0.2624
 3532TIP3    H132011   1.140   3.340   6.088 -0.6062 -0.2481  0.2210
 3532TIP3    H232012   1.097   3.484   6.070  0.3699  0.0666  0.3676
 3533TIP3   OH232013   2.934   1.178   5.451  0.0522 -0.2039  0.7404
 3533TIP3    H132014   2.846   1.214   5.462  0.1011  0.9078 -1.7359
 3533TIP3    H232015   2.958   1.201   5.361  2.8841 -0.4662  1.3320
 3534TIP3   OH232016   4.509   6.100  12.664 -0.2680 -0.2757 -0.0944
 3534TIP3    H132017   4.418   6.119  12.688 -0.9582 -2.4380 -0.7586
 3534TIP3    H232018   4.552   6.185  12.665 -2.4228  0.8919 -0.2576
 3535TIP3   OH232019   1.600   2.290   6.150 -0.9359  0.2628 -0.2092
 3535TIP3    H132020   1.676   2.348   6.154 -1.2449  0.6502  0.0713
 3535TIP3    H232021   1.623   2.217   6.206 -0.3589 -0.1159 -0.9202
 3536TIP3   OH232022   0.171   3.917   0.942 -0.0258  0.3732  0.1824
 3536TIP3    H132023   0.216   3.989   0.897 -0.8286  0.8928  0.1847
 3536TIP3    H232024   0.124   3.871   0.873 -0.5325  0.6265  0.3507
 3537TIP3   OH232025   2.588   0.048   4.726 -0.2834  0.0928  0.2475
 3537TIP3    H132026   2.515   0.021   4.782 -0.8413  2.6192  0.8567
 3537TIP3    H232027   2.648   0.093   4.784  0.3819  0.5390 -0.7524
 3538TIP3   OH232028   3.654   5.165  15.600  0.3581 -0.6488  0.3932
 3538TIP3    H132029   3.620   5.119  15.676  0.5121 -0.9121  0.3063
 3538TIP3    H232030   3.603   5.246  15.595 -3.3836 -2.8023 -2.1897
 3539TIP3   OH232031   4.902   3.895   3.099 -0.1121  0.3532 -0.1899
 3539TIP3    H132032   4.821   3.856   3.066  0.0987  0.9489 -1.4935
 3539TIP3    H232033   4.972   3.847   3.055  0.2786 -0.3811  1.1803
 3540TIP3   OH232034   6.609   6.621  16.592 -0.1932 -0.4012  0.2705
 3540TIP3    H132035   6.620   6.545  16.650 -1.7437  0.0083  1.1519
 3540TIP3    H232036   6.531   6.600  16.540  0.1359  0.0215 -0.4026
 3541TIP3   OH232037   5.768   4.124  11.192 -0.3239  0.2155  0.2222
 3541TIP3    H132038   5.841   4.081  11.147  1.5129  1.4240  1.8893
 3541TIP3    H232039   5.773   4.091  11.282 -1.2919  0.9947  0.5810
 3542TIP3   OH232040   2.902   1.354   0.249  0.0906 -0.0435 -0.6137
 3542TIP3    H132041   2.820   1.340   0.296 -0.1196  0.1145 -0.9337
 3542TIP3    H232042   2.936   1.437   0.282  0.0501 -0.0388 -0.5844
 3543TIP3   OH232043   5.885   2.387   0.171 -0.3775  0.0820 -1.3212
 3543TIP3    H132044   5.871   2.470   0.124 -1.6240  0.1381 -0.9090
 3543TIP3    H232045   5.977   2.389   0.198 -0.2981  1.1775 -1.6284
 3544TIP3   OH232046   2.890   3.717   0.817 -0.6274 -0.7618 -0.0098
 3544TIP3    H132047   2.923   3.807   0.821 -0.3636 -0.9081  1.4590
 3544TIP3    H232048   2.961   3.667   0.777 -0.6241 -0.3917 -0.4757
 3545TIP3   OH232049   3.921   4.231  11.411 -0.2748  0.0438  0.5097
 3545TIP3    H132050   3.891   4.322  11.406 -0.2437  0.0153 -0.2916
 3545TIP3    H232051   4.014   4.235  11.389 -0.5620 -0.3283 -0.8466
 3546TIP3   OH232052   4.638   0.943   0.068 -0.1801  0.5236  0.1111
 3546TIP3    H132053   4.634   0.849   0.048  0.5933  0.3170  0.8449
 3546TIP3    H232054   4.546   0.970   0.072 -0.4916 -0.5692  1.4519
 3547TIP3   OH232055   0.604   3.241  14.203 -0.0161 -0.4141  0.7779
 3547TIP3    H132056   0.620   3.326  14.162 -0.0562  0.6432  2.8001
 3547TIP3    H232057   0.515   3.218  14.177 -0.1170  0.3167  0.4622
 3548TIP3   OH232058   1.606   3.039   6.038 -0.6508  0.3448 -0.0707
 3548TIP3    H132059   1.654   3.090   6.102  1.2906  0.3284 -1.4339
 3548TIP3    H232060   1.668   2.973   6.007 -1.9918 -0.5885 -0.9110
 3549TIP3   OH232061   0.746   4.409  16.276 -0.2339  0.2669 -0.0679
 3549TIP3    H132062   0.759   4.410  16.181 -0.7665 -0.4451 -0.1575
 3549TIP3    H232063   0.699   4.490  16.294 -1.3851 -0.2530 -0.6216
 3550TIP3   OH232064   3.892   5.862  11.540  0.2447 -0.4207 -0.0557
 3550TIP3    H132065   3.820   5.800  11.546 -0.7949  0.6795 -0.8213
 3550TIP3    H232066   3.970   5.807  11.529 -0.6657 -1.5828 -0.9181
 3551TIP3   OH232067   2.461   6.561   3.330  0.0187 -1.2503 -0.5070
 3551TIP3    H132068   2.425   6.478   3.362 -0.8361 -0.9251 -0.5983
 3551TIP3    H232069   2.499   6.540   3.245  1.2120 -1.8684  0.1508
 3552TIP3   OH232070   4.722   1.000  12.732  0.6487  0.3979  0.5875
 3552TIP3    H132071   4.812   1.014  12.701  1.3164 -3.1677  0.5138
 3552TIP3    H232072   4.667   1.032  12.661  1.9079  0.6728 -0.3008
 3553TIP3   OH232073   4.195   1.122   2.238 -0.3652 -0.2218 -0.4603
 3553TIP3    H132074   4.202   1.174   2.158 -1.5054 -0.0766 -0.4810
 3553TIP3    H232075   4.258   1.051   2.227  1.5192  1.3579 -0.2580
 3554TIP3   OH232076   4.598   0.990   4.037  0.4755  0.0031 -0.0112
 3554TIP3    H132077   4.582   0.908   3.991  2.1652 -0.4490  0.1418
 3554TIP3    H232078   4.564   0.975   4.125 -1.4895  0.3776 -0.6728
 3555TIP3   OH232079   3.356   6.192  16.015  0.2558 -0.2848  0.3981
 3555TIP3    H132080   3.339   6.225  16.104  1.4908  2.4321 -0.2556
 3555TIP3    H232081   3.269   6.183  15.976 -0.2377  0.0059  1.3952
 3556TIP3   OH232082   6.759   1.740   3.403  0.2674 -0.0606 -0.2853
 3556TIP3    H132083   6.675   1.695   3.395 -0.5518  1.1710  0.8363
 3556TIP3    H232084   6.806   1.692   3.471 -0.8993  1.0779  1.4383
 3557TIP3   OH232085   6.457   5.953   5.506 -0.0357 -0.3498 -0.1154
 3557TIP3    H132086   6.440   6.037   5.463 -1.6496 -0.5636  0.0503
 3557TIP3    H232087   6.371   5.920   5.530  0.6932 -1.1943  1.4937
 3558TIP3   OH232088   4.606   0.926  13.540 -0.2628  0.8571  0.0717
 3558TIP3    H132089   4.674   0.953  13.479  1.0166  0.8229  1.4199
 3558TIP3    H232090   4.548   0.870  13.488  0.5529  1.1383 -1.1857
 3559TIP3   OH232091   4.809   5.214   5.076  0.1213 -0.1997  0.4533
 3559TIP3    H132092   4.896   5.174   5.074  0.4036  0.2297  2.2326
 3559TIP3    H232093   4.827   5.308   5.080 -0.2576 -0.1614  3.8267
 3560TIP3   OH232094   3.945   1.225   5.577 -0.0274  0.0825  0.2625
 3560TIP3    H132095   4.005   1.172   5.524  0.4601 -0.6182  1.4861
 3560TIP3    H232096   3.862   1.176   5.575  0.1631 -0.2582  0.6439
 3561TIP3   OH232097   1.490   3.216   5.415 -0.5968  0.4129  0.2303
 3561TIP3    H132098   1.534   3.142   5.372 -1.3016  0.7230 -1.0537
 3561TIP3    H232099   1.562   3.270   5.448 -0.0432  0.0462 -0.3537
 3562TIP3   OH232100   1.874   3.160   2.118  0.4915 -0.4008  0.3223
 3562TIP3    H132101   1.861   3.087   2.179 -0.3125  0.6559  1.4721
 3562TIP3    H232102   1.918   3.227   2.170 -0.9860  0.8621  0.0361
 3563TIP3   OH232103   0.410   2.511  16.154  0.3278 -0.6388 -0.7098
 3563TIP3    H132104   0.471   2.583  16.165  0.4769 -0.9168  0.3662
 3563TIP3    H232105   0.342   2.545  16.096 -0.0770  0.6607  0.4945
 3564TIP3   OH232106   4.504   4.152  13.975  0.3091  0.8119 -0.7765
 3564TIP3    H132107   4.414   4.183  13.964  0.2923  0.8928 -0.4276
 3564TIP3    H232108   4.551   4.187  13.899  0.3681  1.9791 -0.2201
 3565TIP3   OH232109   5.733   4.368  15.326  0.1329  0.0737 -0.6731
 3565TIP3    H132110   5.736   4.276  15.354 -0.1248  0.4679  0.7260
 3565TIP3    H232111   5.697   4.415  15.401  0.6655  1.3858 -1.2065
 3566TIP3   OH232112   4.228   6.667   3.370  0.4371  0.3736  0.1799
 3566TIP3    H132113   4.316   6.633   3.387  0.8598  0.6928 -1.2489
 3566TIP3    H232114   4.232   6.759   3.397  0.6119  0.4390 -0.0611
 3567TIP3   OH232115   2.225   0.157  16.770  0.6511 -0.3667  0.0160
 3567TIP3    H132116   2.261   0.201  16.693 -1.5859  0.4856 -0.6167
 3567TIP3    H232117   2.220   0.065  16.744  0.6317 -0.2088 -0.5665
 3568TIP3   OH232118   1.641   5.693  14.274 -0.1861 -0.4526  1.2541
 3568TIP3    H132119   1.599   5.771  14.238  0.4282 -0.7878 -0.2263
 3568TIP3    H232120   1.717   5.727  14.323 -0.1832 -0.0967  1.0057
 3569TIP3   OH232121   3.907   2.160  15.097  0.1349  0.0632 -0.1711
 3569TIP3    H132122   3.821   2.197  15.076  0.1245 -0.0315 -0.2940
 3569TIP3    H232123   3.904   2.071  15.063  0.6717  0.4144 -1.1803
 3570TIP3   OH232124   5.810   4.476   1.822  0.1417  0.0805 -0.2448
 3570TIP3    H132125   5.883   4.422   1.850 -1.1382 -0.5120  2.2547
 3570TIP3    H232126   5.807   4.548   1.886 -0.0242  1.4447 -1.7239
 3571TIP3   OH232127   1.592   4.908   4.452 -0.0779  0.5665 -0.3674
 3571TIP3    H132128   1.581   4.927   4.359  0.2807  1.2795 -0.2670
 3571TIP3    H232129   1.686   4.921   4.468  0.4373 -2.2451 -0.4986
 3572TIP3   OH232130   2.670   5.405   0.089  1.1979  0.3486 -0.0228
 3572TIP3    H132131   2.648   5.497   0.107  0.4966  0.0763  0.5455
 3572TIP3    H232132   2.734   5.383   0.156  2.2063  0.7292 -0.8275
 3573TIP3   OH232133   4.003   5.865  12.366 -0.2454  0.6807  0.0006
 3573TIP3    H132134   4.044   5.863  12.452 -0.7111  0.3426  0.2155
 3573TIP3    H232135   4.075   5.847  12.305 -0.2927 -1.3936  0.4621
 3574TIP3   OH232136   6.326   5.261  15.301  0.4456  0.0599  0.2560
 3574TIP3    H132137   6.264   5.309  15.356 -1.9729 -1.9677 -0.4950
 3574TIP3    H232138   6.359   5.191  15.357  1.7266  0.8172  0.4897
 3575TIP3   OH232139   1.502   1.481  15.992 -0.0565 -0.4409  0.1059
 3575TIP3    H132140   1.484   1.540  15.919  0.5905  0.2081  0.4665
 3575TIP3    H232141   1.585   1.439  15.969  0.1840 -0.1830  0.5074
 3576TIP3   OH232142   2.928   0.685   3.095  0.6352  0.0505 -0.2920
 3576TIP3    H132143   2.879   0.643   3.166 -0.5537  2.9624  0.7477
 3576TIP3    H232144   3.000   0.624   3.077 -1.9552 -3.3394 -0.3026
 3577TIP3   OH232145   5.393   2.782   4.630  0.1749 -0.0905 -0.3842
 3577TIP3    H132146   5.297   2.780   4.628  0.1061  1.3637 -0.0778
 3577TIP3    H232147   5.417   2.738   4.711 -0.2272 -0.5779 -0.5271
 3578TIP3   OH232148   0.204   2.410   2.422 -0.0954  0.6073  0.0779
 3578TIP3    H132149   0.146   2.335   2.432  2.6040 -1.5037  1.1866
 3578TIP3    H232150   0.173   2.472   2.488 -1.4706 -0.1468  0.1894
 3579TIP3   OH232151   1.348   6.061  16.338 -0.4604  0.4681  0.4394
 3579TIP3    H132152   1.320   6.001  16.269 -3.7882  0.5367  1.5586
 3579TIP3    H232153   1.404   6.008  16.394  0.0960 -0.3445 -0.8305
 3580TIP3   OH232154   3.708   2.382  14.295 -0.7416  0.3166  0.1618
 3580TIP3    H132155   3.733   2.322  14.225  2.1944  0.1471  1.2129
 3580TIP3    H232156   3.655   2.449  14.252  2.2235  1.1334 -2.6410
 3581TIP3   OH232157   1.476   4.218  15.023  0.0556  0.2737  0.0932
 3581TIP3    H132158   1.549   4.171  15.062  0.0735  0.4664  0.2953
 3581TIP3    H232159   1.403   4.155  15.024  0.0183  0.3251  0.5668
 3582TIP3   OH232160   3.585   4.391  14.355  0.1042  0.3882 -0.0006
 3582TIP3    H132161   3.576   4.479  14.319  1.7585  0.5515 -0.0774
 3582TIP3    H232162   3.578   4.333  14.278 -0.2568  0.4818 -0.0425
 3583TIP3   OH232163   0.406   2.991  11.112 -0.4865 -0.5162  0.8272
 3583TIP3    H132164   0.461   2.976  11.189  0.1599 -0.5116  0.3764
 3583TIP3    H232165   0.451   2.945  11.041 -0.9280 -0.2920  0.3961
 3584TIP3   OH232166   5.323   3.295  13.171 -0.3958  0.1346  0.0686
 3584TIP3    H132167   5.397   3.355  13.184  0.2388 -0.3554 -1.0929
 3584TIP3    H232168   5.250   3.351  13.148  0.0813  0.5040 -0.5764
 3585TIP3   OH232169   0.849   1.190  14.170  0.4808 -0.5200 -0.0248
 3585TIP3    H132170   0.827   1.248  14.098  0.4596 -1.1793 -0.5645
 3585TIP3    H232171   0.776   1.128  14.174  1.0243 -1.1812 -0.1769
 3586TIP3   OH232172   6.705   2.956   4.208 -0.7278 -0.3204 -0.3537
 3586TIP3    H132173   6.620   2.999   4.197 -1.3355 -1.2134  0.6093
 3586TIP3    H232174   6.689   2.891   4.277  0.8317 -0.2740  0.0728
 3587TIP3   OH232175   3.491   4.435  10.586  0.4339  0.0776 -0.5335
 3587TIP3    H132176   3.416   4.494  10.581  1.0660  1.3209  2.4408
 3587TIP3    H232177   3.454   4.348  10.583 -0.7515  0.6036 -2.6703
 3588TIP3   OH232178   3.728   4.657   2.290 -0.2717  0.1701  0.3779
 3588TIP3    H132179   3.733   4.752   2.283  0.2196  0.0757 -0.7825
 3588TIP3    H232180   3.725   4.626   2.199 -2.2539 -0.8462  0.7343
 3589TIP3   OH232181   1.556   0.033   3.856  0.5054 -0.1052  0.0708
 3589TIP3    H132182   1.470   0.035   3.812  0.9919 -0.6857 -0.9573
 3589TIP3    H232183   1.560  -0.055   3.894 -0.1227  0.5613  1.7762
 3590TIP3   OH232184   4.709   4.925   0.080 -0.2963  0.3416  0.5095
 3590TIP3    H132185   4.679   4.848   0.128 -1.5799  0.5148  0.0143
 3590TIP3    H232186   4.755   4.978   0.146 -0.1652 -0.4248  1.0452
 3591TIP3   OH232187   3.324   3.234  17.038  0.2206  0.1970 -0.2936
 3591TIP3    H132188   3.328   3.145  17.074 -1.3996  0.0445 -0.3948
 3591TIP3    H232189   3.310   3.220  16.944  0.4823  0.5686 -0.3883
 3592TIP3   OH232190   3.648   5.364   0.952  0.4670  0.4253 -0.0166
 3592TIP3    H132191   3.704   5.438   0.978 -0.2591  1.6851 -1.8287
 3592TIP3    H232192   3.562   5.403   0.939 -0.3464 -1.0947  0.6410
 3593TIP3   OH232193   4.849   4.340   1.000 -0.5049  0.2756  0.5304
 3593TIP3    H132194   4.776   4.396   1.026 -1.7474 -1.5203  1.1194
 3593TIP3    H232195   4.818   4.251   1.018  0.8811 -0.7001 -1.5683
 3594TIP3   OH232196   0.138   6.375  14.129 -0.8952 -0.1355  0.0031
 3594TIP3    H132197   0.066   6.367  14.066 -0.7347 -1.2202 -0.0647
 3594TIP3    H232198   0.217   6.377  14.076 -0.7932 -0.4592  0.1400
 3595TIP3   OH232199   3.311   2.486  14.423 -0.4509  0.2918  0.2116
 3595TIP3    H132200   3.294   2.580  14.421 -1.4465  0.1098 -0.9277
 3595TIP3    H232201   3.227   2.447  14.447  0.0965 -0.2979  1.2602
 3596TIP3   OH232202   6.485   6.094   5.842 -0.4280 -0.5121 -0.6249
 3596TIP3    H132203   6.398   6.059   5.824 -0.3840 -0.8273 -0.2372
 3596TIP3    H232204   6.469   6.179   5.883 -0.5650 -0.8106 -0.0550
 3597TIP3   OH232205   3.049   6.006   1.837 -0.2950  0.0949 -0.1652
 3597TIP3    H132206   3.033   5.982   1.746  0.8274 -1.7591  0.0624
 3597TIP3    H232207   3.118   6.072   1.832 -0.1824 -0.0528 -0.6769
 3598TIP3   OH232208   4.416   5.519  13.074  0.2803 -0.1668  0.1425
 3598TIP3    H132209   4.409   5.447  13.136  0.2080 -1.4480 -1.2968
 3598TIP3    H232210   4.461   5.588  13.123 -0.3614 -0.8633  1.8104
 3599TIP3   OH232211   4.396   4.488   2.110 -0.5345 -0.0886  0.5235
 3599TIP3    H132212   4.458   4.416   2.111  0.7117  0.9520  0.5850
 3599TIP3    H232213   4.379   4.507   2.203 -0.7791 -0.2371  0.5090
 3600TIP3   OH232214   3.911   2.248   0.279 -0.1800  0.2991 -0.6162
 3600TIP3    H132215   3.984   2.300   0.246 -1.1548  0.2731 -2.9663
 3600TIP3    H232216   3.951   2.167   0.310  0.8357  0.5161 -1.3187
 3601TIP3   OH232217   4.264   3.865  14.707 -0.3618 -0.2337 -0.4846
 3601TIP3    H132218   4.338   3.807  14.691 -2.1118 -2.3639 -1.3656
 3601TIP3    H232219   4.201   3.811  14.755 -1.1668  1.6579  0.6941
 3602TIP3   OH232220   3.518   2.775   4.149 -0.6046  0.0106 -0.5805
 3602TIP3    H132221   3.476   2.797   4.232  0.2859  0.0892 -0.1358
 3602TIP3    H232222   3.558   2.857   4.120 -0.1925 -0.2151 -0.6573
 3603TIP3   OH232223   0.489   1.777   5.108  0.2790  0.0786 -0.1884
 3603TIP3    H132224   0.580   1.746   5.117  0.8991  2.0845  1.0158
 3603TIP3    H232225   0.436   1.700   5.127  1.7347 -0.8684  0.2010
 3604TIP3   OH232226   3.819   6.371  16.813 -0.5760 -0.3179 -0.3878
 3604TIP3    H132227   3.766   6.291  16.816 -1.1317  0.0439 -0.5717
 3604TIP3    H232228   3.756   6.442  16.820 -0.0382  0.1068  0.3055
 3605TIP3   OH232229   6.104   5.915  10.859 -0.6141 -0.5079 -0.7248
 3605TIP3    H132230   6.168   5.981  10.831  1.6938 -0.7968  3.1285
 3605TIP3    H232231   6.131   5.835  10.814  0.3265 -0.1118 -0.8837
 3606TIP3   OH232232   2.497   2.753   2.127  0.0620 -0.1510 -0.2591
 3606TIP3    H132233   2.534   2.700   2.197 -1.4616  0.0386  0.7513
 3606TIP3    H232234   2.507   2.843   2.157  1.8484  0.1411 -1.5695
 3607TIP3   OH232235   2.642   5.681   0.052 -0.2339 -0.5291  0.3416
 3607TIP3    H132236   2.652   5.708   0.143 -1.6150 -0.2604  0.4385
 3607TIP3    H232237   2.549   5.694   0.033 -0.3226 -2.2423 -0.5879
 3608TIP3   OH232238   1.559   3.385   1.687  0.1206  0.1212 -0.2038
 3608TIP3    H132239   1.573   3.395   1.781 -1.9173 -0.0903  0.1572
 3608TIP3    H232240   1.644   3.356   1.653  1.0535  0.7831  1.4596
 3609TIP3   OH232241   0.507   1.049  13.925 -0.2684  0.2020 -0.1294
 3609TIP3    H132242   0.534   0.963  13.894 -0.0224  0.0350  0.5301
 3609TIP3    H232243   0.564   1.066  14.000 -1.2036  0.3750  0.5465
 3610TIP3   OH232244   3.082   0.642  15.322  0.0303 -0.2300 -0.2459
 3610TIP3    H132245   2.996   0.672  15.294 -0.3020  0.2566  1.1763
 3610TIP3    H232246   3.143   0.701  15.278 -0.2720 -1.0669 -1.8832
 3611TIP3   OH232247   4.706   2.182  12.616 -0.3491  0.1588 -0.7204
 3611TIP3    H132248   4.626   2.224  12.647 -0.1035  0.6098 -0.6985
 3611TIP3    H232249   4.713   2.207  12.524 -0.0225  0.4438 -0.6178
 3612TIP3   OH232250   5.097   3.256  12.756 -0.3572  0.3933  0.5819
 3612TIP3    H132251   5.002   3.248  12.753 -0.1953 -2.3507  0.2603
 3612TIP3    H232252   5.125   3.245  12.665  0.3584 -1.4903  0.9850
 3613TIP3   OH232253   1.309   5.840   1.435 -0.0700 -0.0299 -0.1511
 3613TIP3    H132254   1.315   5.935   1.449  1.0318 -0.3149  1.5531
 3613TIP3    H232255   1.349   5.827   1.348  1.2767  0.9208  0.2865
 3614TIP3   OH232256   2.107   0.600  14.185  0.3384  0.3023 -0.4331
 3614TIP3    H132257   2.178   0.594  14.249  2.3441  1.4647 -2.3917
 3614TIP3    H232258   2.061   0.681  14.206  0.0272 -0.0818  0.4039
 3615TIP3   OH232259   5.915   1.469   4.638  0.3120  0.0282 -0.2226
 3615TIP3    H132260   5.856   1.408   4.682  2.0136 -2.6305 -1.3650
 3615TIP3    H232261   5.858   1.522   4.583 -1.2012 -1.1628  0.1232
 3616TIP3   OH232262   1.365   5.823  14.655  0.2368 -0.2163 -0.1748
 3616TIP3    H132263   1.352   5.777  14.572  0.4117  0.2528 -0.4691
 3616TIP3    H232264   1.321   5.907  14.642  1.7977  0.6039 -0.4683
 3617TIP3   OH232265   2.989   6.265   6.180  0.2338 -0.2687  0.3059
 3617TIP3    H132266   3.069   6.249   6.230 -0.0145 -0.6571  0.5831
 3617TIP3    H232267   2.988   6.360   6.166  0.9557 -0.3066 -0.0597
 3618TIP3   OH232268   1.280   5.357  11.148  0.2406  0.0499 -0.1877
 3618TIP3    H132269   1.268   5.397  11.234 -1.4547 -0.8487  0.0417
 3618TIP3    H232270   1.199   5.308  11.134  0.2602  0.5807 -2.5198
 3619TIP3   OH232271   6.539   3.772   3.660 -0.7000  0.1784  0.0285
 3619TIP3    H132272   6.499   3.822   3.732  0.6098  1.0401  0.1912
 3619TIP3    H232273   6.471   3.710   3.634 -2.5521  2.2495 -0.4051
 3620TIP3   OH232274   1.354   2.673  15.684  0.2768  0.1211 -0.2019
 3620TIP3    H132275   1.365   2.768  15.693 -1.0836  0.1968  0.9538
 3620TIP3    H232276   1.433   2.637  15.725  1.2466  0.7349 -1.4535
 3621TIP3   OH232277   5.783   5.706   5.751 -0.1606 -0.2481  0.5041
 3621TIP3    H132278   5.778   5.735   5.660 -2.4829 -0.6144  0.4692
 3621TIP3    H232279   5.833   5.625   5.748 -0.6015 -0.4954 -0.5168
 3622TIP3   OH232280   0.927   4.398  11.543 -0.4159  0.2969 -0.0423
 3622TIP3    H132281   0.988   4.420  11.473  0.4066  0.0744  0.5801
 3622TIP3    H232282   0.885   4.482  11.565  0.0560  0.5568 -0.1197
 3623TIP3   OH232283   1.792   6.257  13.180  0.1720 -0.0961 -0.2873
 3623TIP3    H132284   1.818   6.169  13.154  1.1582  0.0005  0.3040
 3623TIP3    H232285   1.719   6.279  13.123 -0.3445 -1.4481 -0.1706
 3624TIP3   OH232286   0.834   3.342  13.265 -0.3652  0.2491 -0.1465
 3624TIP3    H132287   0.872   3.360  13.179 -0.6968 -0.3968 -0.4382
 3624TIP3    H232288   0.761   3.402  13.273 -1.2564 -0.6833 -0.9654
 3625TIP3   OH232289   4.677   2.751   6.421  0.1110  0.0844  0.4618
 3625TIP3    H132290   4.672   2.712   6.509 -1.2904  1.3841  1.0112
 3625TIP3    H232291   4.730   2.830   6.433  2.4305 -1.2361 -0.5161
 3626TIP3   OH232292   0.149   0.642   5.250 -0.1322 -0.1307  0.1627
 3626TIP3    H132293   0.227   0.589   5.235  1.8651  2.5685  0.3056
 3626TIP3    H232294   0.111   0.607   5.331  0.8757 -1.5700  0.0409
 3627TIP3   OH232295   1.786   4.164   6.435 -0.5069  0.3129  0.3918
 3627TIP3    H132296   1.771   4.256   6.412  0.9695  0.5365  0.2063
 3627TIP3    H232297   1.746   4.114   6.364 -1.7334  0.7775  0.7333
 3628TIP3   OH232298   4.958   1.529  15.888  0.0643 -0.3779  0.6070
 3628TIP3    H132299   4.966   1.529  15.983 -0.3250  1.4595  0.6931
 3628TIP3    H232300   5.027   1.589  15.858 -0.0355 -0.6711 -0.2442
 3629TIP3   OH232301   1.399   0.659  13.369  0.1741  0.5777 -0.0495
 3629TIP3    H132302   1.457   0.707  13.311  0.7282  0.5499  0.4724
 3629TIP3    H232303   1.312   0.693  13.350  0.5918  2.0802  0.5866
 3630TIP3   OH232304   3.482   4.122  15.615 -0.5082  0.1122  0.7134
 3630TIP3    H132305   3.413   4.186  15.597 -1.2392  0.1069  3.1238
 3630TIP3    H232306   3.555   4.174  15.649 -0.8660 -0.2260  2.0587
 3631TIP3   OH232307   3.310   1.215  16.514  0.0599 -0.1137  0.1612
 3631TIP3    H132308   3.371   1.144  16.493  0.7833  0.3190  0.7714
 3631TIP3    H232309   3.362   1.278  16.564 -0.6288  0.7486 -0.1790
 3632TIP3   OH232310   3.252   4.566  10.541 -0.0748 -0.3102  0.6437
 3632TIP3    H132311   3.219   4.630  10.478  1.3152 -1.7704 -1.7556
 3632TIP3    H232312   3.181   4.503  10.552  0.0138 -0.6240 -0.4044
 3633TIP3   OH232313   4.015   4.040  15.833 -0.2582  0.1585  0.4952
 3633TIP3    H132314   4.098   3.996  15.849 -1.0097 -0.8750  1.7482
 3633TIP3    H232315   3.955   3.970  15.807 -0.3490  1.1193 -2.1975
 3634TIP3   OH232316   3.223   2.412   1.680  0.0972 -0.4580  0.4553
 3634TIP3    H132317   3.165   2.373   1.614 -0.3320 -0.7659  0.9973
 3634TIP3    H232318   3.302   2.358   1.676  1.1553  1.1207 -1.6115
 3635TIP3   OH232319   0.080   0.822   4.584  0.1133  0.4854 -0.3178
 3635TIP3    H132320   0.126   0.905   4.596  2.4820 -0.3270 -2.8152
 3635TIP3    H232321   0.133   0.758   4.631 -0.2183 -0.0049 -0.6045
 3636TIP3   OH232322   5.965   0.295   1.525 -0.5811 -0.3388 -0.4126
 3636TIP3    H132323   5.971   0.205   1.558 -0.2829 -0.0968  0.2092
 3636TIP3    H232324   6.041   0.339   1.562 -1.6475  0.6168  0.7367
 3637TIP3   OH232325   0.825   2.184   1.139  0.0889  0.3269  0.2389
 3637TIP3    H132326   0.908   2.226   1.116  0.3120 -0.2550 -0.0557
 3637TIP3    H232327   0.781   2.247   1.196  1.3452  0.0924  1.5347
 3638TIP3   OH232328   6.686   6.207   3.786 -0.2624  0.3839 -0.2906
 3638TIP3    H132329   6.741   6.140   3.826  0.5005 -0.4855 -2.6616
 3638TIP3    H232330   6.597   6.172   3.792  0.2152 -1.3698 -2.3212
 3639TIP3   OH232331   6.573   1.228  14.011  0.4772  0.3105 -0.1255
 3639TIP3    H132332   6.485   1.217  14.048  0.2348  3.9988  0.7009
 3639TIP3    H232333   6.558   1.244  13.918  0.4280 -0.2803 -0.2287
 3640TIP3   OH232334   4.719   2.827  15.567 -0.0674  0.2344  0.9318
 3640TIP3    H132335   4.799   2.878  15.560 -2.0231  3.4160 -0.3194
 3640TIP3    H232336   4.701   2.798  15.478 -1.4574  1.6406  0.7011
 3641TIP3   OH232337   4.623   0.443   6.487  0.0637 -0.5586 -0.0679
 3641TIP3    H132338   4.685   0.462   6.557 -1.2112 -0.7830  1.1565
 3641TIP3    H232339   4.605   0.349   6.496 -0.7476 -0.4125 -0.1648
 3642TIP3   OH232340   1.034   4.456  12.676  0.2600  0.3405 -0.0223
 3642TIP3    H132341   1.103   4.392  12.656  0.3126 -0.1052  1.4846
 3642TIP3    H232342   0.953   4.406  12.672  0.1499  0.5403 -0.3513
 3643TIP3   OH232343   6.580   2.187  15.922 -0.1065  0.1687 -0.3999
 3643TIP3    H132344   6.572   2.106  15.872 -2.9864  1.1533 -1.7581
 3643TIP3    H232345   6.584   2.257  15.856 -1.4377  1.3483  0.6975
 3644TIP3   OH232346   6.709   5.075  12.305  0.5410 -0.1369 -0.4725
 3644TIP3    H132347   6.698   5.170  12.299  0.1677 -0.1697 -0.3451
 3644TIP3    H232348   6.678   5.042  12.220 -1.3742 -0.3113  0.2452
 3645TIP3   OH232349   1.354   0.079   2.146  0.0203 -0.1034 -0.4430
 3645TIP3    H132350   1.426   0.021   2.121 -0.2596 -0.5444 -0.2517
 3645TIP3    H232351   1.305   0.092   2.066  1.5958  2.0980 -1.1312
 3646TIP3   OH232352   4.935   3.780  15.345 -0.2928  0.1884 -0.1330
 3646TIP3    H132353   4.849   3.742  15.326 -1.6173  2.3554  1.1450
 3646TIP3    H232354   4.934   3.796  15.439  0.5879  2.3085 -0.4278
 3647TIP3   OH232355   3.633   3.366  17.054 -0.1231  0.1876 -0.2978
 3647TIP3    H132356   3.573   3.292  17.065  1.6317 -1.1514  0.6389
 3647TIP3    H232357   3.694   3.359  17.127  0.9733  1.7248 -1.0179
 3648TIP3   OH232358   2.392   3.363   6.339 -0.2047  0.4781 -0.1705
 3648TIP3    H132359   2.357   3.429   6.399  1.1207 -0.3400  1.5731
 3648TIP3    H232360   2.487   3.367   6.352  0.0441 -0.3903 -1.5275
 3649TIP3   OH232361   4.214   2.779   5.605 -0.2347 -0.0304  0.1139
 3649TIP3    H132362   4.193   2.765   5.698  0.4798 -0.5235  0.2073
 3649TIP3    H232363   4.205   2.692   5.566  0.6194 -0.0523 -0.0430
 3650TIP3   OH232364   0.754   3.116  13.994  0.7276  0.2336 -0.1000
 3650TIP3    H132365   0.832   3.113  14.049  0.7880 -3.0642 -0.1926
 3650TIP3    H232366   0.683   3.144  14.053  1.0840 -1.6818  1.3169
 3651TIP3   OH232367   6.504   6.346   0.642  0.0667  0.3987 -0.5033
 3651TIP3    H132368   6.491   6.311   0.554  0.4527 -1.1516  0.0157
 3651TIP3    H232369   6.583   6.302   0.674 -0.3782  0.4936  0.8154
 3652TIP3   OH232370   6.582   2.558  16.711 -1.0380  0.0466 -0.6941
 3652TIP3    H132371   6.626   2.519  16.635 -0.2943  0.5860 -0.5400
 3652TIP3    H232372   6.489   2.541  16.695 -0.7329 -2.3890 -0.3197
 3653TIP3   OH232373   2.107   5.815   2.556  0.0037  0.1154  0.0486
 3653TIP3    H132374   2.014   5.793   2.552  0.2786 -1.4640  1.4742
 3653TIP3    H232375   2.152   5.734   2.532  1.0234  0.6645  0.0486
 3654TIP3   OH232376   2.314   3.341   2.526  0.7948  0.6201 -0.1955
 3654TIP3    H132377   2.365   3.416   2.499 -0.8007  1.4814 -0.9808
 3654TIP3    H232378   2.363   3.302   2.599  1.9881  2.0054 -0.2327
 3655TIP3   OH232379   1.613   1.459  17.154  0.2131  0.2811 -0.3109
 3655TIP3    H132380   1.541   1.444  17.093 -0.6341  3.3763 -0.2185
 3655TIP3    H232381   1.574   1.507  17.226  2.0264  0.3157  0.6949
 3656TIP3   OH232382   4.724   1.797  10.613  0.1850 -0.2017  0.1847
 3656TIP3    H132383   4.749   1.840  10.532  1.3621 -0.3403  0.4529
 3656TIP3    H232384   4.658   1.855  10.652 -0.8572 -0.4402 -1.1356
 3657TIP3   OH232385   1.582   6.722  11.404  0.0926 -0.4367  0.1098
 3657TIP3    H132386   1.585   6.672  11.485 -0.1310  0.4140  0.6482
 3657TIP3    H232387   1.623   6.806  11.425  0.1021 -0.2293 -0.6752
 3658TIP3   OH232388   0.394   4.031   5.762 -0.2621  0.0870 -0.2036
 3658TIP3    H132389   0.446   4.061   5.837  0.3781  1.5171 -1.1620
 3658TIP3    H232390   0.312   4.080   5.769  0.0736  0.7575 -0.7877
 3659TIP3   OH232391   2.270   0.217  15.641 -0.5044 -0.2033  0.3540
 3659TIP3    H132392   2.221   0.253  15.567  1.1272  2.2466  0.3318
 3659TIP3    H232393   2.349   0.180  15.602 -1.3874 -2.4663  0.5685
 3660TIP3   OH232394   6.487   6.656  16.963 -0.7905  0.0341 -0.1891
 3660TIP3    H132395   6.574   6.698  16.964 -0.6036 -0.3200 -1.1077
 3660TIP3    H232396   6.461   6.656  16.871 -1.9457  0.4770  0.1189
 3661TIP3   OH232397   3.021   4.233  11.809 -0.2791  0.3314 -0.1501
 3661TIP3    H132398   3.036   4.142  11.784 -1.5797 -0.1104  0.6071
 3661TIP3    H232399   3.098   4.280  11.776  0.7135 -1.1381  0.0183
 3662TIP3   OH232400   4.848   1.389   5.169 -0.3780 -0.1972 -0.4814
 3662TIP3    H132401   4.883   1.406   5.081  1.3037 -0.0796  0.1800
 3662TIP3    H232402   4.832   1.476   5.206  0.5160 -0.1966 -0.0719
 3663TIP3   OH232403   5.409   3.587  15.727  0.1632 -0.2378 -0.0439
 3663TIP3    H132404   5.402   3.497  15.694  0.6906 -0.4956  0.5243
 3663TIP3    H232405   5.399   3.578  15.822 -3.5136  0.7317 -0.1880
 3664TIP3   OH232406   2.151   3.618  16.476  0.0826 -0.1136 -0.2874
 3664TIP3    H132407   2.209   3.679  16.521 -0.3867  1.3854 -1.6217
 3664TIP3    H232408   2.063   3.653  16.490 -0.3022 -1.0742 -0.2068
 3665TIP3   OH232409   6.556   2.440   5.942  0.4728  0.5221  0.1065
 3665TIP3    H132410   6.522   2.373   5.883 -1.5872  1.4193  0.1943
 3665TIP3    H232411   6.532   2.408   6.029  1.6154  0.2515  0.3455
 3666TIP3   OH232412   3.743   6.341   3.463  0.2576 -0.5638  0.1774
 3666TIP3    H132413   3.752   6.311   3.554  0.0162 -0.5405  0.2101
 3666TIP3    H232414   3.801   6.417   3.457 -0.4856  0.0517  0.5931
 3667TIP3   OH232415   4.500   3.087  17.168 -0.0408 -0.0937  0.3127
 3667TIP3    H132416   4.525   3.105  17.259  1.6747 -0.1827 -0.1142
 3667TIP3    H232417   4.484   3.173  17.130  0.1260 -0.0009  0.4508
 3668TIP3   OH232418   0.895   5.755  16.275 -0.2302  0.6473  0.3860
 3668TIP3    H132419   0.826   5.730  16.213  0.4459 -1.5708  0.4225
 3668TIP3    H232420   0.883   5.697  16.350  2.6713 -1.1744 -0.3688
 3669TIP3   OH232421   1.528   6.758   4.336  0.0975  0.3289 -0.2302
 3669TIP3    H132422   1.481   6.840   4.320  1.5753  1.4754  1.0181
 3669TIP3    H232423   1.581   6.745   4.257  1.0708  1.4780  0.2021
 3670TIP3   OH232424   0.568   5.075   4.217  0.1138 -0.0761  0.4707
 3670TIP3    H132425   0.547   5.004   4.157 -0.9113  2.4019 -2.3577
 3670TIP3    H232426   0.496   5.076   4.280  0.7012 -2.1175  1.2632
 3671TIP3   OH232427   3.555   2.802  15.552  0.0955  0.2922 -0.4824
 3671TIP3    H132428   3.498   2.816  15.627  0.8381 -1.0270  0.3598
 3671TIP3    H232429   3.532   2.872  15.491 -2.2029 -0.0139 -0.0540
 3672TIP3   OH232430   2.403   6.692  12.046 -0.0155  1.1760  0.0898
 3672TIP3    H132431   2.387   6.775  12.000  0.3570  0.6128 -1.0722
 3672TIP3    H232432   2.321   6.676  12.092 -0.0247  2.2924  0.5117
 3673TIP3   OH232433   1.406   0.825   3.106  0.3097 -0.6266  0.4248
 3673TIP3    H132434   1.450   0.807   3.022  0.5014 -0.0758  0.4034
 3673TIP3    H232435   1.313   0.824   3.084  0.3044 -1.6365  0.4373
 3674TIP3   OH232436   4.903   5.545  11.368  0.1824 -0.3391 -0.3984
 3674TIP3    H132437   4.915   5.580  11.280  0.1090 -1.4985 -0.8787
 3674TIP3    H232438   4.977   5.487  11.381  0.0210 -0.4167  0.1877
 3675TIP3   OH232439   6.759   3.599   3.984 -0.0996 -0.2099  0.5830
 3675TIP3    H132440   6.686   3.543   4.008 -1.2134  0.3034 -1.4038
 3675TIP3    H232441   6.827   3.579   4.049 -0.7360 -3.1892  0.4421
 3676TIP3   OH232442   2.654   3.063  12.014 -0.0705  0.6092 -0.2671
 3676TIP3    H132443   2.585   3.125  11.991  0.1162  1.0101  0.2434
 3676TIP3    H232444   2.734   3.102  11.978  0.2588  1.3406  1.1667
 3677TIP3   OH232445   2.883   1.436  13.686 -0.3031  0.3392 -0.3319
 3677TIP3    H132446   2.874   1.457  13.592  0.2484 -1.7963 -0.9109
 3677TIP3    H232447   2.976   1.445  13.704  0.4105 -3.5768 -1.2204
 3678TIP3   OH232448   3.648   5.987  16.575  0.1155 -0.2892 -0.4428
 3678TIP3    H132449   3.714   5.954  16.637 -1.6240  0.1587  1.7933
 3678TIP3    H232450   3.688   6.065  16.537  2.6286 -2.4525 -2.6803
 3679TIP3   OH232451   4.862   6.455   2.056 -0.3276 -0.3742 -0.3669
 3679TIP3    H132452   4.947   6.433   2.095  0.5057  0.6326 -1.5292
 3679TIP3    H232453   4.843   6.543   2.088 -1.9838 -1.3194  1.5205
 3680TIP3   OH232454   4.812   5.006   1.028 -0.3949  0.5114  0.4619
 3680TIP3    H132455   4.882   5.028   0.967 -0.5849  0.6693  0.3030
 3680TIP3    H232456   4.855   5.007   1.114 -0.5400  2.2590  0.5628
 3681TIP3   OH232457   3.488   3.881  16.593  0.4174 -0.7646  0.3170
 3681TIP3    H132458   3.566   3.838  16.628  0.9876 -0.7201 -0.8747
 3681TIP3    H232459   3.418   3.856  16.654  1.6767  0.7552  2.5295
 3682TIP3   OH232460   2.813   6.095   0.426 -1.0974  0.1804  0.6673
 3682TIP3    H132461   2.891   6.053   0.462 -1.6401 -1.0475  0.4540
 3682TIP3    H232462   2.775   6.030   0.367 -1.1844  1.4994 -0.8225
 3683TIP3   OH232463   1.812   6.577  11.805 -0.2049  0.8399  0.3386
 3683TIP3    H132464   1.862   6.507  11.848 -0.6015  1.0485  1.1486
 3683TIP3    H232465   1.876   6.622  11.751  0.1997  0.2636  0.3224
 3684TIP3   OH232466   3.135   4.353  10.929  0.4716  0.2462 -0.1141
 3684TIP3    H132467   3.118   4.274  10.980 -0.1362 -0.0525 -0.7655
 3684TIP3    H232468   3.227   4.374  10.947 -0.2751  1.4962  2.9525
 3685TIP3   OH232469   6.169   1.037  16.181  0.3190  0.3677 -0.4601
 3685TIP3    H132470   6.093   0.990  16.214  1.9103 -1.2434  1.1595
 3685TIP3    H232471   6.188   0.997  16.096  0.4096 -0.5003 -0.0398
 3686TIP3   OH232472   5.014   5.153   3.097  0.2641  0.0754 -0.2226
 3686TIP3    H132473   5.020   5.059   3.112 -0.6786  0.0857  0.2686
 3686TIP3    H232474   4.941   5.163   3.036  0.9001  0.4320 -0.9466
 3687TIP3   OH232475   6.276   4.947  16.428  0.3977 -0.0247 -0.5789
 3687TIP3    H132476   6.267   5.026  16.480  0.4712 -0.2929 -0.1523
 3687TIP3    H232477   6.215   4.885  16.468  1.5011 -0.6993  0.0992
 3688TIP3   OH232478   6.068   2.092  11.400 -0.2695 -0.0181 -0.1735
 3688TIP3    H132479   6.062   2.001  11.428 -0.4422  0.1075  0.1993
 3688TIP3    H232480   6.162   2.109  11.391 -0.1977  0.0080  0.5587
 3689TIP3   OH232481   1.619   6.146  15.212  0.2682 -0.5125 -0.5359
 3689TIP3    H132482   1.626   6.143  15.307 -0.4558  0.2457 -0.4498
 3689TIP3    H232483   1.704   6.177  15.182  0.1179  0.3971 -0.0505
 3690TIP3   OH232484   3.430   6.617   6.466 -0.1133  0.2284  0.1666
 3690TIP3    H132485   3.512   6.663   6.452 -0.7137  1.5106  0.7184
 3690TIP3    H232486   3.409   6.577   6.381  1.1145 -0.2123  0.0563
 3691TIP3   OH232487   1.991   6.503   4.810  0.0159  0.2004  0.0075
 3691TIP3    H132488   1.917   6.557   4.784 -0.6749  0.9563  3.1346
 3691TIP3    H232489   2.003   6.442   4.737 -3.5080  0.1974 -0.7505
 3692TIP3   OH232490   1.635   1.354   2.352  0.7044  0.6030  0.0333
 3692TIP3    H132491   1.639   1.389   2.263  1.6902 -1.0266 -0.6014
 3692TIP3    H232492   1.724   1.361   2.385  0.7969 -0.6861  0.1065
 3693TIP3   OH232493   1.881   5.323  14.613  0.3267  0.0646  1.0566
 3693TIP3    H132494   1.961   5.358  14.573  0.2265 -0.2271  0.6040
 3693TIP3    H232495   1.811   5.380  14.581  0.2437 -0.1821  0.7966
 3694TIP3   OH232496   0.863   0.608  11.344 -0.4090 -0.3105  0.3314
 3694TIP3    H132497   0.849   0.696  11.379 -0.1835 -0.1562  0.0385
 3694TIP3    H232498   0.951   0.611  11.307 -0.8866 -0.2617 -0.8437
 3695TIP3   OH232499   1.429   4.008   2.169  0.1225  0.2332  0.4264
 3695TIP3    H132500   1.390   4.092   2.192  0.4176 -0.1538  2.5619
 3695TIP3    H232501   1.520   4.015   2.198  0.0501 -0.9253  1.0041
 3696TIP3   OH232502   5.678   5.461   1.089  0.2747 -0.4854  0.1697
 3696TIP3    H132503   5.642   5.373   1.082  0.3149 -0.6272  1.4225
 3696TIP3    H232504   5.657   5.488   1.179  0.0789  0.8636 -0.2573
 3697TIP3   OH232505   4.887   4.956  13.205  0.2504  0.1953 -0.6918
 3697TIP3    H132506   4.884   5.013  13.282  1.0133  0.1095 -0.5996
 3697TIP3    H232507   4.799   4.919  13.200  0.1056  0.4409 -0.0445
 3698TIP3   OH232508   1.573   0.977   2.150 -0.5793  0.3249 -0.2708
 3698TIP3    H132509   1.659   0.945   2.120 -1.2783 -2.5422  0.5360
 3698TIP3    H232510   1.585   0.994   2.243 -0.8097  0.3310 -0.2436
 3699TIP3   OH232511   3.542   1.475  12.091  0.0216  0.7888 -0.7944
 3699TIP3    H132512   3.565   1.386  12.118  1.2013  0.8476 -1.5115
 3699TIP3    H232513   3.514   1.518  12.172 -0.8088 -0.2942 -0.4819
 3700TIP3   OH232514   6.121   0.050  12.861 -0.0261  0.3451  0.5114
 3700TIP3    H132515   6.046   0.108  12.849  0.0359  0.6869  1.7325
 3700TIP3    H232516   6.082  -0.037  12.871 -0.2503  0.4880  0.8982
 3701TIP3   OH232517   2.398   1.227  13.363 -0.1552 -0.2144 -0.7051
 3701TIP3    H132518   2.477   1.188  13.327  0.4567  0.8140 -0.5024
 3701TIP3    H232519   2.352   1.263  13.287 -0.8046 -1.4202 -0.9150
 3702TIP3   OH232520   1.626   0.338  17.062  0.5134 -0.5965 -0.7051
 3702TIP3    H132521   1.585   0.295  17.137 -1.2116  0.1961 -1.1498
 3702TIP3    H232522   1.703   0.284  17.043  1.0527 -0.7891  1.6421
 3703TIP3   OH232523   4.301   5.784  13.444 -0.4436  0.3536 -0.5424
 3703TIP3    H132524   4.216   5.746  13.464 -1.4659  2.5196 -0.4801
 3703TIP3    H232525   4.295   5.808  13.351 -0.3971  1.6331 -0.2314
 3704TIP3   OH232526   0.852   2.645   2.040  0.5600  0.2737 -0.0503
 3704TIP3    H132527   0.856   2.653   2.135 -0.6306  0.6322 -0.0177
 3704TIP3    H232528   0.847   2.736   2.008  1.4480  0.1798 -0.4897
 3705TIP3   OH232529   3.627   6.745   1.065 -0.5462  0.2886 -0.0296
 3705TIP3    H132530   3.637   6.793   0.983 -1.2657 -1.1250 -0.9983
 3705TIP3    H232531   3.713   6.750   1.107 -0.0186  0.6021 -1.1089
 3706TIP3   OH232532   5.989   6.218  16.682  0.6147 -0.1241 -0.6544
 3706TIP3    H132533   6.059   6.180  16.733 -0.0742  1.1763  1.3978
 3706TIP3    H232534   6.019   6.307  16.660  0.7647 -0.5394 -2.2988
 3707TIP3   OH232535   5.705   3.661  16.310  0.1770  0.4063 -0.1093
 3707TIP3    H132536   5.728   3.586  16.366 -0.3270  0.9133  0.8075
 3707TIP3    H232537   5.764   3.655  16.236 -1.7186 -2.5848 -1.5816
 3708TIP3   OH232538   6.435   3.400   5.089  0.7490  0.4224 -0.1989
 3708TIP3    H132539   6.460   3.329   5.029 -0.3173 -1.0292  1.0021
 3708TIP3    H232540   6.493   3.388   5.165  1.7270  1.9236 -0.6669
 3709TIP3   OH232541   6.001   5.270  12.457 -0.0822  0.0217 -0.0045
 3709TIP3    H132542   5.913   5.270  12.497 -0.6944  2.3931 -1.1570
 3709TIP3    H232543   6.057   5.231  12.524 -1.7968 -0.3578  1.3020
 3710TIP3   OH232544   3.226   2.401  10.522  0.5413 -0.3828 -0.3940
 3710TIP3    H132545   3.219   2.439  10.435 -0.3191  0.4606  0.0256
 3710TIP3    H232546   3.170   2.323  10.519 -0.3194  0.2203 -0.3045
 3711TIP3   OH232547   2.530   1.610   1.861  0.2668 -0.0024 -0.5586
 3711TIP3    H132548   2.508   1.517   1.852  0.3867  0.0307 -1.2745
 3711TIP3    H232549   2.469   1.654   1.802  2.4530  0.0703 -2.9179
 3712TIP3   OH232550   3.547   4.614   0.113  0.0183 -0.0292  0.1660
 3712TIP3    H132551   3.452   4.619   0.098  0.3076  0.2253 -1.8260
 3712TIP3    H232552   3.576   4.705   0.116  0.1794 -0.1000  1.0678
 3713TIP3   OH232553   5.509   4.932   2.245  0.0305 -0.5787  0.1949
 3713TIP3    H132554   5.559   5.014   2.247  0.8067 -1.0378  0.2877
 3713TIP3    H232555   5.576   4.864   2.245 -0.6201 -1.2487  1.6582
 3714TIP3   OH232556   1.886   4.159   4.052  0.0612 -0.2465 -0.5564
 3714TIP3    H132557   1.957   4.221   4.038  0.3821 -0.2717  0.8447
 3714TIP3    H232558   1.829   4.201   4.116 -0.9266 -0.4417 -1.2841
 3715TIP3   OH232559   1.866   1.248  16.798 -0.2713 -0.0474 -0.6575
 3715TIP3    H132560   1.892   1.159  16.773 -1.6588 -0.6860  0.0537
 3715TIP3    H232561   1.827   1.238  16.885  0.1907  1.3829 -0.2558
 3716TIP3   OH232562   4.309   4.010   1.793 -1.0952 -0.2976 -0.5811
 3716TIP3    H132563   4.303   3.919   1.761 -3.4560 -0.3152 -0.2975
 3716TIP3    H232564   4.345   4.059   1.719 -0.4549 -1.3467 -0.9834
 3717TIP3   OH232565   4.352   1.801  14.215  0.3132  0.4317 -0.1926
 3717TIP3    H132566   4.267   1.808  14.260  0.5495 -0.8081  0.4945
 3717TIP3    H232567   4.329   1.803  14.122 -0.5373 -0.3022 -0.0216
 3718TIP3   OH232568   3.990   0.584  16.466  0.0089 -0.3504 -0.1460
 3718TIP3    H132569   4.031   0.670  16.469 -0.0540 -0.3394  0.4291
 3718TIP3    H232570   4.006   0.545  16.552  2.5699 -2.1190 -1.3091
 3719TIP3   OH232571   3.809   4.456  16.930  0.2963  0.2464  0.8671
 3719TIP3    H132572   3.868   4.382  16.916  2.5699  1.9022  1.1416
 3719TIP3    H232573   3.790   4.487  16.841 -0.2976 -0.3723  0.7701
 3720TIP3   OH232574   1.221   6.727  10.663  0.2478  0.6146 -0.3245
 3720TIP3    H132575   1.247   6.784  10.591  0.9242 -0.4331 -0.9436
 3720TIP3    H232576   1.301   6.677  10.683 -0.1649  0.3003  0.5937
 3721TIP3   OH232577   4.387   5.714   1.988  0.7154 -0.0846  0.0317
 3721TIP3    H132578   4.341   5.680   2.065  1.6288 -2.7758 -0.5253
 3721TIP3    H232579   4.316   5.747   1.932 -0.0898  0.3713  1.2551
 3722TIP3   OH232580   4.471   5.443  12.389 -0.7685  0.0072  0.1776
 3722TIP3    H132581   4.397   5.405  12.342 -1.0296  1.9363 -1.0898
 3722TIP3    H232582   4.431   5.497  12.457 -0.4088 -1.5233  1.6830
 3723TIP3   OH232583   3.405   5.701   5.907  0.2317  0.3014  0.2102
 3723TIP3    H132584   3.426   5.613   5.937  2.7359  0.0257 -1.9935
 3723TIP3    H232585   3.332   5.689   5.846 -0.4237 -0.0019  1.0318
 3724TIP3   OH232586   4.906   5.191   2.115  0.6389  0.2954 -0.0920
 3724TIP3    H132587   4.896   5.096   2.112 -1.3200  0.4388  0.2859
 3724TIP3    H232588   4.876   5.215   2.203  0.9937  1.2868 -0.2275
 3725TIP3   OH232589   3.819   3.191  11.731 -0.0183 -0.0697 -0.1920
 3725TIP3    H132590   3.895   3.222  11.681 -0.2607 -2.9136 -2.5867
 3725TIP3    H232591   3.786   3.116  11.681 -3.0997 -0.3208  1.9375
 3726TIP3   OH232592   2.168   3.545   1.224  0.5807 -0.2729  0.3089
 3726TIP3    H132593   2.191   3.554   1.316 -1.1938  2.2518  0.6390
 3726TIP3    H232594   2.096   3.482   1.223 -1.6229  2.0441  1.2296
 3727TIP3   OH232595   5.643   0.247   3.542  0.2242 -0.0397 -0.0253
 3727TIP3    H132596   5.692   0.320   3.505  2.8406 -1.0483  1.1685
 3727TIP3    H232597   5.657   0.175   3.480  0.9107 -0.5290  0.6727
 3728TIP3   OH232598   1.745   2.649   3.405  0.0205  0.4261  0.4221
 3728TIP3    H132599   1.806   2.649   3.331 -0.5179  0.8035 -0.0296
 3728TIP3    H232600   1.787   2.704   3.471  1.6237 -1.7416  1.3710
 3729TIP3   OH232601   5.669   4.814  16.115 -0.4457 -0.2113  0.0139
 3729TIP3    H132602   5.677   4.784  16.205  2.1076 -0.9289 -0.3628
 3729TIP3    H232603   5.707   4.902  16.116  0.6309 -0.6506 -0.5262
 3730TIP3   OH232604   2.928   1.404   4.634 -0.4290 -1.0547 -0.3211
 3730TIP3    H132605   3.011   1.449   4.646 -1.4817  0.5101  1.8750
 3730TIP3    H232606   2.862   1.474   4.634 -1.9579 -2.4079  0.8480
 3731TIP3   OH232607   2.152   5.326   3.057 -0.1224  0.2451  0.5070
 3731TIP3    H132608   2.184   5.360   3.140 -1.5633 -0.3277  1.3264
 3731TIP3    H232609   2.112   5.401   3.014  0.2816  0.4560  0.4947
 3732TIP3   OH232610   4.579   5.661   1.006  0.0512  0.6335  0.3113
 3732TIP3    H132611   4.619   5.694   0.926  0.5553 -2.6260 -0.9433
 3732TIP3    H232612   4.637   5.590   1.034 -1.6808 -0.2530  1.8978
 3733TIP3   OH232613   5.140   5.979  15.762 -0.1268  0.5491 -0.3527
 3733TIP3    H132614   5.059   6.022  15.736 -1.0672 -0.4380  0.8685
 3733TIP3    H232615   5.113   5.905  15.816  1.6277  1.1548  1.4901
 3734TIP3   OH232616   0.755   4.991  14.110 -0.3798  0.3336  0.4047
 3734TIP3    H132617   0.668   4.956  14.088 -0.4202 -1.2158  2.6338
 3734TIP3    H232618   0.762   4.977  14.204  1.6655  1.9443  0.5442
 3735TIP3   OH232619   3.851   5.397  15.835 -0.1720  0.9330 -0.1797
 3735TIP3    H132620   3.796   5.319  15.840  0.5403  0.4036 -0.2675
 3735TIP3    H232621   3.821   5.453  15.906  0.6075 -0.2984  1.1852
 3736TIP3   OH232622   4.607   1.645  11.373 -0.1791 -0.0909 -0.0854
 3736TIP3    H132623   4.558   1.696  11.437  1.7835  0.6487  0.9245
 3736TIP3    H232624   4.572   1.556  11.382  1.0978 -0.4180  3.3183
 3737TIP3   OH232625   5.521   2.431  10.654  0.5522  0.3011 -0.4452
 3737TIP3    H132626   5.430   2.431  10.624 -0.0454  1.9578  1.1373
 3737TIP3    H232627   5.524   2.361  10.720  1.5081 -2.3845 -3.1293
 3738TIP3   OH232628   2.112   3.837   4.276  0.0817 -0.4683  0.5586
 3738TIP3    H132629   2.122   3.820   4.183  0.0501 -0.7723  0.6091
 3738TIP3    H232630   2.054   3.912   4.282 -0.8650 -1.1750  0.3672
 3739TIP3   OH232631   3.655   3.705   3.431  0.7545  0.5521  0.0858
 3739TIP3    H132632   3.644   3.680   3.522  0.0435  2.1385  0.4758
 3739TIP3    H232633   3.696   3.629   3.389  1.1441 -0.1708  1.7249
 3740TIP3   OH232634   3.910   3.378  12.961 -0.6061 -0.1683 -0.7056
 3740TIP3    H132635   3.961   3.316  13.013 -1.0723 -1.0009 -1.2104
 3740TIP3    H232636   3.888   3.449  13.021 -0.3580 -0.6720 -0.0187
 3741TIP3   OH232637   5.752   0.899   3.021  0.1635 -0.0437  0.0706
 3741TIP3    H132638   5.742   0.843   3.099  1.4482 -1.1108 -0.4989
 3741TIP3    H232639   5.667   0.894   2.978 -0.1630 -0.4791  0.7349
 3742TIP3   OH232640   1.201   2.527  14.604  0.3825 -0.6945 -0.4141
 3742TIP3    H132641   1.127   2.476  14.637 -0.5936 -0.1327 -1.6567
 3742TIP3    H232642   1.220   2.590  14.673 -1.2386  0.0779 -0.6342
 3743TIP3   OH232643   4.506   5.941   2.480  0.0410 -0.4122  0.0743
 3743TIP3    H132644   4.474   5.851   2.485 -2.8582  0.5403  1.2120
 3743TIP3    H232645   4.510   5.961   2.387 -1.0447 -1.2024 -0.1529
 3744TIP3   OH232646   5.150   1.185  11.641  0.2816  0.5405  1.1814
 3744TIP3    H132647   5.237   1.190  11.680  1.3482  2.7930 -1.1424
 3744TIP3    H232648   5.167   1.191  11.547 -2.4159  1.7922  0.6987
 3745TIP3   OH232649   1.719   5.650  10.444  0.7152 -0.3639  0.5349
 3745TIP3    H132650   1.694   5.662  10.535 -2.7799  1.5979 -0.4895
 3745TIP3    H232651   1.648   5.598  10.406  0.5181  1.3110 -1.6118
 3746TIP3   OH232652   2.151   0.306  17.062  0.6845 -0.6970  0.2621
 3746TIP3    H132653   2.177   0.325  16.972 -0.9374 -2.1809 -0.5812
 3746TIP3    H232654   2.190   0.221  17.082  0.8558 -0.4780  0.8873
 3747TIP3   OH232655   0.665   6.378   4.123  0.0873 -0.2524 -0.1776
 3747TIP3    H132656   0.705   6.347   4.041  0.7449 -0.2462  0.1367
 3747TIP3    H232657   0.648   6.298   4.172 -0.1578 -0.2449 -0.2479
 3748TIP3   OH232658   4.993   1.754   1.015 -0.8500 -0.2226  0.0615
 3748TIP3    H132659   5.042   1.684   1.057 -0.4015  1.2300  2.1043
 3748TIP3    H232660   5.059   1.818   0.989 -1.4257  0.6627  0.6913
 3749TIP3   OH232661   5.677   2.509   5.097  0.3563  0.3312  0.1520
 3749TIP3    H132662   5.719   2.534   5.179 -0.9512  1.4094  0.5317
 3749TIP3    H232663   5.643   2.421   5.114  0.3546  0.4243  0.6591
 3750TIP3   OH232664   2.903   3.443   3.936 -0.2382 -0.1820 -0.6913
 3750TIP3    H132665   2.983   3.427   3.885 -0.4699  0.8849 -1.4216
 3750TIP3    H232666   2.868   3.525   3.901 -0.1781  0.8536  1.5183
 3751TIP3   OH232667   5.216   2.329  11.705  0.3384  0.2676 -0.2359
 3751TIP3    H132668   5.212   2.374  11.790  1.8544 -0.5472  0.2951
 3751TIP3    H232669   5.307   2.302  11.696 -0.2110 -1.4167 -1.2027
 3752TIP3   OH232670   6.569   0.050  15.462 -0.5624  0.0765 -0.4881
 3752TIP3    H132671   6.560   0.107  15.539 -0.8657  1.6521 -1.6326
 3752TIP3    H232672   6.660   0.021  15.464 -0.7914 -0.6270  0.9234
 3753TIP3   OH232673   2.470   4.530   1.608 -0.1508 -0.6801 -0.4548
 3753TIP3    H132674   2.380   4.544   1.637 -0.2986  0.3059 -1.3218
 3753TIP3    H232675   2.523   4.541   1.687 -0.4750  2.6404 -0.5578
 3754TIP3   OH232676   1.684   0.553  16.155 -0.1912  0.0549  0.0357
 3754TIP3    H132677   1.740   0.477  16.168 -0.3067 -0.2392 -1.0759
 3754TIP3    H232678   1.641   0.567  16.240 -0.4954 -1.3760  0.1380
 3755TIP3   OH232679   6.102   3.770   5.809 -0.1627  0.2182 -0.2778
 3755TIP3    H132680   6.151   3.816   5.877 -1.0153  0.1549  0.3896
 3755TIP3    H232681   6.062   3.840   5.758  0.6113  0.2709 -0.8339
 3756TIP3   OH232682   3.400   0.253   1.494 -0.6244 -0.2278 -0.1796
 3756TIP3    H132683   3.401   0.334   1.443 -0.0703 -0.1360 -0.0282
 3756TIP3    H232684   3.436   0.279   1.579  1.2002 -1.0014 -0.6801
 3757TIP3   OH232685   4.637   5.602   2.714  0.0913 -0.1863 -0.0668
 3757TIP3    H132686   4.602   5.639   2.795  0.8803 -1.0116  0.6696
 3757TIP3    H232687   4.669   5.515   2.738  2.4533  0.4233 -0.7214
 3758TIP3   OH232688   6.413   5.990  15.767 -0.2726  0.2228 -0.0806
 3758TIP3    H132689   6.502   6.003  15.799 -0.0264 -0.6221 -0.3881
 3758TIP3    H232690   6.374   5.929  15.829 -0.6608  0.6553  0.0979
 3759TIP3   OH232691   4.270   5.063   1.305  0.3299  0.0692  0.2978
 3759TIP3    H132692   4.268   4.967   1.299  1.3162  0.1065 -1.7150
 3759TIP3    H232693   4.179   5.088   1.319 -0.1786 -1.1371 -0.5752
 3760TIP3   OH232694   4.489   6.337  11.331 -0.4388 -0.4736  0.7752
 3760TIP3    H132695   4.431   6.341  11.407 -0.4114 -2.3412  0.9427
 3760TIP3    H232696   4.488   6.245  11.305  0.7349 -0.1427 -0.5715
 3761TIP3   OH232697   5.541   5.415  11.646 -0.3660  0.9238  0.3832
 3761TIP3    H132698   5.603   5.454  11.707  0.2687 -0.0600  0.3875
 3761TIP3    H232699   5.541   5.322  11.669 -1.7738  0.8916  0.3179
 3762TIP3   OH232700   6.464   1.014  14.228 -0.0687 -0.7029  0.9039
 3762TIP3    H132701   6.402   1.030  14.157  2.1623  2.7825 -0.5632
 3762TIP3    H232702   6.414   1.028  14.308 -1.9160 -1.4642 -0.0771
 3763TIP3   OH232703   4.228   3.542   4.968 -0.2276  0.1249  0.1878
 3763TIP3    H132704   4.170   3.487   4.915 -0.1621 -0.6405  0.8820
 3763TIP3    H232705   4.284   3.479   5.014  0.6729  0.8225  0.0729
 3764TIP3   OH232706   2.506   6.252   3.020  0.1499 -0.8087  0.1836
 3764TIP3    H132707   2.467   6.226   2.937 -1.1309 -2.3377  1.1941
 3764TIP3    H232708   2.512   6.347   3.016 -2.3431 -0.6212 -0.6370
 3765TIP3   OH232709   1.806   2.649  16.205 -0.0399 -0.3034  0.2289
 3765TIP3    H132710   1.716   2.667  16.233  0.2166  0.9066  0.3336
 3765TIP3    H232711   1.858   2.718  16.247  0.8510 -0.6434 -0.2968
 3766TIP3   OH232712   0.546   6.442   0.320  0.0495 -0.3688  0.2982
 3766TIP3    H132713   0.593   6.360   0.336  0.6840  0.0612  0.6603
 3766TIP3    H232714   0.514   6.469   0.407 -0.0600 -0.1707  0.1977
 3767TIP3   OH232715   6.369   1.458   1.802 -0.6205 -0.7223 -0.3211
 3767TIP3    H132716   6.456   1.429   1.775 -0.0737  0.0872  0.5159
 3767TIP3    H232717   6.311   1.386   1.776  0.1410 -0.8653 -1.7559
 3768TIP3   OH232718   1.666   6.110  11.917  0.2862 -0.0606 -0.5491
 3768TIP3    H132719   1.641   6.025  11.953  0.4138  0.4017  0.6687
 3768TIP3    H232720   1.583   6.154  11.900  0.2115 -0.5348 -1.4877
 3769TIP3   OH232721   6.043   0.914  16.624 -0.0050 -0.2933 -0.1078
 3769TIP3    H132722   6.072   1.001  16.597  1.8024 -1.1716 -1.1948
 3769TIP3    H232723   6.059   0.859  16.547  0.0958 -1.8281  0.9679
 3770TIP3   OH232724   4.470   5.315  14.968  0.0609  0.6439  0.1118
 3770TIP3    H132725   4.503   5.268  14.892  2.3249  1.5021  0.4923
 3770TIP3    H232726   4.376   5.296  14.969  0.0215  0.2894 -2.6507
 3771TIP3   OH232727   6.196   3.162  14.869  0.1754 -0.3391 -0.5384
 3771TIP3    H132728   6.263   3.228  14.888  1.6397 -2.0444  0.6081
 3771TIP3    H232729   6.243   3.094  14.821 -1.3433 -0.4709 -1.8813
 3772TIP3   OH232730   2.318   3.982   3.813  0.0808 -0.0618  0.3951
 3772TIP3    H132731   2.256   4.023   3.753  0.7634  0.5864  0.1136
 3772TIP3    H232732   2.296   3.889   3.810  0.6161 -0.1880 -1.5449
 3773TIP3   OH232733   3.903   4.914  12.921  0.2167 -0.2396 -0.0606
 3773TIP3    H132734   3.831   4.922  12.858  0.1499  0.2114  0.0693
 3773TIP3    H232735   3.938   4.826  12.906  0.3673 -0.0484 -0.9059
 3774TIP3   OH232736   6.080   5.107   0.716  0.0053 -0.3092 -0.1401
 3774TIP3    H132737   6.141   5.131   0.785  0.8509 -0.3663 -0.8442
 3774TIP3    H232738   5.997   5.093   0.761  0.3433  0.4296  0.7465
 3775TIP3   OH232739   3.225   5.814   2.940  0.2828  0.0212  0.3283
 3775TIP3    H132740   3.234   5.739   2.882 -0.0709  0.4221 -0.2491
 3775TIP3    H232741   3.298   5.872   2.916 -0.6233  0.7951 -0.6420
 3776TIP3   OH232742   1.504   3.030  12.268  0.0259  0.0681 -0.1206
 3776TIP3    H132743   1.586   2.984  12.288  0.7873  1.3523 -0.2291
 3776TIP3    H232744   1.443   2.960  12.245  1.1045 -0.9069 -0.1080
 3777TIP3   OH232745   6.089   1.186   3.772  0.3086 -0.0475 -0.4720
 3777TIP3    H132746   6.184   1.184   3.759  0.4688  0.7856  0.3822
 3777TIP3    H232747   6.061   1.095   3.762  1.7485 -1.0176  2.7820
 3778TIP3   OH232748   1.947   0.384  16.859 -0.1847 -0.1536  0.4000
 3778TIP3    H132749   2.012   0.326  16.900  1.2197  0.2325 -1.1713
 3778TIP3    H232750   1.869   0.330  16.849  0.2009 -0.9375  1.4473
 3779TIP3   OH232751   4.666   2.895   6.857  0.0211  0.3157 -0.2808
 3779TIP3    H132752   4.619   2.827   6.810  0.2187  0.8222 -1.2334
 3779TIP3    H232753   4.619   2.976   6.836  0.5007  0.6406 -0.1357
 3780TIP3   OH232754   1.561   3.815   3.795 -0.4072  0.1800  0.6067
 3780TIP3    H132755   1.487   3.761   3.767 -0.8221  0.9372  0.2234
 3780TIP3    H232756   1.570   3.882   3.727  3.4075 -2.3451 -1.8087
 3781TIP3   OH232757   4.247   4.221  17.100 -0.0648 -0.3022 -0.1416
 3781TIP3    H132758   4.170   4.246  17.150 -1.6672 -0.7996 -2.2009
 3781TIP3    H232759   4.310   4.190  17.165 -0.6066  2.4155  1.8351
 3782TIP3   OH232760   3.660   2.140   2.914  0.3098  0.3758 -0.2343
 3782TIP3    H132761   3.630   2.073   2.975 -1.5499  0.5491 -0.8942
 3782TIP3    H232762   3.756   2.132   2.914  0.1645 -1.9923  0.0221
 3783TIP3   OH232763   0.555   4.908  11.845  0.4523  0.0383  0.5214
 3783TIP3    H132764   0.588   4.922  11.756  0.6755 -0.4887  0.5198
 3783TIP3    H232765   0.504   4.987  11.864 -0.8742 -0.4864 -0.6578
 3784TIP3   OH232766   6.154   1.313  16.197 -0.4591 -0.0181 -0.6533
 3784TIP3    H132767   6.179   1.228  16.162  1.1075 -0.0242  0.3287
 3784TIP3    H232768   6.165   1.304  16.292 -0.4010  1.2258 -0.5180
 3785TIP3   OH232769   2.827   4.092  16.045 -0.4060  0.4424 -0.3906
 3785TIP3    H132770   2.846   4.183  16.068 -0.9876  0.7452 -1.0518
 3785TIP3    H232771   2.786   4.097  15.958 -1.5205 -0.3418  0.0532
 3786TIP3   OH232772   5.485   2.924   5.029 -0.0136  0.3427  0.3749
 3786TIP3    H132773   5.543   2.899   4.956  1.0796  1.1568  0.9354
 3786TIP3    H232774   5.429   2.848   5.042  2.7267 -1.6519  1.5700
 3787TIP3   OH232775   5.002   1.591   5.813 -0.1646 -0.4544  0.6073
 3787TIP3    H132776   4.916   1.561   5.843 -1.0690  1.3932  0.0460
 3787TIP3    H232777   5.041   1.632   5.890 -0.5208  0.1959  0.4491
 3788TIP3   OH232778   1.024   3.896   3.086  0.2737  0.1002 -0.5729
 3788TIP3    H132779   1.046   3.812   3.046 -0.9904 -0.0058 -1.1024
 3788TIP3    H232780   0.934   3.885   3.117  0.2689  1.0900 -0.1912
 3789TIP3   OH232781   6.659   5.568  15.455 -0.3308 -0.0138  0.2982
 3789TIP3    H132782   6.620   5.654  15.473  0.9571  0.6600 -0.0342
 3789TIP3    H232783   6.705   5.545  15.536  0.0216 -0.0044  0.1010
 3790TIP3   OH232784   2.224   2.300  16.566 -0.4771  0.7425 -0.5959
 3790TIP3    H132785   2.183   2.254  16.639 -0.3852 -0.6155 -1.3626
 3790TIP3    H232786   2.176   2.269  16.489  1.3080 -0.1122 -1.4080
 3791TIP3   OH232787   5.933   1.612  13.061 -0.1742 -0.5512 -0.1195
 3791TIP3    H132788   5.943   1.575  13.149 -0.1999  1.0174  0.5698
 3791TIP3    H232789   5.998   1.566  13.008  0.5380 -0.8028  0.9552
 3792TIP3   OH232790   3.080   3.754  16.979  0.5637 -0.0825  0.1663
 3792TIP3    H132791   3.037   3.730  16.897 -0.9942 -0.2198  0.9906
 3792TIP3    H232792   3.072   3.676  17.034  0.6798  0.3593  0.8166
 3793TIP3   OH232793   4.088   3.742  15.941 -0.3665 -0.1251 -0.6339
 3793TIP3    H132794   4.047   3.782  16.018 -0.8890  0.0828 -1.0137
 3793TIP3    H232795   4.024   3.755  15.871  0.5764  0.6637 -1.3708
 3794TIP3   OH232796   6.004   5.298   1.474 -0.4285 -0.0145  0.0723
 3794TIP3    H132797   5.989   5.290   1.380 -2.5870  1.7153  0.1728
 3794TIP3    H232798   6.068   5.369   1.483 -0.2486 -0.1570 -0.0959
 3795TIP3   OH232799   6.116   1.667   4.401 -0.4756 -0.8008 -0.1883
 3795TIP3    H132800   6.189   1.641   4.345 -0.7429 -0.5863 -0.6333
 3795TIP3    H232801   6.154   1.671   4.489  0.9316  2.6259 -0.7901
 3796TIP3   OH232802   4.596   6.625  16.306  0.2262  0.0307 -0.0867
 3796TIP3    H132803   4.611   6.708  16.351  2.6931  0.8088 -2.0885
 3796TIP3    H232804   4.502   6.623  16.290  0.0359  2.2743  0.3764
 3797TIP3   OH232805   5.825   1.858   0.341 -0.3009  0.4424 -0.2028
 3797TIP3    H132806   5.771   1.782   0.365  0.1703  0.1120 -0.1908
 3797TIP3    H232807   5.762   1.920   0.303 -0.9963  0.7893  1.4451
 3798TIP3   OH232808   2.282   6.599  14.454  0.3732 -0.3370  0.0916
 3798TIP3    H132809   2.239   6.549  14.523 -1.3339  0.8594 -0.0647
 3798TIP3    H232810   2.342   6.658  14.500 -1.4076  1.0958  0.6905
 3799TIP3   OH232811   1.845   1.854   5.316  0.3297  0.0700  0.4007
 3799TIP3    H132812   1.926   1.854   5.367  0.1846  0.1507  0.6337
 3799TIP3    H232813   1.826   1.947   5.301  0.2864  0.0510  0.3378
 3800TIP3   OH232814   5.574   3.372   6.033  0.2817  0.1638  0.3323
 3800TIP3    H132815   5.511   3.443   6.039  0.7080  0.4318  1.8582
 3800TIP3    H232816   5.626   3.392   5.955  1.2755  2.2949  1.4672
 3801TIP3   OH232817   0.481   3.599   6.801  0.0918 -0.0224 -0.0934
 3801TIP3    H132818   0.571   3.594   6.767  0.8276  1.5524  1.4249
 3801TIP3    H232819   0.458   3.691   6.792 -1.6866 -0.5330 -1.1101
 3802TIP3   OH232820   2.630   4.967  13.112 -0.0221  0.2291 -0.3372
 3802TIP3    H132821   2.590   4.883  13.091 -1.5242  0.5264  1.0601
 3802TIP3    H232822   2.708   4.945  13.163 -0.4017 -0.3172  0.0081
 3803TIP3   OH232823   0.474   0.949   0.038  0.6210 -0.2296 -0.2000
 3803TIP3    H132824   0.516   0.949  -0.048  1.8854  0.8211  0.3784
 3803TIP3    H232825   0.445   0.859   0.051 -0.6554 -0.1510 -2.2141
 3804TIP3   OH232826   2.310   6.666   0.440  0.1280 -0.0103 -0.1557
 3804TIP3    H132827   2.297   6.719   0.518  1.8404  1.0670 -0.5467
 3804TIP3    H232828   2.310   6.729   0.368 -1.3199 -0.9766 -1.0457
 3805TIP3   OH232829   0.362   2.819   3.563  0.5826  0.6541  0.7099
 3805TIP3    H132830   0.278   2.788   3.528  1.6948 -1.2973 -0.4798
 3805TIP3    H232831   0.398   2.743   3.609  1.7915  1.3658  0.9959
 3806TIP3   OH232832   1.303   3.911   4.883  0.5622 -0.5364 -0.0806
 3806TIP3    H132833   1.321   3.969   4.809  0.2303  0.3471  0.5160
 3806TIP3    H232834   1.354   3.948   4.955 -0.7878 -0.1082  0.6877
 3807TIP3   OH232835   5.056   4.132  10.852 -0.5382 -0.5934  0.1398
 3807TIP3    H132836   5.018   4.096  10.932 -0.9740 -0.3811  0.0314
 3807TIP3    H232837   5.067   4.057  10.794 -0.2572 -0.7423  0.3807
 3808TIP3   OH232838   2.103   6.143  14.932 -0.7317 -0.2984 -0.1997
 3808TIP3    H132839   2.144   6.212  14.880  0.0057 -1.8103 -1.7159
 3808TIP3    H232840   2.176   6.104  14.981 -1.2420  0.3675  1.1277
 3809TIP3   OH232841   0.916   5.489  15.556  0.1915 -0.2401  0.0827
 3809TIP3    H132842   0.924   5.583  15.571 -1.1822 -0.4061  2.2532
 3809TIP3    H232843   1.006   5.457  15.551  0.7310  0.8272  2.1763
 3810TIP3   OH232844   4.981   4.585   3.146  0.1687  0.4765  0.3446
 3810TIP3    H132845   4.893   4.564   3.115 -0.1122 -1.8900  2.4618
 3810TIP3    H232846   5.036   4.514   3.113  0.7504  0.4636  1.3153
 3811TIP3   OH232847   1.258   0.219   0.862  0.0892  0.0145  0.4340
 3811TIP3    H132848   1.198   0.151   0.830 -1.2965  1.1333  0.5691
 3811TIP3    H232849   1.202   0.281   0.909  0.9665  2.2693 -1.2802
 3812TIP3   OH232850   4.350   5.264   4.592 -0.3977  0.0053  0.2022
 3812TIP3    H132851   4.320   5.262   4.501 -0.5467  1.5356  0.2014
 3812TIP3    H232852   4.430   5.212   4.592 -0.3098  0.1338 -0.8334
 3813TIP3   OH232853   5.446   5.852  10.605 -0.0944 -0.7745  0.0095
 3813TIP3    H132854   5.378   5.793  10.636  0.4870  0.5396  4.5534
 3813TIP3    H232855   5.528   5.813  10.635  0.5854  0.6604  0.1494
 3814TIP3   OH232856   0.381   4.938  12.542  0.0565  0.1766 -0.3713
 3814TIP3    H132857   0.386   4.897  12.456 -0.5576  1.1419 -0.8811
 3814TIP3    H232858   0.343   4.871  12.599 -1.1199  0.1020 -1.2270
 3815TIP3   OH232859   3.185   5.692   4.196 -0.6907 -0.3721 -0.4110
 3815TIP3    H132860   3.145   5.617   4.240 -1.1986  0.8175  1.2625
 3815TIP3    H232861   3.266   5.708   4.245 -0.1542 -0.3230 -1.2887
 3816TIP3   OH232862   3.603   3.639  10.638 -0.3757  0.3087  0.1879
 3816TIP3    H132863   3.511   3.654  10.617 -1.0163  0.0142  2.5202
 3816TIP3    H232864   3.603   3.558  10.689  0.8214  1.6070  2.4082
 3817TIP3   OH232865   3.768   3.521   0.632 -0.1730  0.0497  0.1112
 3817TIP3    H132866   3.765   3.561   0.718  0.8812 -1.2170  0.7715
 3817TIP3    H232867   3.851   3.551   0.594  0.1810 -0.7409  0.2381
 3818TIP3   OH232868   0.822   5.513   5.688  0.2250  0.1207 -0.4532
 3818TIP3    H132869   0.898   5.522   5.745  0.1058 -0.5079 -0.1878
 3818TIP3    H232870   0.747   5.539   5.742 -0.1890 -2.6343  0.4851
 3819TIP3   OH232871   6.154   5.987  16.181 -0.1047  1.2146  0.4958
 3819TIP3    H132872   6.234   5.955  16.221 -0.5610  1.3202  1.5310
 3819TIP3    H232873   6.180   6.064  16.132  1.1551 -0.9751 -2.6094
 3820TIP3   OH232874   4.255   1.414   0.016  0.3531  0.4169 -0.0989
 3820TIP3    H132875   4.252   1.341   0.079 -0.8646 -0.8772 -1.5478
 3820TIP3    H232876   4.163   1.428  -0.008  0.5069  2.8968  0.6033
 3821TIP3   OH232877   5.692   2.297  10.938  0.5235  0.4896 -0.0197
 3821TIP3    H132878   5.691   2.279  11.032 -1.1541  0.7666  0.0356
 3821TIP3    H232879   5.612   2.257  10.905  0.9038  0.7328 -1.2712
 3822TIP3   OH232880   6.295   1.650   6.280 -0.3616  0.2310  0.5710
 3822TIP3    H132881   6.225   1.598   6.240 -0.1376  0.3837 -0.0301
 3822TIP3    H232882   6.277   1.646   6.374 -0.9196 -0.1022  0.4558
 3823TIP3   OH232883   5.335   2.326  17.039 -0.1877 -0.8391 -0.0743
 3823TIP3    H132884   5.330   2.234  17.011  0.5166 -1.2953  1.2478
 3823TIP3    H232885   5.428   2.342  17.052 -0.5139 -1.0321  3.1344
 3824TIP3   OH232886   2.502   1.116   2.909  0.4185  0.1753 -0.1025
 3824TIP3    H132887   2.420   1.164   2.898  0.2906  0.4509  1.6754
 3824TIP3    H232888   2.494   1.076   2.996  2.2220  0.3557  0.1848
 3825TIP3   OH232889   2.521   3.704  12.202  0.7683  0.2136  0.0801
 3825TIP3    H132890   2.443   3.756  12.220  1.5863  0.5726  3.1926
 3825TIP3    H232891   2.490   3.614  12.201  0.2534  0.3676  1.0497
 3826TIP3   OH232892   6.569   6.569  12.558 -0.2392 -0.1104 -0.2613
 3826TIP3    H132893   6.580   6.482  12.596  2.5287  0.6053  0.8503
 3826TIP3    H232894   6.539   6.624  12.630  2.2136  0.6561  0.2760
 3827TIP3   OH232895   2.098   5.512   4.367  0.1035 -0.0745 -0.2191
 3827TIP3    H132896   2.083   5.463   4.448  0.5992 -0.0956 -0.1348
 3827TIP3    H232897   2.158   5.457   4.317  0.7048  0.4600 -0.1033
 3828TIP3   OH232898   6.114   6.738  16.595 -0.2195 -0.1560 -0.1736
 3828TIP3    H132899   6.123   6.688  16.514 -0.2950  0.5700 -0.6482
 3828TIP3    H232900   6.023   6.767  16.596  0.1601  1.1382 -0.6396
 3829TIP3   OH232901   4.166   5.268   3.599 -0.4426 -0.2489  0.2923
 3829TIP3    H132902   4.173   5.342   3.660  0.8116  0.1772 -0.3303
 3829TIP3    H232903   4.249   5.269   3.551 -1.2571 -0.8042 -1.1735
 3830TIP3   OH232904   3.352   1.862   5.366  0.0266 -0.8609 -0.0358
 3830TIP3    H132905   3.331   1.802   5.438  1.0699 -1.1387  0.0620
 3830TIP3    H232906   3.440   1.894   5.387 -0.0868 -0.1190 -0.6461
 3831TIP3   OH232907   5.116   6.617  17.029  0.3759 -0.3863 -0.0300
 3831TIP3    H132908   5.159   6.685  17.081 -0.3417  0.6326 -0.7427
 3831TIP3    H232909   5.122   6.539  17.084  1.3876  0.1895  0.7236
 3832TIP3   OH232910   6.027   5.389  16.827 -0.2442  0.2168  1.1060
 3832TIP3    H132911   6.102   5.397  16.886 -0.8803  1.2422  1.7986
 3832TIP3    H232912   6.012   5.479  16.796 -0.0683 -0.2633 -0.4500
 3833TIP3   OH232913   4.706   2.559  11.757 -0.0693  0.4950 -0.1271
 3833TIP3    H132914   4.783   2.551  11.702 -1.0143  2.9157 -1.9802
 3833TIP3    H232915   4.739   2.587  11.842  1.2010 -0.1716 -0.3881
 3834TIP3   OH232916   3.921   5.604  12.329  0.5232 -0.1340  0.6898
 3834TIP3    H132917   3.937   5.698  12.340 -1.6289  0.2857  0.6868
 3834TIP3    H232918   3.827   5.594  12.340  0.7473 -2.3829  1.1525
 3835TIP3   OH232919   0.795   2.269  16.296  0.3898  0.2225 -0.3256
 3835TIP3    H132920   0.768   2.252  16.386  0.1440  0.9978 -0.2544
 3835TIP3    H232921   0.792   2.183  16.254  0.1987 -0.0913  0.3193
 3836TIP3   OH232922   3.708   0.985  16.308 -0.2129  0.8599 -0.3618
 3836TIP3    H132923   3.710   0.905  16.359  0.0120  0.9082 -0.2934
 3836TIP3    H232924   3.622   0.985  16.266 -1.0238  1.5694  1.2198
 3837TIP3   OH232925   3.507   1.835   5.619  0.3394  0.0215  0.4407
 3837TIP3    H132926   3.596   1.830   5.652  0.5301 -0.3257 -0.1042
 3837TIP3    H232927   3.506   1.915   5.566  0.2186  0.2307  0.7591
 3838TIP3   OH232928   2.717   6.314  14.234  0.4560  0.0960 -0.9630
 3838TIP3    H132929   2.633   6.296  14.276  1.5062 -0.1290  1.1257
 3838TIP3    H232930   2.700   6.391  14.179 -1.5275 -1.0101 -1.9845
 3839TIP3   OH232931   0.485   4.619  14.741  0.6029  0.5855  0.1182
 3839TIP3    H132932   0.556   4.601  14.803  0.2842  1.0208  0.6252
 3839TIP3    H232933   0.528   4.658  14.666  0.8915  0.9814  0.4834
 3840TIP3   OH232934   3.100   3.568   3.303  0.1528 -0.2646 -0.3997
 3840TIP3    H132935   3.009   3.540   3.296  0.3819 -0.8303 -1.5216
 3840TIP3    H232936   3.148   3.488   3.324  0.4865 -0.1367 -0.6622
 3841TIP3   OH232937   4.935   6.538  11.880  0.0691  0.8571  0.2201
 3841TIP3    H132938   5.023   6.517  11.847 -0.0119  0.3358  0.3279
 3841TIP3    H232939   4.927   6.632  11.868  0.1572  0.7211 -0.9685
 3842TIP3   OH232940   5.823   5.445  13.977 -0.1413 -0.1033  0.2994
 3842TIP3    H132941   5.843   5.352  13.971  1.1540  0.2534 -3.6878
 3842TIP3    H232942   5.728   5.449  13.972 -0.1317 -1.2077 -1.7697
 3843TIP3   OH232943   5.632   1.881  16.908  0.0491  0.4148  0.0421
 3843TIP3    H132944   5.623   1.786  16.896 -0.1474  0.2232  1.4338
 3843TIP3    H232945   5.721   1.892  16.941 -0.5404  0.4510  1.7609
 3844TIP3   OH232946   0.695   1.675   2.253  0.6947 -0.4056  0.2112
 3844TIP3    H132947   0.616   1.623   2.241 -0.9316  1.4192  2.3522
 3844TIP3    H232948   0.736   1.639   2.331 -0.1404  1.0620  1.3724
 3845TIP3   OH232949   1.956   4.660   3.500 -0.4715 -0.0690 -0.3352
 3845TIP3    H132950   2.028   4.600   3.521 -1.2159 -0.3811  1.4551
 3845TIP3    H232951   1.978   4.693   3.413  0.7669 -1.7319 -0.7071
 3846TIP3   OH232952   1.912   5.963  17.007 -0.5388  0.1747 -0.1277
 3846TIP3    H132953   1.821   5.935  17.023 -0.1042 -0.1541  2.1251
 3846TIP3    H232954   1.961   5.881  17.000 -0.3427  0.3564 -1.0377
 3847TIP3   OH232955   2.555   1.585  12.489  0.2084 -0.2147 -0.2943
 3847TIP3    H132956   2.624   1.650  12.498 -0.0864 -0.1436  1.8742
 3847TIP3    H232957   2.601   1.501  12.485  0.4804 -0.0506 -0.6384
 3848TIP3   OH232958   2.537   4.078  10.935  0.2538  0.2732  0.7333
 3848TIP3    H132959   2.518   4.101  10.844 -0.9344  0.9905  1.1286
 3848TIP3    H232960   2.546   3.983  10.935 -0.3243  0.2086 -0.0494
 3849TIP3   OH232961   3.075   0.319   3.077 -0.0159  0.2702 -0.0656
 3849TIP3    H132962   3.123   0.401   3.080  0.5341  0.0022 -1.0654
 3849TIP3    H232963   3.108   0.269   3.152 -0.6430  1.0949  0.7829
 3850TIP3   OH232964   5.844   4.010   2.943  0.5365 -0.5458 -0.4961
 3850TIP3    H132965   5.882   4.082   2.993 -0.3804  0.4577 -1.2044
 3850TIP3    H232966   5.902   4.000   2.868  1.8172 -1.9388  0.6218
 3851TIP3   OH232967   0.370   6.248  17.185 -0.7489 -0.3302 -0.3844
 3851TIP3    H132968   0.442   6.186  17.201 -0.2525  0.3289 -0.0011
 3851TIP3    H232969   0.393   6.291  17.103  0.2496  1.1521  0.6157
 3852TIP3   OH232970   5.997   5.436  14.947 -0.2450  0.0270 -0.3155
 3852TIP3    H132971   6.000   5.351  14.903  0.4345 -0.6138  0.9376
 3852TIP3    H232972   5.918   5.434  15.000 -1.3823  1.0256 -1.8535
 3853TIP3   OH232973   5.384   4.630  12.057 -0.0131 -0.6155  0.0243
 3853TIP3    H132974   5.406   4.648  11.965  0.7073  1.1715  0.5060
 3853TIP3    H232975   5.377   4.717  12.097 -0.4799 -1.3692  1.6330
 3854TIP3   OH232976   3.382   3.583   2.494  0.2591 -0.1117  0.3858
 3854TIP3    H132977   3.457   3.640   2.476  0.5613 -0.6256  0.0042
 3854TIP3    H232978   3.312   3.618   2.439  0.5034 -0.2362 -0.0075
 3855TIP3   OH232979   0.418   6.691  14.525  0.2227  0.8187  0.2349
 3855TIP3    H132980   0.472   6.713  14.601 -1.7729  0.3583  1.8594
 3855TIP3    H232981   0.445   6.603  14.500 -0.5089  0.1154  1.7772
 3856TIP3   OH232982   5.265   2.367   4.541 -0.1762 -0.1953 -0.1394
 3856TIP3    H132983   5.282   2.273   4.551 -2.3557 -0.4473  1.8695
 3856TIP3    H232984   5.352   2.406   4.534  0.8549 -2.1861  0.6951
 3857TIP3   OH232985   3.182   3.670   0.292 -0.1642 -0.0103 -0.4546
 3857TIP3    H132986   3.159   3.755   0.255 -1.6285  0.5238  1.5145
 3857TIP3    H232987   3.276   3.675   0.309 -0.5641  2.0998  1.6232
 3858TIP3   OH232988   5.291   3.829   4.883  0.1627  0.6155 -0.0676
 3858TIP3    H132989   5.355   3.843   4.813  0.6122 -0.4944  0.0922
 3858TIP3    H232990   5.335   3.859   4.963  1.0269 -1.3237  0.2382
 3859TIP3   OH232991   3.057   0.451   2.764  0.2653  0.4130 -0.8946
 3859TIP3    H132992   3.081   0.367   2.725  0.5067 -0.4139  0.9140
 3859TIP3    H232993   3.110   0.456   2.844 -0.2894  1.9422 -0.5953
 3860TIP3   OH232994   4.969   6.703   2.214  0.3069 -0.0627  0.1854
 3860TIP3    H132995   4.937   6.743   2.295 -1.2232  0.4741 -0.6314
 3860TIP3    H232996   5.000   6.617   2.241 -2.7546 -1.0507  1.0305
 3861TIP3   OH232997   3.168   0.458   0.290  0.3403  0.2747  0.4943
 3861TIP3    H132998   3.221   0.432   0.215  1.3356 -0.1333  1.3147
 3861TIP3    H232999   3.145   0.375   0.332  0.7805  0.5422  1.2890
 3862TIP3   OH233000   6.185   4.017   3.120  0.0461  0.3785 -0.7293
 3862TIP3    H133001   6.249   4.000   3.050  1.5764 -0.4956  0.8102
 3862TIP3    H233002   6.155   3.930   3.145  0.3425  0.6044  0.4382
 3863TIP3   OH233003   4.220   1.174  15.835 -0.3101  0.3334  0.6078
 3863TIP3    H133004   4.156   1.111  15.868 -0.9913  1.7557  2.1200
 3863TIP3    H233005   4.236   1.233  15.909 -1.5220  3.3906 -1.3851
 3864TIP3   OH233006   5.567   0.473   0.424  0.4673 -0.2863  0.3545
 3864TIP3    H133007   5.611   0.419   0.358  1.7067  0.2552  0.7057
 3864TIP3    H233008   5.637   0.522   0.465 -0.4473  0.3614  1.1891
 3865TIP3   OH233009   5.519   3.580  12.786  0.1228  0.0257 -0.2453
 3865TIP3    H133010   5.571   3.585  12.705  2.0094 -0.3683  0.8639
 3865TIP3    H233011   5.524   3.488  12.812 -2.2401 -0.2915 -0.7274
 3866TIP3   OH233012   3.345   0.425   2.562  0.4279 -0.4419  0.0829
 3866TIP3    H133013   3.280   0.355   2.564  1.0819 -1.0584  0.5089
 3866TIP3    H233014   3.335   0.465   2.476 -1.8930  0.8264  0.8642
 3867TIP3   OH233015   5.086   2.942   4.083 -0.1180 -0.0841  0.1834
 3867TIP3    H133016   5.085   3.012   4.149  0.6339  0.1573 -0.0518
 3867TIP3    H233017   5.083   2.861   4.133  0.4480  0.1002  0.5189
 3868TIP3   OH233018   4.424   1.203  12.455  0.0804 -0.4245  0.4825
 3868TIP3    H133019   4.399   1.234  12.368 -0.0722 -2.7166 -0.3749
 3868TIP3    H233020   4.491   1.264  12.484 -1.4513  1.7152 -0.2383
 3869TIP3   OH233021   0.402   1.046  11.578 -0.5498 -0.0543 -0.5112
 3869TIP3    H133022   0.398   1.116  11.513 -1.4232 -0.5490 -1.0157
 3869TIP3    H233023   0.347   1.077  11.650 -0.1126  0.2119 -0.2897
 3870TIP3   OH233024   5.343   6.177   0.242 -0.3080  0.3352  0.0012
 3870TIP3    H133025   5.395   6.102   0.271  0.2376  0.6510 -0.1446
 3870TIP3    H233026   5.340   6.235   0.318  2.1374  1.7269 -0.8255
 3871TIP3   OH233027   1.957   3.367   6.215 -0.4183  0.5498  0.3069
 3871TIP3    H133028   1.892   3.362   6.145  0.6076  1.9116 -0.8073
 3871TIP3    H233029   1.978   3.460   6.222 -0.3223  0.4263  2.3042
 3872TIP3   OH233030   4.636   0.024   4.963  0.4901  0.0635  0.3163
 3872TIP3    H133031   4.547  -0.011   4.958  0.7828 -0.9688  1.6304
 3872TIP3    H233032   4.667  -0.001   5.050  2.0780  0.3807 -0.1171
 3873TIP3   OH233033   2.436   0.201   5.432  0.3058 -0.5840 -0.6028
 3873TIP3    H133034   2.479   0.278   5.468  2.3818 -0.5104 -3.0086
 3873TIP3    H233035   2.467   0.129   5.487  0.6457 -0.0807 -0.1185
 3874TIP3   OH233036   0.008   1.881  13.368  0.1476 -0.1287 -0.3332
 3874TIP3    H133037  -0.016   1.973  13.373  2.2555  0.6093 -1.9688
 3874TIP3    H233038   0.024   1.855  13.459  1.1675  1.6418  0.0368
 3875TIP3   OH233039   5.439   4.155  13.579 -0.3688 -0.3269  1.2011
 3875TIP3    H133040   5.393   4.176  13.498 -0.7508  0.3687  1.5817
 3875TIP3    H233041   5.458   4.240  13.618 -1.5746 -0.6398  2.5888
 3876TIP3   OH233042   3.121   0.237  11.456  0.8466 -0.6046 -0.1976
 3876TIP3    H133043   3.075   0.212  11.376  0.5338 -1.4208  0.2266
 3876TIP3    H233044   3.073   0.314  11.488  1.4646  0.2289 -1.2084
 3877TIP3   OH233045   4.692   4.091  16.078 -0.2621  0.1355 -0.5633
 3877TIP3    H133046   4.757   4.107  16.009  0.4270  1.4257  0.3281
 3877TIP3    H233047   4.635   4.168  16.074 -1.1846 -0.5520 -0.7354
 3878TIP3   OH233048   0.790   1.785   5.170  0.1074 -0.1617 -0.3230
 3878TIP3    H133049   0.815   1.692   5.173 -0.5914 -0.4196 -1.6014
 3878TIP3    H233050   0.778   1.809   5.262  1.5726 -0.9635  0.1104
 3879TIP3   OH233051   4.696   1.650  11.885 -0.6440 -0.3679  0.0505
 3879TIP3    H133052   4.692   1.556  11.864  0.2873 -0.0845 -1.5515
 3879TIP3    H233053   4.725   1.691  11.804  0.2118  1.1762  1.0915
 3880TIP3   OH233054   0.731   6.131  15.231  0.0977  0.1305  0.1515
 3880TIP3    H133055   0.772   6.186  15.164  0.7720 -0.4422  0.0831
 3880TIP3    H233056   0.706   6.192  15.300 -1.4205  0.8743 -0.9816
 3881TIP3   OH233057   3.660   3.940  14.447 -0.0833  0.0260  0.0005
 3881TIP3    H133058   3.594   4.005  14.470 -0.7934  0.0886 -2.0697
 3881TIP3    H233059   3.696   3.970  14.364  1.9609 -0.4888  0.6270
 3882TIP3   OH233060   0.415   2.687  11.319  0.5492 -0.7501  0.1659
 3882TIP3    H133061   0.483   2.627  11.350  2.3425  1.5916  1.0429
 3882TIP3    H233062   0.454   2.774  11.328 -1.8666  0.5723 -1.2073
 3883TIP3   OH233063   1.103   0.794   3.985 -0.3221 -0.3333 -0.4098
 3883TIP3    H133064   1.190   0.808   3.947 -0.9478  2.8145 -0.9802
 3883TIP3    H233065   1.101   0.850   4.063 -1.8469 -0.2682 -0.4609
 3884TIP3   OH233066   1.444   1.266   1.948  0.5755 -0.7207 -0.2526
 3884TIP3    H133067   1.456   1.265   2.043  1.0418 -2.8916 -0.2953
 3884TIP3    H233068   1.361   1.221   1.933  0.0760  0.3534 -0.8593
 3885TIP3   OH233069   0.418   6.381  12.493  0.7733 -0.1583  0.0893
 3885TIP3    H133070   0.344   6.320  12.496  0.5954  0.0565  0.1094
 3885TIP3    H233071   0.469   6.354  12.417  0.1307  0.3110 -0.5227
 3886TIP3   OH233072   3.261   5.069  16.985 -0.2323  0.0063 -0.3788
 3886TIP3    H133073   3.322   5.105  17.050  1.0730 -0.9435 -1.0337
 3886TIP3    H233074   3.255   4.976  17.007 -1.4789  0.0768 -0.3367
 3887TIP3   OH233075   4.135   6.420  14.790 -0.1266 -0.5179  0.1693
 3887TIP3    H133076   4.226   6.425  14.818 -0.2005 -0.8852  0.4989
 3887TIP3    H233077   4.091   6.491  14.837 -0.2678 -1.1915  1.0835
 3888TIP3   OH233078   5.361   2.813  12.503 -0.2044 -0.0132  0.6468
 3888TIP3    H133079   5.302   2.797  12.429  1.2401 -2.3452 -0.1062
 3888TIP3    H233080   5.369   2.908  12.507  0.6248  0.2118 -3.0234
 3889TIP3   OH233081   3.112   2.075  13.002  0.3247 -0.2533  0.2927
 3889TIP3    H133082   3.102   2.102  13.093 -2.1187 -0.4850  0.1537
 3889TIP3    H233083   3.102   1.980  13.004 -0.9723 -0.1413 -0.3400
 3890TIP3   OH233084   4.855   4.878   4.579  0.1133  0.1117 -0.0685
 3890TIP3    H133085   4.797   4.874   4.503 -1.1852 -1.4349  0.9295
 3890TIP3    H233086   4.943   4.885   4.542 -0.6065  1.1855 -1.6521
 3891TIP3   OH233087   0.177   4.331  15.076 -0.0719  0.0621 -0.5911
 3891TIP3    H133088   0.266   4.363  15.088  0.4246 -2.0136  2.7415
 3891TIP3    H233089   0.185   4.260  15.013  1.2695 -1.8212  1.5390
 3892TIP3   OH233090   2.077   0.064   0.818 -0.3785  0.1316 -0.5013
 3892TIP3    H133091   2.045   0.125   0.752 -0.9910 -0.8632 -1.1347
 3892TIP3    H233092   2.031   0.090   0.898 -0.1774  0.8760 -0.6182
 3893TIP3   OH233093   4.269   1.904  11.040  0.0277 -0.5009 -0.1562
 3893TIP3    H133094   4.331   1.945  10.980  0.8193  0.7552  1.4203
 3893TIP3    H233095   4.184   1.913  10.997  0.3603  1.7331 -0.4578
 3894TIP3   OH233096   3.955   0.165   5.997  0.0649 -0.4187  0.2174
 3894TIP3    H133097   3.887   0.112   5.957 -2.4276  3.5980 -1.5282
 3894TIP3    H233098   4.009   0.195   5.923  1.7577 -0.8960  1.1948
 3895TIP3   OH233099   0.751   4.734  11.976  0.2674  0.3663  0.4282
 3895TIP3    H133100   0.686   4.769  11.915 -0.3278 -0.2115  0.7193
 3895TIP3    H233101   0.795   4.811  12.011 -0.0055  0.7477 -0.0510
 3896TIP3   OH233102   5.088   1.761  14.986 -0.4196 -0.0955 -0.1889
 3896TIP3    H133103   5.124   1.826  15.047  0.5599 -0.6870 -0.1044
 3896TIP3    H233104   5.006   1.732  15.027 -0.1731  0.0925  0.4559
 3897TIP3   OH233105   5.820   3.987   0.106  0.1852  0.1851  0.3274
 3897TIP3    H133106   5.775   4.013   0.026 -0.5275  0.3781  0.7860
 3897TIP3    H233107   5.853   3.899   0.087 -0.2249  0.1173 -0.0822
 3898TIP3   OH233108   4.833   2.582   5.778  0.2243  0.0367 -0.1133
 3898TIP3    H133109   4.742   2.569   5.801 -0.9186  0.7964 -3.5545
 3898TIP3    H233110   4.845   2.677   5.779 -0.1320  0.1997 -2.8706
 3899TIP3   OH233111   2.699   4.559  16.279 -0.1274 -0.5727 -0.4503
 3899TIP3    H133112   2.715   4.515  16.363  1.1447 -1.2655 -1.0211
 3899TIP3    H233113   2.658   4.642  16.303 -1.2597 -1.4264  0.7511
 3900TIP3   OH233114   0.077   0.521  16.466  0.4560 -0.1606  0.0575
 3900TIP3    H133115   0.122   0.464  16.404  2.3450 -1.6127  2.5411
 3900TIP3    H233116   0.040   0.461  16.531  0.0981  1.3161  1.2741
 3901TIP3   OH233117   4.102   4.686   6.188  0.4378 -0.2510 -0.1298
 3901TIP3    H133118   4.040   4.732   6.131  0.8271  1.7259  0.9588
 3901TIP3    H233119   4.060   4.684   6.274  1.9964  1.6079  0.7652
 3902TIP3   OH233120   4.745   5.557   0.489 -0.0584 -0.5247 -0.0592
 3902TIP3    H133121   4.748   5.540   0.394 -1.1652  1.3495 -0.4828
 3902TIP3    H233122   4.657   5.591   0.504 -0.7630 -3.0168  2.1083
 3903TIP3   OH233123   4.096   2.660  11.903 -0.1212  0.0452 -0.6160
 3903TIP3    H133124   4.084   2.750  11.932 -1.2926 -0.5539  0.8555
 3903TIP3    H233125   4.028   2.646  11.837 -1.1020 -0.2683  0.4314
 3904TIP3   OH233126   6.319   6.269   4.544  0.6292  0.4046 -0.2707
 3904TIP3    H133127   6.369   6.335   4.495  0.1921  0.5435 -0.5392
 3904TIP3    H233128   6.343   6.284   4.635  1.4513  0.1468 -0.4374
 3905TIP3   OH233129   3.325   5.896  15.800 -0.1468 -0.1722 -0.1899
 3905TIP3    H133130   3.373   5.847  15.732  1.5723 -0.7208  1.3398
 3905TIP3    H233131   3.349   5.852  15.882 -1.3141  1.1423  0.8938
 3906TIP3   OH233132   2.738   2.508  12.465  0.0932  0.1017 -0.0555
 3906TIP3    H133133   2.769   2.586  12.510 -0.6194 -1.2737  3.0779
 3906TIP3    H233134   2.670   2.539  12.406  0.7937  1.9631  0.0609
 3907TIP3   OH233135   2.708   2.078  12.363 -0.1784 -0.0526  0.0056
 3907TIP3    H133136   2.768   2.062  12.290  0.6875  2.7725 -0.0119
 3907TIP3    H233137   2.719   2.002  12.421  0.6737 -1.3339 -1.7497
 3908TIP3   OH233138   6.434   4.108   1.389 -0.1176 -0.6432  0.2520
 3908TIP3    H133139   6.376   4.120   1.464 -1.8791  0.3110 -1.1723
 3908TIP3    H233140   6.390   4.041   1.336  1.8942 -2.4601  0.7721
 3909TIP3   OH233141   6.500   5.237  12.855 -0.2121  0.3948 -0.1385
 3909TIP3    H133142   6.554   5.229  12.776 -0.6757 -1.9841 -0.2697
 3909TIP3    H233143   6.415   5.201  12.830 -0.6753  0.5242  1.1801
 3910TIP3   OH233144   1.463   2.371  13.373  0.0193 -0.3620  0.1996
 3910TIP3    H133145   1.467   2.293  13.317  0.2524 -0.0386 -0.2354
 3910TIP3    H233146   1.554   2.400  13.380  0.1024 -0.8392  1.3786
 3911TIP3   OH233147   1.271   1.864   3.822 -0.1177  0.0663 -0.4842
 3911TIP3    H133148   1.340   1.811   3.862 -0.1042  0.5353  0.1420
 3911TIP3    H233149   1.313   1.905   3.747  0.0398 -0.3346 -0.6190
 3912TIP3   OH233150   3.712   2.210  12.300  0.1795  0.0147  0.3891
 3912TIP3    H133151   3.690   2.210  12.393 -0.0394  2.5798  0.4112
 3912TIP3    H233152   3.808   2.203  12.299  0.3100  1.2827  0.9297
 3913TIP3   OH233153   6.059   5.188  16.356  0.0786 -0.5649  0.5010
 3913TIP3    H133154   6.043   5.111  16.411 -0.3098 -0.0030  1.1998
 3913TIP3    H233155   5.972   5.220  16.333  0.0912  1.3177  2.6282
 3914TIP3   OH233156   6.348   2.344   4.685  0.2624  0.6091 -0.0486
 3914TIP3    H133157   6.417   2.409   4.679  2.3346 -1.2837  1.5017
 3914TIP3    H233158   6.394   2.260   4.684 -2.0026 -0.7405  1.0627
 3915TIP3   OH233159   5.454   0.334  16.651  0.1753  0.1511 -0.3543
 3915TIP3    H133160   5.367   0.359  16.620  0.7878 -0.6180 -2.8849
 3915TIP3    H233161   5.438   0.267  16.717 -1.1705 -0.9888 -1.7734
 3916TIP3   OH233162   2.967   6.001  11.527  0.1569  0.0685  0.1913
 3916TIP3    H133163   2.897   5.937  11.514  2.1866 -2.1335 -0.5748
 3916TIP3    H233164   2.932   6.083  11.492 -1.7830 -1.0942 -0.7331
 3917TIP3   OH233165   6.695   3.700   2.111  0.4514 -0.3275  0.4171
 3917TIP3    H133166   6.723   3.644   2.039  3.8297  0.2719  1.0957
 3917TIP3    H233167   6.765   3.693   2.176 -2.0519 -0.2290  3.3814
 3918TIP3   OH233168   2.889   1.972   4.109  0.3357  0.2675  0.5976
 3918TIP3    H133169   2.881   2.065   4.130 -0.2644  0.8558 -1.9644
 3918TIP3    H233170   2.804   1.948   4.072  1.0872 -0.8023 -0.5110
 3919TIP3   OH233171   4.446   2.904  10.861  0.4950  0.2414  0.1224
 3919TIP3    H133172   4.438   2.999  10.871  0.3253  0.0947  1.6081
 3919TIP3    H233173   4.373   2.868  10.911  0.6474 -0.6831 -0.3016
 3920TIP3   OH233174   0.124   2.150  12.109 -0.2753  0.2865  0.0407
 3920TIP3    H133175   0.206   2.200  12.109  1.1318 -1.8877 -0.6048
 3920TIP3    H233176   0.062   2.206  12.062  1.8018  0.6118 -2.5576
 3921TIP3   OH233177   2.879   1.862  11.346  0.1792 -0.3408 -0.0077
 3921TIP3    H133178   2.850   1.954  11.352 -1.3432 -0.6702 -1.5739
 3921TIP3    H233179   2.831   1.818  11.416  0.5643 -0.0447  0.4533
 3922TIP3   OH233180   4.640   5.846  14.790  0.5480  0.2349  0.2878
 3922TIP3    H133181   4.594   5.905  14.849  0.9935  0.8000  0.0777
 3922TIP3    H233182   4.629   5.759  14.829 -1.0369  0.2947  0.0221
 3923TIP3   OH233183   5.311   6.357  14.406 -0.1378 -0.6488  0.1634
 3923TIP3    H133184   5.352   6.330  14.324 -0.7772  0.8317 -0.6860
 3923TIP3    H233185   5.266   6.439  14.385  0.2506  0.1437  2.1678
 3924TIP3   OH233186   6.480   2.112   5.402 -0.1089 -0.6048 -0.1665
 3924TIP3    H133187   6.415   2.089   5.336 -1.3672 -0.2086  0.8853
 3924TIP3    H233188   6.452   2.065   5.481 -1.5801  2.7180  1.4968
 3925TIP3   OH233189   2.940   5.752   2.945 -0.0569  0.3687 -0.1753
 3925TIP3    H133190   3.032   5.774   2.952 -0.0405 -0.0984  1.5739
 3925TIP3    H233191   2.899   5.831   2.909  0.5768  1.8727  2.1535
 3926TIP3   OH233192   3.159   3.738  14.653 -0.1510  0.1943  0.1610
 3926TIP3    H133193   3.127   3.802  14.590  4.2049  1.4943 -1.0968
 3926TIP3    H233194   3.214   3.679  14.601 -2.0103 -3.2132  1.7162
 3927TIP3   OH233195   5.709   6.735   0.308  0.3065 -0.3293 -0.3982
 3927TIP3    H133196   5.787   6.689   0.341  0.8225  0.6742 -0.1788
 3927TIP3    H233197   5.695   6.698   0.221  0.2207 -1.4702  0.0821
 3928TIP3   OH233198   0.498   2.679  14.436 -0.3216  0.1166  0.3000
 3928TIP3    H133199   0.519   2.766  14.469 -1.8555  0.4201  0.5621
 3928TIP3    H233200   0.429   2.693  14.372  0.3192 -0.8002 -0.6252
 3929TIP3   OH233201   2.171   1.439  11.221  0.4648  0.0064 -0.1105
 3929TIP3    H133202   2.155   1.509  11.284  0.5184  0.4020 -0.5388
 3929TIP3    H233203   2.087   1.425  11.178  0.7771  0.7799 -1.0141
 3930TIP3   OH233204   2.229   6.083  12.681 -0.1927  0.3953 -0.2189
 3930TIP3    H133205   2.151   6.039  12.646  0.8487 -0.4978 -1.4802
 3930TIP3    H233206   2.279   6.014  12.724 -0.2710  1.0458  0.9509
 3931TIP3   OH233207   0.509   4.944   0.373  0.0731  0.0491 -0.0848
 3931TIP3    H133208   0.502   5.038   0.357 -0.0989  0.1859  0.7430
 3931TIP3    H233209   0.566   4.937   0.450  1.2685 -0.6011 -0.9944
 3932TIP3   OH233210   5.828   4.355  12.052 -0.2370 -0.6042 -0.0576
 3932TIP3    H133211   5.763   4.417  12.086 -1.3488 -1.4525 -0.5799
 3932TIP3    H233212   5.843   4.293  12.123  0.5538 -0.0061  0.3119
 3933TIP3   OH233213   6.381   4.042  15.491  0.6661  0.4566 -0.3184
 3933TIP3    H133214   6.476   4.031  15.496  0.6201 -0.0246 -0.4313
 3933TIP3    H233215   6.354   4.052  15.582  0.5291 -2.1245  0.0094
 3934TIP3   OH233216   6.363   0.810  16.517  0.0974 -0.8494  0.5843
 3934TIP3    H133217   6.311   0.798  16.596 -1.3132  0.4867 -0.0803
 3934TIP3    H233218   6.428   0.739  16.520 -2.5696 -3.5133  0.8110
 3935TIP3   OH233219   0.457   1.615  12.277  0.1995 -0.1188 -0.0805
 3935TIP3    H133220   0.544   1.619  12.238 -0.1177  0.4491 -0.7330
 3935TIP3    H233221   0.461   1.673  12.353 -0.0625  1.1862 -1.0279
 3936TIP3   OH233222   3.429   5.362   2.586 -1.0625  0.2049 -0.1740
 3936TIP3    H133223   3.491   5.311   2.533 -1.1703  0.9827 -1.0757
 3936TIP3    H233224   3.478   5.385   2.665 -0.0894  1.0572 -1.0007
 3937TIP3   OH233225   0.597   4.978  13.381  0.1938  0.6043 -0.6264
 3937TIP3    H133226   0.609   4.903  13.438  0.1933  0.3506 -0.9569
 3937TIP3    H233227   0.515   4.960  13.334  1.1463 -0.1043 -2.0877
 3938TIP3   OH233228   6.774   3.037   3.835  0.2758  0.2582  0.3261
 3938TIP3    H133229   6.692   2.992   3.854 -0.5239  0.6173 -1.8992
 3938TIP3    H233230   6.808   2.992   3.758  1.5666  0.8796  0.5169
 3939TIP3   OH233231   2.803   2.316   3.452  0.0512 -0.3478 -0.3669
 3939TIP3    H133232   2.832   2.407   3.466 -0.3370 -0.5105  1.7003
 3939TIP3    H233233   2.875   2.263   3.485  0.3922 -0.8492 -1.8162
 3940TIP3   OH233234   5.465   5.982   2.468  0.1513 -0.2754  0.1266
 3940TIP3    H133235   5.472   5.889   2.491 -0.4110 -0.0019  1.4782
 3940TIP3    H233236   5.496   6.028   2.546  1.6112  0.6802 -0.9643
 3941TIP3   OH233237   2.905   5.955  13.604 -0.2258 -0.2477  0.2626
 3941TIP3    H133238   2.870   6.032  13.559  0.4202 -0.7901 -1.2264
 3941TIP3    H233239   2.974   5.923  13.547  1.2844 -0.4600  2.1060
 3942TIP3   OH233240   3.873   5.684   0.274  0.1750  0.1549  0.3158
 3942TIP3    H133241   3.844   5.685   0.183 -2.1142  2.6191  0.9426
 3942TIP3    H233242   3.850   5.597   0.306  1.0168 -0.7553 -1.3846
 3943TIP3   OH233243   0.527   6.021  14.323 -0.5014  0.3043  0.9207
 3943TIP3    H133244   0.494   5.973  14.399 -2.5969 -0.4461 -0.3874
 3943TIP3    H233245   0.565   5.954  14.267 -2.0673  0.3140 -0.2176
 3944TIP3   OH233246   3.434   4.777  15.978  0.1943  0.1900  0.0390
 3944TIP3    H133247   3.351   4.732  15.964  0.6209 -0.1669 -1.5088
 3944TIP3    H233248   3.411   4.868  15.991 -0.4231  0.1556 -0.7704
 3945TIP3   OH233249   1.138   3.049  12.237 -0.7222 -0.2242  0.1976
 3945TIP3    H133250   1.192   2.974  12.213 -0.4769 -0.1164  0.3984
 3945TIP3    H233251   1.198   3.106  12.286 -0.6642  0.5277 -0.7344
 3946TIP3   OH233252   2.748   2.601   1.517 -0.1255 -0.2699 -0.4893
 3946TIP3    H133253   2.758   2.520   1.468 -1.1110 -0.5968 -0.1731
 3946TIP3    H233254   2.654   2.621   1.511  0.0007  0.4933 -0.0212
 3947TIP3   OH233255   0.490   1.917  10.713  0.1911 -0.5816  0.1269
 3947TIP3    H133256   0.458   1.827  10.712 -0.1247 -0.4798 -1.3933
 3947TIP3    H233257   0.411   1.970  10.727  0.1447 -0.4765 -0.5160
 3948TIP3   OH233258   1.548   1.873  15.182  0.1029  1.1535  0.0499
 3948TIP3    H133259   1.633   1.849  15.219  0.0875  1.7618  0.4978
 3948TIP3    H233260   1.521   1.951  15.231 -0.4825  1.2652 -0.4290
 3949TIP3   OH233261   5.522   4.060  13.830  0.1756 -0.3738 -0.0687
 3949TIP3    H133262   5.490   4.101  13.749  1.6833  2.1040  0.4922
 3949TIP3    H233263   5.615   4.081  13.832 -0.1657  1.6201  3.3188
 3950TIP3   OH233264   3.955   3.485  16.095 -0.3244 -0.3898  0.0959
 3950TIP3    H133265   4.031   3.491  16.037 -0.2198  1.5939  0.3670
 3950TIP3    H233266   3.895   3.553  16.062 -0.2786  0.7667  2.2336
 3951TIP3   OH233267   0.448   6.532   0.817  0.1794  0.6084  0.5457
 3951TIP3    H133268   0.417   6.558   0.904  2.1905  0.7609  1.2595
 3951TIP3    H233269   0.526   6.585   0.802  0.6160 -0.3579 -0.8016
 3952TIP3   OH233270   4.947   2.619  16.654 -0.2671 -0.6045 -0.6475
 3952TIP3    H133271   4.948   2.607  16.749 -1.2598  0.2896 -0.5047
 3952TIP3    H233272   4.859   2.650  16.634 -0.6668 -2.4795 -2.1032
 3953TIP3   OH233273   5.726   0.264   5.559  1.2479  0.1714  0.1950
 3953TIP3    H133274   5.781   0.308   5.493  0.9799  0.9750  0.4914
 3953TIP3    H233275   5.644   0.247   5.513  1.9570 -1.6718 -0.4631
 3954TIP3   OH233276   3.460   1.964   3.007 -0.7756  0.9065  0.0190
 3954TIP3    H133277   3.455   1.918   2.923  0.6238  0.3670  0.2129
 3954TIP3    H233278   3.470   1.895   3.072 -0.4523  1.3891  0.4880
 3955TIP3   OH233279   2.230   4.490   1.425 -0.1858  0.1218  0.3486
 3955TIP3    H133280   2.170   4.440   1.481 -0.9273  2.4284  1.7397
 3955TIP3    H233281   2.243   4.572   1.471  0.8612  1.3111 -1.9070
 3956TIP3   OH233282   0.425   1.800   0.058  0.0673  0.0634 -0.2426
 3956TIP3    H133283   0.493   1.842   0.110  1.3376  0.5135 -2.1905
 3956TIP3    H233284   0.434   1.837  -0.029 -0.9989 -1.7724 -1.2049
 3957TIP3   OH233285   6.432   4.246   0.677  0.1013 -0.1309  0.0734
 3957TIP3    H133286   6.494   4.240   0.603  0.0316 -0.5220  0.0422
 3957TIP3    H233287   6.368   4.177   0.659  1.3093 -1.7350  1.6264
 3958TIP3   OH233288   2.983   2.827   3.922 -0.4814 -0.8491  0.1427
 3958TIP3    H133289   2.979   2.921   3.941  0.1585 -0.8758  0.4300
 3958TIP3    H233290   2.892   2.801   3.909 -0.5709  0.1021 -1.3875
 3959TIP3   OH233291   3.239   4.881   0.646  0.5960  0.0516 -0.4193
 3959TIP3    H133292   3.200   4.878   0.734  1.4561 -0.5686 -0.0518
 3959TIP3    H233293   3.193   4.953   0.603 -0.5578 -0.2924  0.1913
 3960TIP3   OH233294   1.796   0.988  14.769  0.2561  0.1506 -0.0294
 3960TIP3    H133295   1.709   0.953  14.787  0.0470  1.9409  3.0357
 3960TIP3    H233296   1.782   1.082  14.755  1.8132  0.8826  2.6437
 3961TIP3   OH233297   2.620   0.066   0.604  0.5550  0.8999 -0.3254
 3961TIP3    H133298   2.525   0.079   0.612  0.5370  0.9011 -0.5357
 3961TIP3    H233299   2.635  -0.021   0.642  0.2794  0.3150 -1.5019
 3962TIP3   OH233300   3.892   2.459   0.783 -0.2220 -0.8684 -0.3995
 3962TIP3    H133301   3.834   2.416   0.720  0.6938 -1.8835 -0.5931
 3962TIP3    H233302   3.980   2.448   0.746  0.3348 -1.4444  1.0149
 3963TIP3   OH233303   4.389   6.226  13.483  0.4227  1.0667  0.0363
 3963TIP3    H133304   4.387   6.254  13.575  0.5879 -0.1688  0.4485
 3963TIP3    H233305   4.443   6.146  13.484  0.5664  1.1297 -1.1692
 3964TIP3   OH233306   6.592   4.518   6.145  0.3034 -0.2734  0.5678
 3964TIP3    H133307   6.682   4.506   6.175  0.5648  0.9450  0.3134
 3964TIP3    H233308   6.539   4.471   6.209  1.0019  0.4680  1.7179
 3965TIP3   OH233309   3.433   2.295  15.249  0.1075  0.3695 -0.1987
 3965TIP3    H133310   3.426   2.348  15.328  1.2728 -0.5354  0.5436
 3965TIP3    H233311   3.353   2.242  15.249 -0.4190  1.1424 -0.2311
 3966TIP3   OH233312   6.135   5.235  15.738 -0.2057  0.0865 -0.2074
 3966TIP3    H133313   6.070   5.192  15.682  1.7902 -0.5126 -2.1739
 3966TIP3    H233314   6.095   5.320  15.760 -1.5742 -0.1925 -1.4848
 3967TIP3   OH233315   0.196   5.697  13.478 -0.0316 -0.7822  0.3638
 3967TIP3    H133316   0.272   5.674  13.530 -0.4550 -0.5821  1.0784
 3967TIP3    H233317   0.127   5.714  13.542 -0.4692 -0.2213 -0.2431
 3968TIP3   OH233318   0.847   3.558  13.966  0.2887 -0.3411 -0.0432
 3968TIP3    H133319   0.846   3.648  13.935 -3.5503 -0.3853 -0.5656
 3968TIP3    H233320   0.930   3.522  13.935  1.5098  2.7206 -0.6037
 3969TIP3   OH233321   0.154   0.375  11.768 -0.2205 -0.1701  0.0164
 3969TIP3    H133322   0.118   0.438  11.706  0.3475  0.8420  0.6862
 3969TIP3    H233323   0.078   0.338  11.813 -0.5214  0.7617  0.2956
 3970TIP3   OH233324   5.476   3.279  16.491 -0.1320 -0.2095 -0.3664
 3970TIP3    H133325   5.393   3.326  16.493  0.3231  0.6626  1.8544
 3970TIP3    H233326   5.540   3.344  16.521  1.4073 -0.8181 -2.1161
 3971TIP3   OH233327   3.990   0.543   2.598  0.1743 -0.1112  0.0896
 3971TIP3    H133328   4.072   0.580   2.630 -0.1018  0.0603  0.6170
 3971TIP3    H233329   4.013   0.502   2.515  0.2928  2.1446 -1.0662
 3972TIP3   OH233330   5.668   0.503  16.742 -0.0896  0.3854 -0.2411
 3972TIP3    H133331   5.647   0.540  16.828  0.9463 -0.5026  0.4185
 3972TIP3    H233332   5.591   0.450  16.720  0.0866 -0.2695  0.6618
 3973TIP3   OH233333   6.201   5.036  14.713 -0.3668  0.3063 -0.0106
 3973TIP3    H133334   6.294   5.030  14.694 -0.6321 -0.9987 -1.0616
 3973TIP3    H233335   6.166   4.950  14.690 -1.9015  0.8942 -0.0256
 3974TIP3   OH233336   3.593   3.133  15.815  0.3577 -0.2660 -0.1834
 3974TIP3    H133337   3.649   3.206  15.843  1.1844 -1.3385  1.0442
 3974TIP3    H233338   3.640   3.095  15.740  2.1920 -2.1022  1.7521
 3975TIP3   OH233339   3.508   5.856   3.638  0.2650 -0.6375  0.3909
 3975TIP3    H133340   3.475   5.778   3.593  0.2853  0.2412 -1.2314
 3975TIP3    H233341   3.429   5.904   3.665  0.1718  0.2695 -1.3525
 3976TIP3   OH233342   4.151   0.963  11.558  0.7164 -0.0673 -0.3610
 3976TIP3    H133343   4.245   0.977  11.548  0.6492 -0.6119 -2.3792
 3976TIP3    H233344   4.122   1.031  11.619  2.3232  0.4725 -0.1590
 3977TIP3   OH233345   6.149   4.321   0.205 -0.1949  0.1121  0.4777
 3977TIP3    H133346   6.228   4.350   0.250  0.9099 -1.9570 -0.0010
 3977TIP3    H233347   6.108   4.259   0.266 -1.3986  1.0320  0.6486
 3978TIP3   OH233348   3.525   5.973   1.038  0.1725  0.3917 -0.6065
 3978TIP3    H133349   3.469   5.945   0.966 -0.9834  0.6042  0.1934
 3978TIP3    H233350   3.614   5.948   1.010 -0.1714  0.9610 -2.3360
 3979TIP3   OH233351   6.469   3.205   4.247  0.4568  0.0076 -0.0857
 3979TIP3    H133352   6.432   3.221   4.160 -1.1416  2.1573  0.8948
 3979TIP3    H233353   6.423   3.128   4.278  0.8014 -0.5827 -0.9910
 3980TIP3   OH233354   1.074   4.000  13.873 -0.2315 -0.1302  0.0071
 3980TIP3    H133355   1.105   3.923  13.920 -0.5852  0.1127  0.6467
 3980TIP3    H233356   1.152   4.036  13.832  0.1614 -0.0950  0.7726
 3981TIP3   OH233357   1.283   3.648  11.449  0.4856  0.0551 -0.6811
 3981TIP3    H133358   1.351   3.709  11.476 -0.6213  0.8120  0.5413
 3981TIP3    H233359   1.295   3.572  11.507 -0.2527  0.5826  0.2018
 3982TIP3   OH233360   6.229   2.622  16.272 -0.6994  0.1987 -0.6494
 3982TIP3    H133361   6.168   2.600  16.202  1.7130 -1.8867 -2.2867
 3982TIP3    H233362   6.265   2.538  16.301  2.4413  1.3308 -0.8676
 3983TIP3   OH233363   3.057   4.942  15.777  0.2416  0.5388 -0.4515
 3983TIP3    H133364   3.055   5.038  15.777  3.3697  0.7284  0.5659
 3983TIP3    H233365   2.991   4.917  15.842 -0.1426  2.0335 -0.2322
 3984TIP3   OH233366   6.042   2.500  16.501 -0.0548  0.0078  0.0941
 3984TIP3    H133367   6.020   2.550  16.422  0.3539  0.1238  0.0535
 3984TIP3    H233368   5.984   2.537  16.568  0.4381  0.7384  0.1306
 3985TIP3   OH233369   3.002   6.620   4.336 -0.3754 -0.2245 -0.1261
 3985TIP3    H133370   2.955   6.588   4.260  2.5362 -1.0207 -1.7385
 3985TIP3    H233371   3.062   6.549   4.360 -1.2966 -0.0877  3.1008
 3986TIP3   OH233372   1.605   4.503   5.725  0.3106  0.1203 -0.5669
 3986TIP3    H133373   1.673   4.565   5.700  1.1881 -1.8708 -3.6455
 3986TIP3    H233374   1.622   4.425   5.673 -2.7486 -1.4915  0.5471
 3987TIP3   OH233375   5.425   5.349   0.400  0.4699 -0.2508 -0.0439
 3987TIP3    H133376   5.419   5.387   0.312  0.5725 -0.3902 -0.1102
 3987TIP3    H233377   5.350   5.289   0.405  0.4518 -0.2272 -0.0273
 3988TIP3   OH233378   6.211   2.969   3.590  0.6023  0.0445 -0.5389
 3988TIP3    H133379   6.163   3.048   3.612  0.4606  0.0693 -0.9400
 3988TIP3    H233380   6.168   2.934   3.512  2.2429  0.9748 -1.9326
 3989TIP3   OH233381   6.128   6.744   1.089 -0.0280 -0.0505 -0.3349
 3989TIP3    H133382   6.107   6.835   1.067 -1.8776 -0.3337  0.1164
 3989TIP3    H233383   6.197   6.720   1.027 -1.9580  0.5729 -2.8998
 3990TIP3   OH233384   0.126   0.876  12.867 -0.2261  0.5414  0.1585
 3990TIP3    H133385   0.138   0.889  12.961  0.7772  0.5301  0.0397
 3990TIP3    H233386   0.214   0.860  12.833  0.0333  4.1307 -1.3448
 3991TIP3   OH233387   1.427   4.337   6.038 -0.1368 -0.3382  0.3866
 3991TIP3    H133388   1.460   4.401   6.100 -0.8943  0.6922 -0.2423
 3991TIP3    H233389   1.438   4.253   6.082  1.4734  0.1390  0.9795
 3992TIP3   OH233390   6.403   0.900  12.393 -0.0976  0.2870  0.1447
 3992TIP3    H133391   6.351   0.825  12.420  0.2591  0.3048  0.8896
 3992TIP3    H233392   6.430   0.878  12.303 -2.2740  0.7747 -0.7046
 3993TIP3   OH233393   1.669   3.245  12.364 -0.0698 -0.1351 -0.1554
 3993TIP3    H133394   1.615   3.176  12.327  1.1520 -0.3560 -1.6263
 3993TIP3    H233395   1.708   3.206  12.443 -0.8438 -0.4694  0.0632
 3994TIP3   OH233396   3.240   6.584  13.663 -0.3223 -0.3193  0.0530
 3994TIP3    H133397   3.289   6.567  13.743 -0.4214 -1.8306 -0.1681
 3994TIP3    H233398   3.195   6.501  13.645 -1.6266  0.5114 -0.6611
 3995TIP3   OH233399   4.070   6.019  16.333 -0.2382 -0.4903 -0.0645
 3995TIP3    H133400   4.041   5.935  16.368 -2.2177 -0.6293 -1.8610
 3995TIP3    H233401   3.992   6.057  16.293  0.5482  2.3133  0.8303
 3996TIP3   OH233402   2.951   5.545   2.761 -0.0264 -0.4408 -0.2495
 3996TIP3    H133403   2.904   5.552   2.678 -2.7645 -1.4405  1.0853
 3996TIP3    H233404   2.929   5.625   2.809 -0.6850 -1.0526  0.5057
 3997TIP3   OH233405   1.515   5.201  14.446 -0.2294 -0.2998 -0.4849
 3997TIP3    H133406   1.454   5.132  14.473  2.3962 -1.7909  2.2686
 3997TIP3    H233407   1.489   5.278  14.497  0.1182 -0.9213  0.6638
 3998TIP3   OH233408   1.452   4.928   0.692  0.2249  0.0756 -0.3271
 3998TIP3    H133409   1.458   4.859   0.757 -1.1453  0.9303  0.7683
 3998TIP3    H233410   1.538   4.969   0.692  0.9929 -1.4835 -0.8602
 3999TIP3   OH233411   2.432   0.837  13.709  0.2634 -0.1916 -0.0532
 3999TIP3    H133412   2.361   0.805  13.763 -0.0591  0.8431  0.1715
 3999TIP3    H233413   2.435   0.778  13.634 -0.6830 -0.3796  0.0541
 4000TIP3   OH233414   0.545   5.521   4.168 -0.6409 -0.2631  0.4263
 4000TIP3    H133415   0.468   5.533   4.113  1.0841  0.6852 -1.9888
 4000TIP3    H233416   0.560   5.607   4.207  1.1827  0.6753 -2.0781
 4001TIP3   OH233417   4.045   6.192  11.398  0.6280 -0.3720 -0.2857
 4001TIP3    H133418   3.976   6.181  11.463 -0.1141  3.9961  0.0184
 4001TIP3    H233419   4.124   6.210  11.450  0.3243  1.7710 -0.4728
 4002TIP3   OH233420   2.835   4.725  12.940  0.4119 -0.2698  0.5505
 4002TIP3    H133421   2.748   4.695  12.914  0.9926  0.6385 -2.9777
 4002TIP3    H233422   2.820   4.814  12.972 -0.0179 -0.2875  0.4129
 4003TIP3   OH233423   5.746   1.438   0.214  0.4566  0.4385 -0.1319
 4003TIP3    H133424   5.675   1.431   0.151  0.1263  0.7058  0.2044
 4003TIP3    H233425   5.749   1.351   0.256 -0.1917  0.6600  0.3961
 4004TIP3   OH233426   3.706   5.748   5.992 -0.2827 -0.1205  0.3453
 4004TIP3    H133427   3.706   5.784   6.080 -0.0600  0.6095  0.0528
 4004TIP3    H233428   3.796   5.717   5.979  0.0241  0.9023 -0.0677
 4005TIP3   OH233429   2.867   6.472   4.163  0.0561  0.1645  0.3578
 4005TIP3    H133430   2.894   6.381   4.150 -0.3369  0.0812  0.1082
 4005TIP3    H233431   2.780   6.477   4.124 -0.2485  0.4529  1.0587
 4006TIP3   OH233432   4.853   5.883   6.252 -0.2786  0.1572  0.0240
 4006TIP3    H133433   4.790   5.911   6.186  0.4626  0.0900 -0.7248
 4006TIP3    H233434   4.938   5.904   6.215  0.1606  0.0249  0.9184
 4007TIP3   OH233435   5.306   0.873  15.205 -0.0721  0.1811 -0.1494
 4007TIP3    H133436   5.373   0.850  15.141 -0.0051  3.0463 -1.2338
 4007TIP3    H233437   5.323   0.815  15.279  2.4510 -0.4264 -1.1039
 4008TIP3   OH233438   6.770   5.378   5.461  0.5112 -0.5465  0.0327
 4008TIP3    H133439   6.710   5.402   5.531 -0.3067  0.0086 -0.8418
 4008TIP3    H233440   6.762   5.283   5.454  0.9797 -0.6777  1.0100
 4009TIP3   OH233441   2.328   4.069  13.679 -0.6988 -0.4205 -0.0421
 4009TIP3    H133442   2.379   4.049  13.601 -2.2138 -2.0759 -0.6770
 4009TIP3    H233443   2.381   4.035  13.751  0.4174  0.5469 -0.3835
 4010TIP3   OH233444   6.045   3.254   4.182  0.7267 -0.2016 -0.5760
 4010TIP3    H133445   6.058   3.341   4.145  0.5659  0.7784  1.5145
 4010TIP3    H233446   6.005   3.270   4.268  1.5404 -2.2781  0.2694
 4011TIP3   OH233447   0.899   4.277   4.916 -0.3315  0.0824  0.1711
 4011TIP3    H133448   0.938   4.191   4.899  0.7435  0.8440 -1.3942
 4011TIP3    H233449   0.968   4.327   4.958  1.0362  1.8403 -3.7029
 4012TIP3   OH233450   3.016   4.493  13.589 -0.1271 -0.1094 -0.2070
 4012TIP3    H133451   2.939   4.539  13.555 -1.0652 -0.8104  0.8936
 4012TIP3    H233452   3.049   4.444  13.514 -0.3952  0.6672 -0.8477
 4013TIP3   OH233453   0.872   3.220  13.616  0.3740 -0.3301 -0.4097
 4013TIP3    H133454   0.966   3.238  13.619  0.4364 -0.7195  0.1375
 4013TIP3    H233455   0.861   3.140  13.668 -0.5074  0.7582  1.1722
 4014TIP3   OH233456   3.709   4.813  11.158  0.3462  0.1947 -0.1654
 4014TIP3    H133457   3.794   4.855  11.146  0.4707  0.7039  2.0705
 4014TIP3    H233458   3.653   4.882  11.193  0.2721 -1.1161  2.5743
 4015TIP3   OH233459   1.806   4.148   3.783 -0.3186  0.3073 -0.3946
 4015TIP3    H133460   1.780   4.083   3.717  0.9536 -0.7677  0.1219
 4015TIP3    H233461   1.815   4.097   3.864  2.0661  0.8171 -0.2654
 4016TIP3   OH233462   0.687   4.022  15.755 -0.2499  0.0909 -0.6806
 4016TIP3    H133463   0.770   3.985  15.783  0.3799  1.2160 -1.0037
 4016TIP3    H233464   0.626   4.002  15.826  0.1119 -1.3176 -0.7319
 4017TIP3   OH233465   3.303   4.886  15.647 -0.2902  0.1049 -0.3185
 4017TIP3    H133466   3.226   4.934  15.678  0.1821  1.4238 -1.0882
 4017TIP3    H233467   3.268   4.809  15.604 -1.0108 -1.3673  2.6298
 4018TIP3   OH233468   1.645   3.976   5.244 -0.4405 -0.1858  0.6188
 4018TIP3    H133469   1.719   4.037   5.248 -1.0332  0.7873 -1.6546
 4018TIP3    H233470   1.664   3.911   5.312  2.6702 -0.1561 -0.0645
 4019TIP3   OH233471   0.333   1.356  11.728  0.2388  0.0605  0.0114
 4019TIP3    H133472   0.314   1.287  11.792  1.2761  0.1451  0.4110
 4019TIP3    H233473   0.271   1.338  11.656  0.6238 -1.4105  0.0135
 4020TIP3   OH233474   2.517   5.486   1.274 -0.3152 -0.2022  0.5699
 4020TIP3    H133475   2.576   5.457   1.343 -1.2012  0.9227  1.8682
 4020TIP3    H233476   2.430   5.465   1.307 -0.7033 -1.2157 -1.0102
 4021TIP3   OH233477   0.007   0.330  17.159  0.3696  0.0345 -0.8998
 4021TIP3    H133478  -0.073   0.302  17.114 -0.5197  2.1150 -0.6951
 4021TIP3    H233479   0.021   0.262  17.226 -1.9371  0.2246 -0.1261
 4022TIP3   OH233480   3.616   4.731   4.309  0.2757 -0.3985 -0.0175
 4022TIP3    H133481   3.676   4.805   4.315  0.9834 -0.9371 -0.1906
 4022TIP3    H233482   3.597   4.709   4.401 -0.8596  0.6955  0.0338
 4023TIP3   OH233483   1.336   5.225  12.192  0.3863  0.1630  0.2147
 4023TIP3    H133484   1.326   5.317  12.217  1.0739  0.0815  0.8224
 4023TIP3    H233485   1.279   5.178  12.253  0.3391  0.1482  0.1596
 4024TIP3   OH233486   0.863   1.061  12.190  0.0982  0.5249  0.1576
 4024TIP3    H133487   0.868   1.042  12.284  0.9808  2.5067  0.5502
 4024TIP3    H233488   0.933   1.009  12.151 -0.7933 -0.9549  0.4311
 4025TIP3   OH233489   3.853   3.204  14.859 -0.3052  0.3368 -0.5873
 4025TIP3    H133490   3.767   3.178  14.892  0.2061  0.1305  0.6357
 4025TIP3    H233491   3.881   3.130  14.805 -1.1443  0.6642 -1.4879
 4026TIP3   OH233492   2.327   0.224  16.527 -0.3767  0.0114  0.1245
 4026TIP3    H133493   2.401   0.286  16.532  0.8950 -1.4540  0.1334
 4026TIP3    H233494   2.269   0.262  16.461 -0.0117  1.5837  0.6437
 4027TIP3   OH233495   1.798   6.711   0.983 -0.3717 -0.3689  0.4221
 4027TIP3    H133496   1.853   6.789   0.991  0.0516 -0.8154  2.2291
 4027TIP3    H233497   1.709   6.745   0.981 -0.1742  0.4166 -3.2156
 4028TIP3   OH233498   5.522   4.616   0.746 -0.1516  0.4081 -0.1693
 4028TIP3    H133499   5.545   4.538   0.697 -0.0281  1.7817 -2.4861
 4028TIP3    H233500   5.438   4.643   0.709 -0.4635  1.0926  0.9679
 4029TIP3   OH233501   1.515   0.040  12.443  0.0394  0.4040 -0.1392
 4029TIP3    H133502   1.586   0.046  12.507 -0.6344  2.0018  0.5054
 4029TIP3    H233503   1.555   0.065  12.360  1.0271 -2.1047 -0.5202
 4030TIP3   OH233504   6.638   6.601   3.392 -0.0428 -0.2488  0.1842
 4030TIP3    H133505   6.662   6.508   3.391 -0.5048 -0.3869  0.8924
 4030TIP3    H233506   6.547   6.602   3.360  0.7892  0.2579 -2.4132
 4031TIP3   OH233507   6.707   5.687  13.306 -0.3944 -0.3751  0.0279
 4031TIP3    H133508   6.791   5.691  13.353 -1.1439 -1.9494  1.6207
 4031TIP3    H233509   6.719   5.615  13.243  0.3346  1.2175 -1.7736
 4032TIP3   OH233510   6.380   5.446  15.105 -0.8679  0.1240 -0.5980
 4032TIP3    H133511   6.307   5.505  15.126 -0.7234  0.5935 -1.3642
 4032TIP3    H233512   6.360   5.365  15.152 -0.1577  1.3577  2.0214
 4033TIP3   OH233513   6.043   2.645  11.384 -0.1264 -0.0787 -0.1745
 4033TIP3    H133514   5.998   2.605  11.310  0.2384 -0.6705 -0.0814
 4033TIP3    H233515   5.977   2.701  11.426 -0.7194 -0.8000 -0.1361
 4034TIP3   OH233516   5.779   4.951  12.718 -0.0429 -0.2675 -0.2624
 4034TIP3    H133517   5.696   4.913  12.748 -0.6711  1.0320 -0.2697
 4034TIP3    H233518   5.840   4.935  12.790 -0.6638 -0.0724  0.3144
 4035TIP3   OH233519   1.027   6.237  12.968 -0.3719 -0.0803 -0.0283
 4035TIP3    H133520   1.106   6.249  12.915 -0.1461  0.3954  0.4203
 4035TIP3    H233521   1.001   6.146  12.951  0.2345 -0.2192 -0.2237
 4036TIP3   OH233522   2.939   1.671  15.181  0.1940  0.0893  0.1553
 4036TIP3    H133523   2.956   1.577  15.172 -0.3059  0.0705 -0.6663
 4036TIP3    H233524   3.024   1.708  15.205  0.3293 -0.6079  0.7848
 4037TIP3   OH233525   1.785   4.015   4.513  0.8784  0.4910  0.1615
 4037TIP3    H133526   1.697   4.034   4.482  0.7149 -2.1983 -1.3011
 4037TIP3    H233527   1.841   4.029   4.437  1.7516  1.8872  1.0003
 4038TIP3   OH233528   0.558   3.561   5.257  0.1520 -0.2818 -0.7794
 4038TIP3    H133529   0.609   3.527   5.183  0.1891 -1.6958 -0.1413
 4038TIP3    H233530   0.624   3.593   5.318  0.2565 -1.2438 -0.3677
 4039TIP3   OH233531   0.032   1.957   4.072 -0.0884  0.3511  0.1570
 4039TIP3    H133532   0.086   1.910   4.136 -0.9863 -0.5594  0.2645
 4039TIP3    H233533   0.094   1.987   4.006  0.6299 -0.1289  0.6008
 4040TIP3   OH233534   4.582   4.721   5.704  0.4898 -0.3350  0.2341
 4040TIP3    H133535   4.593   4.810   5.736 -0.0299 -1.2494  3.1799
 4040TIP3    H233536   4.629   4.666   5.767 -0.3742 -2.2860 -0.7235
 4041TIP3   OH233537   6.242   6.675  11.267 -0.0654  0.2298  0.2054
 4041TIP3    H133538   6.253   6.702  11.176 -1.0891  1.6299  0.4665
 4041TIP3    H233539   6.147   6.664  11.277  0.0805 -0.4582  0.9727
 4042TIP3   OH233540   2.304   6.128   0.847 -0.6324 -0.5039 -0.4468
 4042TIP3    H133541   2.211   6.148   0.851 -0.6408 -0.6511  0.2072
 4042TIP3    H233542   2.339   6.157   0.932 -0.1435 -0.7214 -0.5687
 4043TIP3   OH233543   5.832   2.975   0.909 -0.4413  0.0952 -0.4768
 4043TIP3    H133544   5.895   3.047   0.898 -1.5967  1.4491  1.1679
 4043TIP3    H233545   5.843   2.948   1.000 -2.8733  1.0960  0.2040
 4044TIP3   OH233546   2.313   5.337   4.867 -0.0532 -0.1804  0.2320
 4044TIP3    H133547   2.399   5.374   4.847 -0.3848  0.5407  0.1125
 4044TIP3    H233548   2.288   5.290   4.787  0.1012 -0.1481  0.1648
 4045TIP3   OH233549   2.036   0.235  11.018 -0.1910  0.2966  0.1368
 4045TIP3    H133550   2.033   0.143  11.042 -0.7238  0.1212 -0.5903
 4045TIP3    H233551   2.095   0.274  11.083  0.0214 -0.5424  0.4638
 4046TIP3   OH233552   2.105   5.508  15.904  0.2571  0.3560 -0.2373
 4046TIP3    H133553   2.088   5.457  15.983  2.3131 -1.0505 -0.6222
 4046TIP3    H233554   2.047   5.584  15.911 -0.7733 -0.5457  1.8014
 4047TIP3   OH233555   0.322   4.580  14.126  0.5987  0.1129 -0.1140
 4047TIP3    H133556   0.381   4.650  14.096  1.9390 -0.0014  1.9861
 4047TIP3    H233557   0.380   4.507  14.147 -0.3187 -0.1987  1.5258
 4048TIP3   OH233558   4.514   2.952  11.396  0.1924  0.1186  0.2457
 4048TIP3    H133559   4.431   2.999  11.392  1.4127  2.3281 -1.1434
 4048TIP3    H233560   4.581   3.020  11.393  2.0974 -1.5713  1.5794
 4049TIP3   OH233561   0.222   5.469  10.580 -0.3380 -0.2494 -0.0864
 4049TIP3    H133562   0.216   5.515  10.664 -1.3351  0.1595 -0.3643
 4049TIP3    H233563   0.210   5.537  10.514 -1.8838 -0.8668 -0.5029
 4050TIP3   OH233564   4.505   5.890   3.388  0.5002 -0.0493  0.3122
 4050TIP3    H133565   4.535   5.959   3.329  0.4956  0.1797  0.5795
 4050TIP3    H233566   4.433   5.848   3.341  0.6672 -0.0355  0.0428
 4051TIP3   OH233567   3.676   2.551  17.105  0.2785 -0.2822  0.2750
 4051TIP3    H133568   3.638   2.464  17.110 -1.2276  0.3392  0.1832
 4051TIP3    H233569   3.607   2.605  17.067  0.4466  1.3620  2.1712
 4052TIP3   OH233570   0.977   0.798   5.592 -0.7859 -0.0154  0.0913
 4052TIP3    H133571   0.926   0.792   5.673  1.3082  0.3543  1.5078
 4052TIP3    H233572   1.058   0.752   5.610  1.1664  2.8757 -0.5601
 4053TIP3   OH233573   2.365   1.955  15.291  0.2423 -0.0030  0.2852
 4053TIP3    H133574   2.440   1.940  15.348  0.2078  2.0730  0.9668
 4053TIP3    H233575   2.314   2.023  15.335 -2.8929 -2.3008  0.6084
 4054TIP3   OH233576   5.453   1.880  14.275 -0.1531  0.3558 -0.0729
 4054TIP3    H133577   5.396   1.811  14.309  0.8247 -0.3634  0.1309
 4054TIP3    H233578   5.449   1.949  14.341  0.5597 -0.4148  0.8070
 4055TIP3   OH233579   3.637   0.706  12.003  0.2231 -0.2266  0.2452
 4055TIP3    H133580   3.712   0.664  12.046 -1.7545 -1.0732  3.1256
 4055TIP3    H233581   3.570   0.637  11.998 -0.5327  0.5753 -2.0177
 4056TIP3   OH233582   6.420   2.484  12.998  0.0697 -0.4509 -0.2935
 4056TIP3    H133583   6.368   2.556  12.964 -2.0328 -1.3905  0.7336
 4056TIP3    H233584   6.446   2.512  13.085 -1.3504 -1.1334  0.3915
 4057TIP3   OH233585   1.892   4.330  11.743 -0.4127  0.0529 -0.5443
 4057TIP3    H133586   1.957   4.350  11.810 -0.6963  0.6321 -0.4339
 4057TIP3    H233587   1.883   4.235  11.745  1.0956 -0.1232 -1.1972
 4058TIP3   OH233588   4.419   6.566   2.060  0.1227 -0.0715  0.0893
 4058TIP3    H133589   4.450   6.555   2.150 -2.1605  0.3157  1.0026
 4058TIP3    H233590   4.382   6.654   2.058 -2.4567 -1.0635 -0.3163
 4059TIP3   OH233591   6.418   5.074   4.663  0.0353 -0.0730 -0.9738
 4059TIP3    H133592   6.349   5.113   4.610 -0.0604  0.0175 -0.7857
 4059TIP3    H233593   6.372   5.024   4.730  0.1669 -1.3884 -1.8419
 4060TIP3   OH233594   1.219   5.483  16.233 -0.1537  0.6392  0.2154
 4060TIP3    H133595   1.211   5.402  16.182  2.0810  0.3983  0.1264
 4060TIP3    H233596   1.217   5.454  16.324  1.9579  0.2319  0.1940
 4061TIP3   OH233597   3.371   3.397   6.029 -0.2810 -0.5775 -0.0050
 4061TIP3    H133598   3.464   3.374   6.031 -0.3809 -0.9302  0.8965
 4061TIP3    H233599   3.361   3.448   5.949  0.8034 -0.0213  0.1979
 4062TIP3   OH233600   3.892   5.451   4.041 -0.0959 -0.2608 -0.0822
 4062TIP3    H133601   3.823   5.435   3.976 -0.7439 -0.7342  0.7071
 4062TIP3    H233602   3.884   5.378   4.102  0.5534  0.1438  0.4952
 4063TIP3   OH233603   3.568   6.516   1.200  0.0930 -0.8665 -0.6062
 4063TIP3    H133604   3.493   6.535   1.256  1.4155  1.4527  0.5559
 4063TIP3    H233605   3.584   6.598   1.154  1.3276 -1.6217 -1.5783
 4064TIP3   OH233606   5.766   2.348   2.997  0.1118  0.3161 -0.1495
 4064TIP3    H133607   5.742   2.435   3.026  2.3365  1.0947 -0.4275
 4064TIP3    H233608   5.851   2.331   3.038  0.5012 -1.0270 -1.3975
 4065TIP3   OH233609   5.801   5.286  15.042  0.0749  0.1640  0.0578
 4065TIP3    H133610   5.723   5.232  15.028 -0.1228  0.2933  0.6230
 4065TIP3    H233611   5.838   5.253  15.124  1.7863 -1.2844 -1.2146
 4066TIP3   OH233612   4.481   0.349   3.533  0.5336  0.3665  0.3863
 4066TIP3    H133613   4.570   0.323   3.510 -0.0501 -1.7801  0.2679
 4066TIP3    H233614   4.451   0.279   3.592 -1.4817  0.3552 -0.5675
 4067TIP3   OH233615   2.390   1.314  13.909 -0.0694 -0.9949 -0.3450
 4067TIP3    H133616   2.328   1.363  13.856  0.0705 -1.2322 -0.7325
 4067TIP3    H233617   2.476   1.349  13.883  0.1999 -2.7817 -2.0929
 4068TIP3   OH233618   1.625   1.023  12.776  0.3744  0.2533 -0.0019
 4068TIP3    H133619   1.643   0.933  12.749 -0.7485  0.7770 -2.8025
 4068TIP3    H233620   1.529   1.027  12.782  0.4624  1.0106  1.1764
 4069TIP3   OH233621   0.116   1.407  15.162 -0.0464 -0.0604 -0.3129
 4069TIP3    H133622   0.123   1.316  15.191 -2.0809 -0.7140 -1.6256
 4069TIP3    H233623   0.067   1.450  15.233  1.7359  0.3069  0.7589
 4070TIP3   OH233624   4.932   6.340   0.371 -0.1098 -0.1446  0.3078
 4070TIP3    H133625   5.015   6.293   0.379  0.6761  0.6325 -2.2584
 4070TIP3    H233626   4.943   6.419   0.424 -0.3567 -1.3773  2.2996
 4071TIP3   OH233627   5.918   0.769  17.133  0.3162  0.3399  0.0435
 4071TIP3    H133628   5.923   0.772  17.038  1.0009  1.4386  0.0901
 4071TIP3    H233629   5.922   0.861  17.160  2.0920 -0.0092  1.1909
 4072TIP3   OH233630   1.810   2.569  12.753 -0.1041  0.3160  0.1271
 4072TIP3    H133631   1.740   2.532  12.700 -0.7404  1.2570  0.2957
 4072TIP3    H233632   1.870   2.608  12.690  0.2460 -0.4116 -0.0104
 4073TIP3   OH233633   0.512   2.736   4.978 -1.1961  0.3668  1.0146
 4073TIP3    H133634   0.423   2.763   4.998 -1.5101  2.4628 -2.2979
 4073TIP3    H233635   0.566   2.779   5.045 -2.5113  0.9833  1.7097
 4074TIP3   OH233636   3.664   4.535   5.744  0.0194 -0.7091  0.0653
 4074TIP3    H133637   3.619   4.458   5.708 -0.6893 -0.7008  0.9161
 4074TIP3    H233638   3.595   4.586   5.787 -0.2916  2.3297 -3.5287
 4075TIP3   OH233639   1.751   3.855   3.990  1.0391  0.5608  0.5207
 4075TIP3    H133640   1.700   3.824   3.915 -0.7231  3.1641  0.5152
 4075TIP3    H233641   1.699   3.830   4.067 -0.4853  3.2555  0.5138
 4076TIP3   OH233642   3.250   5.210   5.326  0.4692  0.2907  0.3878
 4076TIP3    H133643   3.274   5.213   5.234  0.9885 -1.7769  0.3932
 4076TIP3    H233644   3.328   5.238   5.373  0.9912 -0.8430  0.2321
 4077TIP3   OH233645   5.206   0.877   0.192 -0.1682 -0.2779  0.0229
 4077TIP3    H133646   5.212   0.936   0.118  1.5012 -1.1612 -0.6066
 4077TIP3    H233647   5.267   0.913   0.257 -1.6361  0.5106  1.0296
 4078TIP3   OH233648   3.819   4.188   2.607 -0.2318  1.0208  0.7357
 4078TIP3    H133649   3.833   4.252   2.538 -0.1741  1.9506  1.5880
 4078TIP3    H233650   3.734   4.211   2.644 -1.0008 -0.4394 -0.0189
 4079TIP3   OH233651   1.532   2.418  11.924  0.0140 -0.8023 -0.0415
 4079TIP3    H133652   1.479   2.346  11.891 -0.9674  0.6232 -1.7156
 4079TIP3    H233653   1.606   2.423  11.863  0.0803 -0.4035  0.0710
 4080TIP3   OH233654   0.299   4.654   4.418 -0.7332 -0.1667 -0.4088
 4080TIP3    H133655   0.293   4.577   4.474  1.0588 -0.7647 -0.9730
 4080TIP3    H233656   0.331   4.620   4.334 -0.2974  1.1377 -0.7901
 4081TIP3   OH233657   3.774   1.386   2.621 -0.4354  0.0958 -0.3692
 4081TIP3    H133658   3.743   1.476   2.625  1.8153  0.9078  0.2521
 4081TIP3    H233659   3.870   1.393   2.625 -0.1352 -2.2524 -1.7601
 4082TIP3   OH233660   5.909   5.484   6.221  0.2139 -0.5082 -0.3719
 4082TIP3    H133661   5.817   5.457   6.220  0.0670 -0.0330 -1.3009
 4082TIP3    H233662   5.910   5.563   6.275  0.0674 -0.4978 -0.3837
 4083TIP3   OH233663   6.190   6.603   2.461 -0.1417 -0.1969 -0.0113
 4083TIP3    H133664   6.268   6.615   2.515  0.6004 -1.9056 -0.6392
 4083TIP3    H233665   6.136   6.540   2.509  0.3013 -1.3627 -1.0026
 4084TIP3   OH233666   2.016   6.557  14.037 -0.4760  0.1636 -0.4069
 4084TIP3    H133667   1.944   6.583  13.980 -0.5546 -1.7862 -1.2414
 4084TIP3    H233668   2.087   6.532  13.978  0.0955 -0.1047  0.3689
 4085TIP3   OH233669   4.088   5.355  12.681 -0.6446  0.3366 -0.1850
 4085TIP3    H133670   4.108   5.408  12.758  0.8180 -0.4101 -0.0122
 4085TIP3    H233671   4.146   5.388  12.613  1.1083 -1.6646  0.2268
 4086TIP3   OH233672   5.010   5.618   1.239 -0.2487 -0.5554 -0.6255
 4086TIP3    H133673   5.017   5.559   1.164  0.4963  0.6660 -1.5739
 4086TIP3    H233674   5.033   5.704   1.203 -1.1531  0.2873  0.7298
 4087TIP3   OH233675   0.201   3.860  13.931  0.2361 -0.0049  0.0590
 4087TIP3    H133676   0.206   3.797  13.859 -1.3696  0.4906 -0.5258
 4087TIP3    H233677   0.282   3.909  13.925  0.6883 -0.7999 -0.6241
 4088TIP3   OH233678   5.461   3.740  16.241  0.3992 -0.0568  0.5156
 4088TIP3    H133679   5.551   3.720  16.266  0.7856 -0.3849 -1.0555
 4088TIP3    H233680   5.449   3.697  16.157 -0.0340  2.9522 -1.1061
 4089TIP3   OH233681   0.765   2.626  12.693  0.7099 -0.5084  0.4554
 4089TIP3    H133682   0.670   2.615  12.689  0.8507 -1.3726 -0.7562
 4089TIP3    H233683   0.780   2.714  12.658  0.3599 -0.2733  0.8710
 4090TIP3   OH233684   0.041   0.056  10.927 -0.1661  0.0387  0.6581
 4090TIP3    H133685   0.004   0.027  10.844  1.5452  2.0047 -0.8920
 4090TIP3    H233686   0.028  -0.018  10.986  1.0565 -2.6217 -2.1275
 4091TIP3   OH233687   2.978   0.796   1.177 -0.0726  0.5381  0.4192
 4091TIP3    H133688   2.989   0.801   1.082 -2.5942  0.9817  0.0693
 4091TIP3    H233689   3.012   0.710   1.200  2.7497  1.3186 -0.4633
 4092TIP3   OH233690   1.801   3.770  11.359  0.0576  0.0979 -0.2862
 4092TIP3    H133691   1.893   3.749  11.373 -0.0617 -0.8987 -0.9052
 4092TIP3    H233692   1.791   3.773  11.264 -0.4057  0.8820 -0.2181
 4093TIP3   OH233693   1.698   0.349  13.109 -0.1499  0.2300  0.3431
 4093TIP3    H133694   1.612   0.346  13.066  0.2493  2.9673 -0.8476
 4093TIP3    H233695   1.746   0.417  13.062  2.6269 -1.0253  1.1430
 4094TIP3   OH233696   3.866   1.583   0.401  0.0970  0.0246  0.1701
 4094TIP3    H133697   3.845   1.519   0.469  0.7153  0.3505  0.6929
 4094TIP3    H233698   3.782   1.611   0.366 -0.1652 -1.5760 -0.5622
 4095TIP3   OH233699   0.429   2.422  16.939  0.2146 -0.1617  0.4047
 4095TIP3    H133700   0.389   2.506  16.961  0.6614  0.3679 -0.7252
 4095TIP3    H233701   0.384   2.359  16.995 -2.1165  0.4267 -0.6837
 4096TIP3   OH233702   4.933   5.532   5.711  0.2686  0.1249  0.0267
 4096TIP3    H133703   5.016   5.485   5.702  0.0310  0.0050 -2.0667
 4096TIP3    H233704   4.935   5.598   5.641 -1.6778 -0.3732 -0.5545
 4097TIP3   OH233705   5.363   3.918  15.272 -1.0048 -0.4707 -0.1183
 4097TIP3    H133706   5.307   3.855  15.226 -2.7659  1.4340 -0.7289
 4097TIP3    H233707   5.330   4.003  15.246  0.7702  0.7438  1.3242
 4098TIP3   OH233708   4.277   2.429   1.788 -0.1451 -0.2088  0.1178
 4098TIP3    H133709   4.274   2.428   1.692  1.5774 -3.5798 -0.0533
 4098TIP3    H233710   4.189   2.404   1.815 -0.3917 -0.1450 -0.5972
 4099TIP3   OH233711   3.520   1.903   4.597  0.2445 -0.2263  0.1033
 4099TIP3    H133712   3.567   1.901   4.680 -0.9264  0.2903  0.8000
 4099TIP3    H233713   3.589   1.912   4.531  1.0992  1.4654  1.1469
 4100TIP3   OH233714   1.536   5.209   1.686  0.2740  0.1050 -0.0676
 4100TIP3    H133715   1.465   5.175   1.632 -0.2907 -1.6296  1.6274
 4100TIP3    H233716   1.500   5.289   1.725  0.1619  0.5539 -1.0658
 4101TIP3   OH233717   6.544   5.655   4.812  0.7833 -0.1495 -0.1000
 4101TIP3    H133718   6.474   5.664   4.747  0.3020 -0.2873  0.3997
 4101TIP3    H233719   6.624   5.650   4.759  0.2302 -2.5830 -0.8194
 4102TIP3   OH233720   1.704   1.334   2.701  0.4765  0.2685 -0.8084
 4102TIP3    H133721   1.701   1.429   2.709 -0.7661  0.1139  1.2096
 4102TIP3    H233722   1.614   1.308   2.683  0.4078 -0.6260  0.6631
 4103TIP3   OH233723   4.363   3.319   6.195  0.6634 -0.3377  0.0478
 4103TIP3    H133724   4.318   3.269   6.264  1.7343  1.6109  2.2979
 4103TIP3    H233725   4.322   3.405   6.198  2.9389  0.7923  0.5907
 4104TIP3   OH233726   2.216   5.969  15.373  0.0754  0.0498  0.1209
 4104TIP3    H133727   2.182   5.881  15.360 -0.6572  0.5461 -1.5035
 4104TIP3    H233728   2.273   5.962  15.450 -1.0390 -1.5303  0.8438
 4105TIP3   OH233729   4.728   3.955  13.226  0.1307 -0.2868 -0.1840
 4105TIP3    H133730   4.771   4.018  13.168  0.1409 -0.2151 -0.0983
 4105TIP3    H233731   4.640   3.990  13.238 -1.0219 -1.9610 -2.8188
 4106TIP3   OH233732   6.214   0.263  11.008  0.3985  0.5798  0.6674
 4106TIP3    H133733   6.251   0.223  10.930 -0.4146  2.3564 -0.6931
 4106TIP3    H233734   6.157   0.195  11.045  1.5131 -0.6083  0.2754
 4107TIP3   OH233735   5.084   5.189   0.716 -0.1316  0.3384  0.5679
 4107TIP3    H133736   5.105   5.280   0.737  1.6654  0.2407 -0.5470
 4107TIP3    H233737   5.134   5.138   0.781  1.1578  0.1435 -0.5244
 4108TIP3   OH233738   4.686   3.589   5.193 -0.2918 -0.4535  0.1244
 4108TIP3    H133739   4.734   3.667   5.168  1.0781 -0.8069  1.4798
 4108TIP3    H233740   4.694   3.585   5.289 -0.9661 -1.8419  0.1565
 4109TIP3   OH233741   4.369   2.694  16.469 -0.1176  0.3660  0.2318
 4109TIP3    H133742   4.312   2.768  16.489  0.1060  0.6936 -0.3264
 4109TIP3    H233743   4.412   2.674  16.552 -2.6840 -1.3597  1.2943
 4110TIP3   OH233744   3.546   3.225  15.235 -0.1278 -0.2523  0.0903
 4110TIP3    H133745   3.553   3.230  15.139 -0.6735  1.3407  0.0945
 4110TIP3    H233746   3.462   3.268  15.255  0.5484  0.5351  1.3518
 4111TIP3   OH233747   6.344   0.645   4.446  0.1045  0.6560 -0.1190
 4111TIP3    H133748   6.412   0.584   4.418 -1.8884 -1.4863 -0.5989
 4111TIP3    H233749   6.377   0.731   4.421  2.7109 -0.2528 -0.1039
 4112TIP3   OH233750   1.318   4.641  12.644 -0.1376  0.1726  0.2657
 4112TIP3    H133751   1.262   4.632  12.567  1.7659 -1.8543 -0.9785
 4112TIP3    H233752   1.327   4.735  12.657 -2.1506  0.5362 -0.7108
 4113TIP3   OH233753   0.858   5.188   2.390  0.3486  0.1531  0.1169
 4113TIP3    H133754   0.835   5.231   2.472  1.6200  0.3177  0.3990
 4113TIP3    H233755   0.799   5.226   2.325  0.1426  0.8828  0.7260
 4114TIP3   OH233756   5.695   2.228   3.398  0.2097 -0.4366  0.0736
 4114TIP3    H133757   5.689   2.308   3.346 -0.3266 -0.1666  0.5290
 4114TIP3    H233758   5.750   2.252   3.473  1.7256 -1.0767 -0.8016
 4115TIP3   OH233759   0.795   6.067   3.271 -0.4440 -0.6073  0.2522
 4115TIP3    H133760   0.742   5.990   3.248 -1.8722  0.2120  0.6884
 4115TIP3    H233761   0.742   6.141   3.243  1.5108  0.2572 -1.4621
 4116TIP3   OH233762   4.111   5.277  15.251 -0.0565  0.2767  0.1690
 4116TIP3    H133763   4.088   5.343  15.317  0.5176  0.1106  0.5502
 4116TIP3    H233764   4.139   5.201  15.302  1.3239  0.4694 -0.2343
 4117TIP3   OH233765   4.861   6.744   4.269  0.0687  0.2414 -0.3274
 4117TIP3    H133766   4.812   6.663   4.255 -0.1321  0.4160 -0.6516
 4117TIP3    H233767   4.795   6.808   4.296  0.0485  0.5782 -1.1451
 4118TIP3   OH233768   0.793   1.585   1.098  0.1760 -0.2887 -0.2124
 4118TIP3    H133769   0.734   1.635   1.155  1.2372  1.4518 -0.5601
 4118TIP3    H233770   0.777   1.493   1.122 -1.8798  0.1660  0.4356
 4119TIP3   OH233771   6.760   5.501  11.608 -0.4024  0.5137  0.0681
 4119TIP3    H133772   6.713   5.419  11.593 -0.8368  1.0242 -1.5584
 4119TIP3    H233773   6.691   5.567  11.615 -0.0259  0.8784  0.3548
 4120TIP3   OH233774   5.620   6.723   5.153  0.4625  0.5968 -0.0548
 4120TIP3    H133775   5.663   6.800   5.114 -0.3834  0.8304 -0.5469
 4120TIP3    H233776   5.618   6.659   5.082 -0.7111  0.8737 -0.2868
 4121TIP3   OH233777   6.341   6.619   4.546 -0.1666  0.4333  0.2461
 4121TIP3    H133778   6.266   6.649   4.598  1.4554  0.6334  2.6271
 4121TIP3    H233779   6.303   6.593   4.462 -2.6182  2.4616  0.5954
 4122TIP3   OH233780   2.374   3.974  12.747 -0.0968  0.4247 -0.6913
 4122TIP3    H133781   2.432   4.040  12.785 -0.9188  0.8766 -0.1845
 4122TIP3    H233782   2.321   3.942  12.820 -0.7847  0.3442 -1.2053
 4123TIP3   OH233783   2.453   5.886  10.722 -0.0269 -0.5466 -0.0609
 4123TIP3    H133784   2.540   5.852  10.744 -0.4093 -0.4901  1.7094
 4123TIP3    H233785   2.406   5.810  10.686  0.1154 -1.1164  0.9180
 4124TIP3   OH233786   3.143   0.653  15.007 -0.4747  0.2267  0.0028
 4124TIP3    H133787   3.179   0.732  14.966  2.0915 -0.6535  0.3446
 4124TIP3    H233788   3.157   0.584  14.943 -0.7647 -0.3243  0.5237
 4125TIP3   OH233789   2.496   0.116  13.753 -0.0461  0.0892 -0.1663
 4125TIP3    H133790   2.434   0.159  13.693 -0.9199 -0.3667  0.3896
 4125TIP3    H233791   2.474   0.023  13.747 -0.2407  0.0515  0.9557
 4126TIP3   OH233792   3.901   0.140  12.568 -0.0589 -0.4994  0.1621
 4126TIP3    H133793   3.875   0.067  12.512 -1.0601  0.7411 -1.0622
 4126TIP3    H233794   3.825   0.155  12.625 -0.2855  0.2186 -0.3075
 4127TIP3   OH233795   6.256   4.210  11.816 -0.6958  0.1602 -0.1538
 4127TIP3    H133796   6.264   4.292  11.767  2.0372 -1.4988 -2.8460
 4127TIP3    H233797   6.331   4.212  11.876 -1.7791  0.4208  1.2532
 4128TIP3   OH233798   2.916   6.729   1.573 -0.6199  0.3741  0.4601
 4128TIP3    H133799   2.863   6.795   1.529  1.1345  0.5665 -1.5499
 4128TIP3    H233800   2.859   6.652   1.577 -1.5838  1.0254 -0.1699
 4129TIP3   OH233801   0.126   6.723  14.542 -0.3492  0.3192 -0.4354
 4129TIP3    H133802   0.202   6.679  14.505 -0.3177 -0.3269  0.3836
 4129TIP3    H233803   0.159   6.809  14.568  0.2433 -0.1550  0.4180
 4130TIP3   OH233804   3.693   0.844  15.700 -0.7562 -0.0305 -0.5692
 4130TIP3    H133805   3.731   0.900  15.632 -1.7862  0.5802 -0.6522
 4130TIP3    H233806   3.685   0.758  15.657 -0.7734  0.1810 -0.9987
 4131TIP3   OH233807   4.921   6.465   5.136 -0.1037  0.2254 -0.1051
 4131TIP3    H133808   4.972   6.386   5.153 -0.7175 -0.6982 -2.1645
 4131TIP3    H233809   4.834   6.445   5.169  0.4693  1.3501  2.3220
 4132TIP3   OH233810   1.819   6.606   2.847  0.1467  0.6107  0.4861
 4132TIP3    H133811   1.834   6.523   2.893  0.0034  1.0756  1.4127
 4132TIP3    H233812   1.725   6.605   2.827  0.1382  0.5599  0.5279
 4133TIP3   OH233813   1.974   2.251  16.818 -0.7155 -0.0881  0.1926
 4133TIP3    H133814   1.970   2.211  16.906 -1.6071  1.4520  0.8858
 4133TIP3    H233815   2.013   2.337  16.833 -1.8385  0.6139 -0.7331
 4134TIP3   OH233816   0.859   5.132  14.980  0.3939  0.3272  0.3361
 4134TIP3    H133817   0.840   5.045  15.016 -0.8722  0.9079  1.1706
 4134TIP3    H233818   0.806   5.137  14.900 -0.8560  0.8979  1.1579
 4135TIP3   OH233819   3.824   3.424   5.715  0.4647  0.1173  0.3384
 4135TIP3    H133820   3.894   3.387   5.768  0.8084  0.0829 -0.1300
 4135TIP3    H233821   3.860   3.425   5.626 -0.0850  0.2076  0.1141
 4136TIP3   OH233822   2.312   4.564   6.100  0.6076 -0.1252 -0.4396
 4136TIP3    H133823   2.299   4.470   6.091  2.3706 -0.3953 -0.3955
 4136TIP3    H233824   2.297   4.582   6.193 -1.0629 -0.1025 -0.6808
 4137TIP3   OH233825   0.836   0.855   1.251  0.1941  0.1299 -0.1959
 4137TIP3    H133826   0.741   0.853   1.237 -0.0011 -0.0031  1.0039
 4137TIP3    H233827   0.866   0.770   1.220 -0.3228 -0.4635  0.8740
 4138TIP3   OH233828   2.907   0.623  11.881 -0.3199  0.8165  0.5202
 4138TIP3    H133829   2.898   0.619  11.977 -0.9225  2.2558  0.5495
 4138TIP3    H233830   2.996   0.655  11.867 -0.1059  0.2650  0.5744
 4139TIP3   OH233831   5.664   1.903  12.386  0.0828  0.2905  0.1230
 4139TIP3    H133832   5.587   1.946  12.348 -0.1274  0.9112  1.2259
 4139TIP3    H233833   5.716   1.975  12.423  1.5576 -0.0286 -1.1860
 4140TIP3   OH233834   1.364   3.221  16.644 -0.3480  0.1606  0.6190
 4140TIP3    H133835   1.350   3.314  16.664 -0.2188  0.7554 -1.7710
 4140TIP3    H233836   1.276   3.183  16.642 -0.5713  0.7085 -0.4158
 4141TIP3   OH233837   0.896   5.267  16.076  0.1934  0.1536  0.4631
 4141TIP3    H133838   0.887   5.334  16.008  0.3225  0.1755  0.4687
 4141TIP3    H233839   0.984   5.233  16.065  0.0917 -0.0906  0.3934
 4142TIP3   OH233840   6.363   6.180  12.303  0.1669  0.1496 -0.4874
 4142TIP3    H133841   6.452   6.186  12.337  0.3605  0.7991 -1.0879
 4142TIP3    H233842   6.343   6.087  12.304  0.0933  0.1554  1.5559
 4143TIP3   OH233843   4.724   2.260  12.880  0.1082  0.5553 -0.0255
 4143TIP3    H133844   4.757   2.185  12.830  0.2051  0.3994  0.2718
 4143TIP3    H233845   4.646   2.227  12.924 -0.3635  0.8766 -0.5943
 4144TIP3   OH233846   3.625   5.102   4.279  0.9239  0.1048 -0.3893
 4144TIP3    H133847   3.642   5.195   4.269 -0.6703  0.4699 -0.0224
 4144TIP3    H233848   3.711   5.063   4.296  1.5033  1.6200  0.2877
 4145TIP3   OH233849   3.343   0.461   2.260 -0.0163  0.1178  0.0181
 4145TIP3    H133850   3.378   0.548   2.241 -1.2937  0.3572 -1.3703
 4145TIP3    H233851   3.417   0.402   2.246  0.8448  0.9450  0.9042
 4146TIP3   OH233852   5.454   0.708   1.372 -0.3407 -0.1965  0.0079
 4146TIP3    H133853   5.549   0.698   1.379 -0.2917 -3.2274 -2.7105
 4146TIP3    H233854   5.420   0.667   1.452  0.6376 -1.9532 -0.4207
 4147TIP3   OH233855   0.679   3.310   1.650  0.4584  0.2377 -0.2244
 4147TIP3    H133856   0.710   3.280   1.565  2.2438  1.7536 -0.1585
 4147TIP3    H233857   0.741   3.377   1.677 -2.0379  2.3876  0.6487
 4148TIP3   OH233858   5.295   4.916  13.451 -0.7240  0.2792 -0.5732
 4148TIP3    H133859   5.368   4.950  13.399 -1.4870  1.5594 -0.8745
 4148TIP3    H233860   5.296   4.822  13.437 -0.1842  0.4689 -1.9674
 4149TIP3   OH233861   1.132   2.455   2.320 -0.6518  1.1049  0.3908
 4149TIP3    H133862   1.224   2.478   2.308 -1.1493  3.3760  0.4935
 4149TIP3    H233863   1.099   2.520   2.382 -2.1008 -0.2961  1.1716
 4150TIP3   OH233864   4.462   2.690   1.755 -0.3903 -0.4535  0.6075
 4150TIP3    H133865   4.424   2.625   1.813  0.4678 -0.6713  0.9455
 4150TIP3    H233866   4.401   2.697   1.683 -0.2132 -2.0781  0.2644
 4151TIP3   OH233867   2.982   2.036   2.451 -0.1478  0.0950 -0.2210
 4151TIP3    H133868   2.933   2.020   2.370  0.1793 -0.5266 -0.3015
 4151TIP3    H233869   3.010   1.949   2.480  1.0530  0.4613 -0.2598
 4152TIP3   OH233870   5.334   6.416   6.141 -0.3045  0.5235 -0.1841
 4152TIP3    H133871   5.319   6.337   6.192  1.3729  0.6047  0.4699
 4152TIP3    H233872   5.318   6.488   6.202 -2.7353  0.8011 -1.0058
 4153TIP3   OH233873   4.233   3.285   5.636 -0.6716  0.3659  0.4944
 4153TIP3    H133874   4.197   3.323   5.556 -3.2917 -1.2529  0.8022
 4153TIP3    H233875   4.274   3.204   5.607 -2.9958 -1.0333  0.8671
 4154TIP3   OH233876   2.556   5.332   2.186  0.0466 -0.0473  0.3359
 4154TIP3    H133877   2.508   5.410   2.156 -0.9106  0.2813  2.4794
 4154TIP3    H233878   2.542   5.267   2.118 -1.2836  0.8867 -0.3254
 4155TIP3   OH233879   3.514   2.482   5.645  0.3543  0.1324  0.4783
 4155TIP3    H133880   3.458   2.495   5.568  2.4210  1.2300 -0.9507
 4155TIP3    H233881   3.498   2.392   5.672 -0.7884 -0.1305 -0.9568
 4156TIP3   OH233882   2.214   2.735  11.224  0.7659 -0.1261  1.0004
 4156TIP3    H133883   2.190   2.675  11.294 -1.0033 -2.3588 -1.3406
 4156TIP3    H233884   2.303   2.709  11.199  0.0698 -1.7850  0.1036
 4157TIP3   OH233885   4.513   0.158  13.018  0.2512  0.1787 -0.0987
 4157TIP3    H133886   4.441   0.220  13.025  0.1321  0.5421 -3.3282
 4157TIP3    H233887   4.564   0.187  12.942  1.9812 -1.9106  0.1393
 4158TIP3   OH233888   5.985   5.528   2.553 -0.6315 -0.3524  0.4494
 4158TIP3    H133889   5.990   5.613   2.510  1.0765 -1.1531 -1.1316
 4158TIP3    H233890   5.898   5.525   2.592 -0.9873  1.8162 -0.0459
 4159TIP3   OH233891   6.179   1.790   4.123  0.0367  0.3513 -0.0031
 4159TIP3    H133892   6.233   1.735   4.180 -0.8649  0.1627  0.6885
 4159TIP3    H233893   6.090   1.763   4.141 -0.2927  0.5081 -1.2950
 4160TIP3   OH233894   2.430   4.799   3.280 -0.0774  0.0452 -0.2044
 4160TIP3    H133895   2.388   4.855   3.345  2.2294  0.0131  1.4227
 4160TIP3    H233896   2.365   4.731   3.261 -0.3592 -0.7887  3.1732
 4161TIP3   OH233897   1.307   2.365  14.414  0.2188  0.0422  0.8309
 4161TIP3    H133898   1.329   2.406  14.497 -0.6778  0.1870  1.0061
 4161TIP3    H233899   1.290   2.438  14.355 -0.9057 -0.0684  1.0121
 4162TIP3   OH233900   2.650   5.655   5.911  0.1761  0.0460 -0.3078
 4162TIP3    H133901   2.704   5.666   5.989 -0.2541 -1.4871  0.2413
 4162TIP3    H233902   2.561   5.670   5.942  0.1717  1.7033 -1.0251
 4163TIP3   OH233903   2.145   4.678  16.856  0.2001 -0.1854 -0.0415
 4163TIP3    H133904   2.078   4.743  16.881  1.4092  1.0251  0.2114
 4163TIP3    H233905   2.123   4.654  16.766  0.3412  1.4640 -0.5629
 4164TIP3   OH233906   2.170   2.077   2.012 -0.5543 -0.3740 -0.1745
 4164TIP3    H133907   2.150   2.170   2.008  0.7754 -0.0986 -1.1275
 4164TIP3    H233908   2.106   2.036   1.954 -2.2028 -0.2912  1.5061
 4165TIP3   OH233909   0.521   0.265  14.848 -0.4557 -0.2434  0.5239
 4165TIP3    H133910   0.464   0.341  14.834 -1.6965 -1.0578  1.0075
 4165TIP3    H233911   0.583   0.293  14.915  0.4765  1.0355 -0.8126
 4166TIP3   OH233912   2.452   2.213  11.531 -0.5998  0.3235  0.8056
 4166TIP3    H133913   2.511   2.174  11.466 -1.1812 -0.5985  0.8132
 4166TIP3    H233914   2.428   2.298  11.493  0.3679  0.5167  0.5997
 4167TIP3   OH233915   1.076   1.271   0.436  0.0111  0.1961  0.8879
 4167TIP3    H133916   0.988   1.298   0.463  0.1243  1.2749  0.2023
 4167TIP3    H233917   1.121   1.352   0.416  0.7615 -0.4247 -0.0134
 4168TIP3   OH233918   5.107   2.578  14.003 -0.2660  0.0994 -0.0528
 4168TIP3    H133919   5.157   2.542  13.931 -0.2902  1.0757 -0.5642
 4168TIP3    H233920   5.058   2.651  13.965 -3.2476 -1.6527  0.0383
 4169TIP3   OH233921   1.172   2.463  16.412 -0.1065 -0.5850 -0.2950
 4169TIP3    H133922   1.228   2.516  16.354 -0.3723  1.2036  0.9900
 4169TIP3    H233923   1.083   2.486  16.385 -0.2466  0.8730  1.2704
 4170TIP3   OH233924   0.144   6.442   4.810  0.7899  0.2979  0.3377
 4170TIP3    H133925   0.146   6.398   4.895  0.8665 -3.0381 -1.2284
 4170TIP3    H233926   0.213   6.399   4.759 -0.8829  0.3873 -2.1743
 4171TIP3   OH233927   4.071   1.311   5.795 -0.5477 -0.4731 -0.3464
 4171TIP3    H133928   4.110   1.386   5.751 -1.3670  0.2119  0.0556
 4171TIP3    H233929   4.013   1.273   5.729 -1.4745  0.3196 -0.0244
 4172TIP3   OH233930   2.130   3.862  16.012  0.1811 -0.1302  0.1027
 4172TIP3    H133931   2.174   3.801  15.954  1.1168  0.1827  0.4601
 4172TIP3    H233932   2.147   3.828  16.100  0.2522  0.3293  0.2734
 4173TIP3   OH233933   5.369   4.479  12.528  0.2810  0.1820  0.4611
 4173TIP3    H133934   5.345   4.478  12.621  2.6481  0.2235  1.1609
 4173TIP3    H233935   5.450   4.428  12.524  2.3151  3.1658 -0.8696
 4174TIP3   OH233936   3.207   3.271   0.127 -0.2987 -0.1352 -0.1833
 4174TIP3    H133937   3.165   3.195   0.086  0.2005  0.1309 -1.2251
 4174TIP3    H233938   3.143   3.342   0.118 -1.1678 -0.6341  1.6572
 4175TIP3   OH233939   2.933   0.899   5.522  0.5383 -0.2011  0.3540
 4175TIP3    H133940   2.910   0.982   5.481  0.3177  0.1367  1.1335
 4175TIP3    H233941   2.849   0.857   5.539  0.6127 -0.2190  0.6823
 4176TIP3   OH233942   1.889   5.934  12.252  0.5265  0.2996  0.8468
 4176TIP3    H133943   1.940   5.922  12.172 -0.0300  1.7244  0.2515
 4176TIP3    H233944   1.953   5.966  12.316  0.6566  0.6995  0.5177
 4177TIP3   OH233945   5.248   5.011   0.859  0.0014 -0.5574  0.5101
 4177TIP3    H133946   5.176   4.946   0.858 -0.4201 -0.2276 -3.1313
 4177TIP3    H233947   5.327   4.959   0.846  0.0571 -0.6333  1.1419
 4178TIP3   OH233948   1.331   5.179  13.693  0.7541  0.9049 -0.6033
 4178TIP3    H133949   1.300   5.194  13.782  0.6890  3.4592 -1.0002
 4178TIP3    H233950   1.280   5.104  13.662  0.5598  0.1667  1.3738
 4179TIP3   OH233951   1.498   6.330   0.896 -0.2580 -0.4144  0.1714
 4179TIP3    H133952   1.462   6.283   0.821 -1.6311 -0.2112  0.6791
 4179TIP3    H233953   1.584   6.360   0.866 -0.1539 -1.6025 -0.7961
 4180TIP3   OH233954   3.257   3.384  16.068 -0.3109  0.1260 -0.2758
 4180TIP3    H133955   3.281   3.426  16.151 -0.6043 -1.6050  0.7206
 4180TIP3    H233956   3.216   3.454  16.017 -0.8064  1.0635  1.3349
 4181TIP3   OH233957   1.633   0.182   4.087  0.7107 -0.1926  0.5236
 4181TIP3    H133958   1.726   0.176   4.066  0.8062 -0.3768  1.0027
 4181TIP3    H233959   1.589   0.142   4.012  1.0678 -1.1531  0.8124
 4182TIP3   OH233960   2.201   5.227  12.921 -0.1024 -0.0347 -0.4241
 4182TIP3    H133961   2.122   5.195  12.964 -0.3350  1.9800  0.8062
 4182TIP3    H233962   2.273   5.185  12.967 -0.4127  0.4228  0.4981
 4183TIP3   OH233963   4.897   6.604  16.456  0.2386 -0.5352 -0.7007
 4183TIP3    H133964   4.832   6.541  16.488  1.2440 -1.3156 -0.1460
 4183TIP3    H233965   4.876   6.615  16.363 -2.4836  1.4466 -0.0036
 4184TIP3   OH233966   5.502   6.149  16.474 -0.2092 -0.2153 -0.0400
 4184TIP3    H133967   5.581   6.138  16.527 -0.1290 -0.7378 -0.2605
 4184TIP3    H233968   5.451   6.215  16.520  0.1282 -0.2410  0.3760
 4185TIP3   OH233969   3.428   5.346   3.875  0.0093 -0.0584 -0.7252
 4185TIP3    H133970   3.391   5.417   3.928 -0.2092 -0.3103 -0.5322
 4185TIP3    H233971   3.353   5.308   3.830 -0.1320 -1.1386  0.3411
 4186TIP3   OH233972   4.218   1.212   0.199 -0.4080  0.4114 -0.2406
 4186TIP3    H133973   4.214   1.117   0.188 -1.5510  0.6554 -2.5945
 4186TIP3    H233974   4.131   1.237   0.229 -0.4956  0.8030 -0.7952
 4187TIP3   OH233975   1.448   1.935  10.643 -0.7086 -0.4381  0.2610
 4187TIP3    H133976   1.415   1.957  10.556  2.0727 -0.9570 -1.0227
 4187TIP3    H233977   1.428   1.842  10.654  0.5111 -0.8278 -0.6377
 4188TIP3   OH233978   5.115   4.440   3.409 -0.7379 -0.6897  0.8536
 4188TIP3    H133979   5.073   4.377   3.351 -0.7060 -1.1910  1.3651
 4188TIP3    H233980   5.154   4.387   3.478  0.4787 -0.2112  0.5547
 4189TIP3   OH233981   5.062   5.432  13.042 -0.7774 -0.2282  0.6500
 4189TIP3    H133982   5.109   5.506  13.005 -1.9791 -0.1720 -0.8679
 4189TIP3    H233983   5.032   5.382  12.966 -0.3814 -2.0464  1.6200
 4190TIP3   OH233984   3.836   4.903  14.923 -0.4511  0.1212  0.4226
 4190TIP3    H133985   3.790   4.819  14.921  0.1437 -0.2140 -0.8864
 4190TIP3    H233986   3.919   4.884  14.966 -0.5557  0.1663  0.6415
 4191TIP3   OH233987   0.160   2.326  12.366  0.4240 -0.4919  0.1968
 4191TIP3    H133988   0.132   2.261  12.302 -1.9952  0.3538  0.3124
 4191TIP3    H233989   0.192   2.275  12.440  1.6752 -1.4800 -0.9689
 4192TIP3   OH233990   3.558   1.108   2.955 -0.2589  0.0653 -0.2138
 4192TIP3    H133991   3.636   1.161   2.972  1.6907 -2.6314 -0.2513
 4192TIP3    H233992   3.590   1.019   2.945 -3.5822 -1.6168  2.1403
 4193TIP3   OH233993   1.368   2.179  11.890 -0.0919 -0.3484 -0.5351
 4193TIP3    H133994   1.305   2.237  11.847  0.7087  0.6776 -0.3410
 4193TIP3    H233995   1.317   2.099  11.909 -1.4669  0.6109  0.0069
 4194TIP3   OH233996   5.498   6.328  14.188 -0.3521  0.5542  0.3239
 4194TIP3    H133997   5.553   6.286  14.122 -0.6565 -0.8009  0.8985
 4194TIP3    H233998   5.554   6.394  14.228  0.5058 -0.0384  0.1357
 4195TIP3   OH233999   2.985   2.696  16.178  0.6157  0.3730  0.0707
 4195TIP3    H134000   3.077   2.722  16.175  0.2776  1.6031 -0.2327
 4195TIP3    H234001   2.959   2.689  16.086 -0.0933  1.9780  0.1161
 4196TIP3   OH234002   6.239   0.998   0.323 -0.1275  0.5517 -0.2324
 4196TIP3    H134003   6.303   0.970   0.258  0.9207  0.3080  0.8747
 4196TIP3    H234004   6.160   1.017   0.273  0.2444 -0.9329 -1.4260
 4197TIP3   OH234005   2.870   6.672  16.689  0.0778 -0.0639 -0.4445
 4197TIP3    H134006   2.861   6.608  16.759 -0.4947  0.6435  0.1442
 4197TIP3    H234007   2.784   6.713  16.681  0.6025  1.1069 -0.3292
 4198TIP3   OH234008   5.244   5.277  16.935 -0.0126  0.2830 -0.0883
 4198TIP3    H134009   5.171   5.324  16.895 -0.9621 -1.7699 -0.9091
 4198TIP3    H234010   5.322   5.318  16.899 -0.7622  1.6351 -0.2367
 4199TIP3   OH234011   5.536   4.744   5.037  0.5635 -0.3338  0.1335
 4199TIP3    H134012   5.578   4.723   5.120 -0.2095  0.4457  0.7442
 4199TIP3    H234013   5.508   4.659   5.002  1.4583 -0.7252  0.3467
 4200TIP3   OH234014   3.388   6.249  13.929  0.3965  0.1301 -0.0276
 4200TIP3    H134015   3.472   6.238  13.973  0.0766 -1.7448  0.1932
 4200TIP3    H234016   3.379   6.172  13.874 -0.8042  0.7189 -0.7028
 4201TIP3   OH234017   1.762   4.555  12.481  0.2149 -0.5584  0.1617
 4201TIP3    H134018   1.752   4.616  12.553 -0.0999 -0.6538  0.1985
 4201TIP3    H234019   1.856   4.556  12.462  0.1039  0.6321 -0.4482
 4202TIP3   OH234020   3.948   0.551  13.623 -0.0725 -0.3001  0.0872
 4202TIP3    H134021   3.865   0.594  13.643 -1.1000 -2.0371 -0.2385
 4202TIP3    H234022   3.998   0.556  13.704 -0.8798 -0.0736  0.5880
 4203TIP3   OH234023   0.761   2.925   4.449  1.1498  0.3780  0.3454
 4203TIP3    H134024   0.833   2.987   4.459  1.1250  0.4392  0.1487
 4203TIP3    H234025   0.710   2.959   4.376  1.1124  0.1459  0.2623
 4204TIP3   OH234026   3.802   5.292   5.656  0.0604 -0.2708  0.1637
 4204TIP3    H134027   3.824   5.316   5.746 -0.9140 -1.5498  0.7815
 4204TIP3    H234028   3.735   5.356   5.630  1.5849  1.1970 -0.3306
 4205TIP3   OH234029   4.236   0.037   3.943 -0.3350 -0.1082  0.1826
 4205TIP3    H134030   4.318   0.003   3.979  0.0585  0.1323 -0.4779
 4205TIP3    H234031   4.224   0.122   3.987 -1.4449 -1.1526  2.0191
 4206TIP3   OH234032   5.261   3.814   4.075  0.0327 -0.1314  0.1818
 4206TIP3    H134033   5.212   3.871   4.015  1.0073  0.2910 -0.2393
 4206TIP3    H234034   5.208   3.811   4.154  0.6031  2.5362  0.7692
 4207TIP3   OH234035   3.773   2.426  11.275 -0.7883 -0.2859 -0.0525
 4207TIP3    H134036   3.853   2.478  11.269 -0.3921 -0.7293  1.2210
 4207TIP3    H234037   3.732   2.437  11.189  1.4230 -1.3300 -1.3387
 4208TIP3   OH234038   0.417   0.551   3.730 -0.3325 -0.5511 -0.1425
 4208TIP3    H134039   0.325   0.543   3.754 -0.2346  0.0110  0.4362
 4208TIP3    H234040   0.440   0.642   3.751  0.6643 -0.9992  0.8455
 4209TIP3   OH234041   3.433   1.713   0.855 -0.0241 -0.0793  0.0861
 4209TIP3    H134042   3.501   1.680   0.915  1.1586 -0.9523 -1.6365
 4209TIP3    H234043   3.453   1.805   0.844  2.3541 -0.7386 -2.0853
 4210TIP3   OH234044   3.200   4.592   2.795 -0.3797  0.0023 -0.2655
 4210TIP3    H134045   3.202   4.504   2.757  1.7458  0.8292 -2.2857
 4210TIP3    H234046   3.167   4.648   2.725 -1.6329  0.8632  0.9674
 4211TIP3   OH234047   1.865   2.492   1.135 -0.9285  0.3386 -0.0474
 4211TIP3    H134048   1.881   2.402   1.106 -1.4610 -0.2369  1.3693
 4211TIP3    H234049   1.770   2.499   1.141 -0.9818  1.5333 -1.6847
 4212TIP3   OH234050   3.870   6.698  16.804 -0.1557  0.4516 -0.2504
 4212TIP3    H134051   3.938   6.682  16.869 -0.7116 -0.1497  0.1938
 4212TIP3    H234052   3.824   6.614  16.795 -1.7315  1.1744  0.5009
 4213TIP3   OH234053   2.864   3.186  11.753  0.3664  0.3006  0.3317
 4213TIP3    H134054   2.841   3.278  11.767 -3.5423 -0.7714  2.7412
 4213TIP3    H234055   2.822   3.164  11.670  0.7662  0.5123  0.0687
 4214TIP3   OH234056   4.859   0.083  16.949  0.0977  0.1066  1.0250
 4214TIP3    H134057   4.788   0.045  16.898  0.4404  0.1122  0.5348
 4214TIP3    H234058   4.932   0.091  16.887  0.6290 -0.1915  1.5938
 4215TIP3   OH234059   6.076   1.617  12.733 -0.8129 -0.2107 -0.2035
 4215TIP3    H134060   6.144   1.550  12.737 -1.0148 -0.4793 -1.1268
 4215TIP3    H234061   6.124   1.700  12.732 -0.5082 -0.3891 -0.5399
 4216TIP3   OH234062   2.350   5.076  15.179  0.6965 -0.3156  0.4060
 4216TIP3    H134063   2.285   5.051  15.113  0.8125  0.4315 -0.0031
 4216TIP3    H234064   2.317   5.038  15.261 -0.3636  0.2197  0.2444
 4217TIP3   OH234065   5.737   4.218   0.978 -0.5627 -0.3700 -0.0997
 4217TIP3    H134066   5.688   4.259   0.907 -1.0122 -1.3272 -0.3659
 4217TIP3    H234067   5.671   4.169   1.027 -0.0107 -0.9383  0.0892
 4218TIP3   OH234068   5.138   1.558   6.337  0.1211 -0.1190 -0.4644
 4218TIP3    H134069   5.232   1.549   6.356 -0.1196 -0.6119  0.5138
 4218TIP3    H234070   5.097   1.483   6.379 -0.8179  0.5278 -0.1892
 4219TIP3   OH234071   4.079   0.368  15.343 -0.3313 -0.1213 -0.2800
 4219TIP3    H134072   4.094   0.278  15.369 -2.1063 -0.6152 -0.8073
 4219TIP3    H234073   4.060   0.414  15.425  1.2509 -0.0346  0.0743
 4220TIP3   OH234074   5.495   4.416   3.489  0.4404 -0.1070 -0.5427
 4220TIP3    H134075   5.541   4.499   3.478 -0.2668  0.3676 -0.0374
 4220TIP3    H234076   5.456   4.422   3.577 -2.2030  0.3510 -1.6511
 4221TIP3   OH234077   3.271   0.574   5.488 -0.0364 -0.5561 -0.0788
 4221TIP3    H134078   3.315   0.610   5.565  0.7334  1.2400 -1.2940
 4221TIP3    H234079   3.331   0.589   5.416 -1.0107 -1.6136 -1.1634
 4222TIP3   OH234080   4.169   4.026   0.224 -0.5137 -0.1055 -0.1526
 4222TIP3    H134081   4.212   3.956   0.174 -0.1056 -0.2114  0.3358
 4222TIP3    H234082   4.165   3.992   0.313 -1.8801 -0.2131 -0.2357
 4223TIP3   OH234083   0.032   2.620   4.139  0.3754  0.2731  0.2699
 4223TIP3    H134084   0.023   2.713   4.119 -0.1001 -0.2837 -2.5167
 4223TIP3    H234085  -0.053   2.582   4.117  0.2663 -0.7275  2.2252
 4224TIP3   OH234086   4.032   6.187   3.401 -0.3218  0.7797 -0.7330
 4224TIP3    H134087   4.088   6.162   3.328 -1.2763  1.3373 -1.6827
 4224TIP3    H234088   3.944   6.163   3.374 -0.5869 -0.0453  0.7190
 4225TIP3   OH234089   5.853   1.168   0.327 -0.3055  0.2003 -0.2250
 4225TIP3    H134090   5.879   1.202   0.413 -1.2623  2.8049 -0.8764
 4225TIP3    H234091   5.930   1.181   0.272  0.3241 -1.5137  0.1968
 4226TIP3   OH234092   5.393   3.973   2.494 -0.0654  0.2291  0.1709
 4226TIP3    H134093   5.469   4.031   2.489 -0.1302  0.2318 -1.0818
 4226TIP3    H234094   5.321   4.025   2.461 -0.3172 -0.2653 -0.0647
 4227TIP3   OH234095   4.906   4.719  15.985 -0.6944 -0.1777 -0.1985
 4227TIP3    H134096   4.812   4.737  15.987 -0.2113  3.4743 -1.5291
 4227TIP3    H234097   4.930   4.726  15.893  1.2082  1.6566  0.3475
 4228TIP3   OH234098   5.261   0.495   1.495  0.7711  0.0344  0.1978
 4228TIP3    H134099   5.191   0.478   1.432 -0.8067  0.2694  1.8071
 4228TIP3    H234100   5.331   0.435   1.469  0.6725  0.9262 -2.4322
 4229TIP3   OH234101   3.222   0.875   3.866 -0.0396  0.2425  0.1055
 4229TIP3    H134102   3.255   0.874   3.776  1.6702  1.4939  0.6685
 4229TIP3    H234103   3.145   0.932   3.862  1.6431  2.6370 -0.1182
 4230TIP3   OH234104   3.897   0.170  15.150  0.0124 -0.5730 -0.3087
 4230TIP3    H134105   3.807   0.202  15.156 -0.1182 -0.9344 -0.3324
 4230TIP3    H234106   3.900   0.120  15.069  0.5010  0.2607 -0.8161
 4231TIP3   OH234107   4.856   4.831  13.569 -0.1214 -0.2699  0.2010
 4231TIP3    H134108   4.897   4.908  13.530 -0.2718 -0.0245  0.5179
 4231TIP3    H234109   4.924   4.764  13.571 -0.1397 -0.3147 -0.5674
 4232TIP3   OH234110   5.796   5.239   3.323 -0.1779 -0.4038  0.0846
 4232TIP3    H134111   5.859   5.180   3.281  0.2669 -1.0213  1.5425
 4232TIP3    H234112   5.837   5.325   3.318  0.9293 -0.8313  1.2174
 4233TIP3   OH234113   2.570   1.862  15.462  0.5826  0.1907  0.1759
 4233TIP3    H134114   2.618   1.819  15.391  0.0680 -0.5009  0.2400
 4233TIP3    H234115   2.528   1.791  15.509 -1.7910  0.8621 -0.7957
 4234TIP3   OH234116   2.583   4.213   4.626 -0.2622  0.3637 -0.3113
 4234TIP3    H134117   2.535   4.237   4.706 -0.0281 -0.5653  0.1173
 4234TIP3    H234118   2.661   4.269   4.628  0.9657 -1.2818  1.3831
 4235TIP3   OH234119   0.046   4.501   3.410  0.0160  0.2311 -0.6483
 4235TIP3    H134120  -0.021   4.444   3.372 -0.7130  0.2398  0.5880
 4235TIP3    H234121   0.033   4.494   3.504 -0.4063  2.8044 -0.4579
 4236TIP3   OH234122   3.656   0.459   4.352 -0.2747  1.0940  0.2695
 4236TIP3    H134123   3.613   0.534   4.311 -0.2143  1.0006  0.0383
 4236TIP3    H234124   3.642   0.473   4.446  0.6782  1.9919  0.3024
 4237TIP3   OH234125   1.199   2.390  14.909 -0.3272  0.0342 -0.7509
 4237TIP3    H134126   1.285   2.362  14.878  0.0142 -0.5180  0.6257
 4237TIP3    H234127   1.160   2.311  14.946 -0.1633  0.9023  1.3878
 4238TIP3   OH234128   5.837   2.156   0.289  0.1666  0.1999  1.1037
 4238TIP3    H134129   5.854   2.241   0.249  0.8514  0.7495  2.5301
 4238TIP3    H234130   5.882   2.158   0.373  1.0602 -1.9565  0.7577
 4239TIP3   OH234131   3.745   2.580  16.509 -0.2509 -0.4914  0.2762
 4239TIP3    H134132   3.798   2.501  16.518  0.3621 -0.1734 -0.3877
 4239TIP3    H234133   3.771   2.635  16.583  1.4401  0.2497 -0.7825
 4240TIP3   OH234134   2.917   6.714   4.620  0.2253 -0.0155  0.2876
 4240TIP3    H134135   2.866   6.640   4.654  1.5128 -0.1704  2.0223
 4240TIP3    H234136   2.928   6.695   4.527  0.4961 -2.0344  0.6771
 4241TIP3   OH234137   1.897   4.066   5.512 -0.4550 -0.4016 -0.2427
 4241TIP3    H134138   1.917   3.986   5.464  0.3040 -0.2131 -0.2441
 4241TIP3    H234139   1.940   4.056   5.597  0.4024  0.3669 -0.5652
 4242TIP3   OH234140   4.199   0.305  15.996 -0.1995  0.3686  0.4734
 4242TIP3    H134141   4.268   0.239  16.005  0.0334  0.5228 -0.1146
 4242TIP3    H234142   4.158   0.309  16.082  0.1725 -0.1177  0.6780
 4243TIP3   OH234143   0.676   3.521   1.436 -0.6366 -0.0962 -0.1627
 4243TIP3    H134144   0.705   3.430   1.424  0.7649  0.3064 -0.0267
 4243TIP3    H234145   0.756   3.573   1.427 -1.2888  1.0709  0.5089
 4244TIP3   OH234146   2.765   4.448   5.542  0.4248  0.3235 -0.1958
 4244TIP3    H134147   2.735   4.418   5.628 -0.6020  0.4684 -0.4913
 4244TIP3    H234148   2.852   4.410   5.532  0.0500 -0.7121  0.3768
 4245TIP3   OH234149   0.496   0.122   4.510 -0.4283  0.3035 -0.2726
 4245TIP3    H134150   0.559   0.061   4.549  0.8859  2.2580  0.8083
 4245TIP3    H234151   0.518   0.122   4.416  1.2145  0.9259  0.0809
 4246TIP3   OH234152   3.680   0.212   3.524  0.5462 -0.2900 -0.3662
 4246TIP3    H134153   3.769   0.178   3.517  0.2828 -0.8281 -1.2082
 4246TIP3    H234154   3.624   0.135   3.522  0.0216  0.0921 -0.5784
 4247TIP3   OH234155   3.502   4.506   3.654 -0.6456  0.4879 -0.0726
 4247TIP3    H134156   3.470   4.442   3.590  1.7093 -0.2384 -0.6380
 4247TIP3    H234157   3.585   4.469   3.685  0.2508  2.7618  0.4170
 4248TIP3   OH234158   5.158   6.435  11.557 -0.5606  0.1560  0.7517
 4248TIP3    H134159   5.090   6.372  11.583 -1.1859  0.7170  0.5240
 4248TIP3    H234160   5.220   6.384  11.505 -0.6317 -0.4413  1.2485
 4249TIP3   OH234161   5.234   0.910  16.859  0.0831 -0.1356 -0.1922
 4249TIP3    H134162   5.254   0.872  16.945 -1.1069 -0.9978 -0.2752
 4249TIP3    H234163   5.249   0.839  16.797 -2.5856 -0.7002 -0.3094
 4250TIP3   OH234164   1.792   4.989   3.464 -0.2629 -0.3333  0.4519
 4250TIP3    H134165   1.878   4.955   3.492 -0.5459 -0.7856  0.7827
 4250TIP3    H234166   1.812   5.047   3.390  0.2075 -1.4135 -0.2882
 4251TIP3   OH234167   3.920   6.124  13.992 -0.5106 -0.4780 -0.5504
 4251TIP3    H134168   3.987   6.090  14.052 -0.2200 -1.5217 -1.4302
 4251TIP3    H234169   3.962   6.200  13.950 -0.3065 -0.4250 -0.2547
 4252TIP3   OH234170   2.986   6.312   3.593 -0.3531  0.5602  0.0692
 4252TIP3    H134171   2.992   6.230   3.544 -0.9910 -0.1645  1.1699
 4252TIP3    H234172   2.892   6.323   3.609 -0.2757  1.5321 -0.0909
 4253TIP3   OH234173   6.163   5.588   1.829  0.1187 -0.2812  0.3939
 4253TIP3    H134174   6.251   5.612   1.857  0.4599 -1.4138  0.3391
 4253TIP3    H234175   6.168   5.584   1.734  0.7977 -3.0463  0.4564
 4254TIP3   OH234176   3.042   3.923   3.361 -0.0057  0.0718 -0.1683
 4254TIP3    H134177   2.948   3.905   3.368  0.1999 -0.6836  0.7741
 4254TIP3    H234178   3.070   3.875   3.283 -0.3573  0.1529 -0.3480
 4255TIP3   OH234179   5.076   5.960  13.485  0.1982 -0.2757 -0.0710
 4255TIP3    H134180   5.102   5.878  13.527  0.7239  0.2897  0.7532
 4255TIP3    H234181   5.017   6.002  13.548 -0.3856 -0.1970 -0.6573
 4256TIP3   OH234182   2.551   6.254   1.720 -0.0282 -0.4351 -0.9529
 4256TIP3    H134183   2.524   6.187   1.783 -1.2226 -0.1306 -1.1218
 4256TIP3    H234184   2.626   6.297   1.763 -1.7269  0.7677  0.9990
 4257TIP3   OH234185   6.565   5.309  14.172  0.7034  0.3253 -0.4691
 4257TIP3    H134186   6.606   5.393  14.194 -0.6671  1.1641 -0.9772
 4257TIP3    H234187   6.544   5.317  14.079 -2.6265  0.8934  0.2097
 4258TIP3   OH234188   6.099   3.775   1.918  0.0964 -0.0870  0.4514
 4258TIP3    H134189   6.194   3.764   1.916  0.1190  0.1610 -0.0945
 4258TIP3    H234190   6.071   3.754   1.829 -0.2837  0.5068  0.4257
 4259TIP3   OH234191   4.449   3.783   5.353 -0.2063  0.1235 -0.3525
 4259TIP3    H134192   4.420   3.728   5.427  0.4691  0.6305  0.2975
 4259TIP3    H234193   4.383   3.768   5.285 -0.4455 -0.9083  0.0889
 4260TIP3   OH234194   5.198   0.692  11.137  0.0238  0.1487  0.5945
 4260TIP3    H134195   5.233   0.709  11.224  2.5720 -0.5545 -0.1927
 4260TIP3    H234196   5.254   0.623  11.102 -1.7941 -0.5689 -1.1151
 4261TIP3   OH234197   2.462   4.098   4.319 -0.0128  0.0304  0.2006
 4261TIP3    H134198   2.457   4.047   4.238  0.4325  0.5850 -0.1789
 4261TIP3    H234199   2.551   4.084   4.350  0.3244  1.1000 -0.2578
 4262TIP3   OH234200   2.871   0.509  12.336  0.2164 -0.1140  0.1658
 4262TIP3    H134201   2.784   0.471  12.320 -1.0622  2.8683 -0.6496
 4262TIP3    H234202   2.932   0.442  12.307 -1.8146 -1.7489 -0.6281
 4263TIP3   OH234203   0.516   2.288  15.366 -0.1924  0.1669  0.2740
 4263TIP3    H134204   0.545   2.379  15.373  0.7686 -0.1658  0.7726
 4263TIP3    H234205   0.421   2.295  15.354 -0.2276  1.2158  0.9693
 4264TIP3   OH234206   6.693   1.661  13.040 -0.2349  0.2156 -0.3599
 4264TIP3    H134207   6.674   1.614  13.121 -3.2103  1.4535 -0.2167
 4264TIP3    H234208   6.648   1.612  12.971  1.3852 -0.2360 -1.1459
 4265TIP3   OH234209   0.361   4.179   0.134 -0.1185  0.3048  0.5752
 4265TIP3    H134210   0.297   4.113   0.106  0.3754  0.0498  0.0156
 4265TIP3    H234211   0.412   4.197   0.055  0.4397  0.5710  0.9915
 4266TIP3   OH234212   4.618   4.665   0.509 -0.1963  0.2598 -0.0300
 4266TIP3    H134213   4.648   4.755   0.515  0.3198  0.0644  0.4324
 4266TIP3    H234214   4.633   4.628   0.596  1.4541 -0.8192 -0.7011
 4267TIP3   OH234215   0.612   0.273  13.130 -0.0955  0.2784  0.1403
 4267TIP3    H134216   0.538   0.329  13.153 -1.6199 -0.3852 -2.7261
 4267TIP3    H234217   0.573   0.191  13.100  1.8466 -0.4735 -0.5219
 4268TIP3   OH234218   2.145   3.047  14.180 -0.3352  0.1870 -0.2002
 4268TIP3    H134219   2.189   2.965  14.201 -1.1879 -0.5264 -1.1278
 4268TIP3    H234220   2.181   3.110  14.243  0.3816 -0.8660  0.4785
 4269TIP3   OH234221   4.075   3.050  16.628  0.1898  0.3042 -0.0566
 4269TIP3    H134222   4.161   3.087  16.606 -0.2446  1.0913 -0.4594
 4269TIP3    H234223   4.095   2.963  16.662  1.1499  0.4704 -0.1624
 4270TIP3   OH234224   4.797   4.963  14.251  0.1196  0.0709 -0.1913
 4270TIP3    H134225   4.736   4.999  14.187 -1.0828  0.6318  1.2004
 4270TIP3    H234226   4.779   5.013  14.331  0.4799 -1.6117  0.9965
 4271TIP3   OH234227   3.108   2.658   2.082  0.6742  0.0966 -0.1249
 4271TIP3    H134228   3.103   2.658   1.986 -1.1348  0.5043 -0.0633
 4271TIP3    H234229   3.190   2.612   2.101  0.3939 -1.2314 -1.8411
 4272TIP3   OH234230   0.515   1.751  13.057  0.3007  0.4150  0.1572
 4272TIP3    H134231   0.462   1.693  13.112  0.7497  1.5781  1.9026
 4272TIP3    H234232   0.451   1.796  13.002 -0.2225 -0.3158  0.1437
 4273TIP3   OH234233   3.990   4.336   3.541 -0.1456 -0.1339  0.3151
 4273TIP3    H134234   3.936   4.367   3.468 -1.1100 -1.3941  0.4539
 4273TIP3    H234235   4.042   4.265   3.504 -0.3641 -0.5303  0.7604
 4274TIP3   OH234236   3.773   2.066   2.279 -0.1650 -0.3328 -0.0531
 4274TIP3    H134237   3.679   2.051   2.288 -0.4662  0.2188 -1.9492
 4274TIP3    H234238   3.781   2.135   2.214  1.5581 -0.0900  0.3611
 4275TIP3   OH234239   2.328   6.046  15.090 -0.4492 -0.1777  0.5996
 4275TIP3    H134240   2.293   6.033  15.178 -0.0297  1.8601  1.1161
 4275TIP3    H234241   2.409   6.095  15.103 -1.7721  2.6841 -0.9918
 4276TIP3   OH234242   5.867   0.876  12.801 -0.6823 -0.0826  0.0632
 4276TIP3    H134243   5.881   0.943  12.734  0.4689  1.4218  1.6987
 4276TIP3    H234244   5.788   0.905  12.848 -2.5128 -2.0456 -1.5990
 4277TIP3   OH234245   3.702   3.683  15.532 -0.1081 -0.4479 -0.6961
 4277TIP3    H134246   3.705   3.611  15.594 -2.6888  0.1102  0.2038
 4277TIP3    H234247   3.726   3.643  15.448  1.9835 -1.5251  0.3475
 4278TIP3   OH234248   1.133   4.992  13.719  0.2169  0.4771  0.3510
 4278TIP3    H134249   1.040   5.003  13.741 -0.3888 -1.8823 -0.6830
 4278TIP3    H234250   1.171   4.950  13.797  0.1322  0.2947  0.2939
 4279TIP3   OH234251   5.256   6.208   2.438 -0.1515  0.3570  0.5247
 4279TIP3    H134252   5.277   6.127   2.485 -2.5276 -1.7784 -1.7431
 4279TIP3    H234253   5.318   6.211   2.365 -1.6926 -1.0453 -0.9555
 4280TIP3   OH234254   1.044   0.816   2.103 -0.4100 -0.3976 -0.1745
 4280TIP3    H134255   1.139   0.802   2.108 -0.5201 -1.5284 -0.9360
 4280TIP3    H234256   1.023   0.809   2.010 -1.1116  0.8795 -0.1337
 4281TIP3   OH234257   4.070   0.598  16.133  0.3691 -0.4065  0.5273
 4281TIP3    H134258   4.069   0.516  16.182 -1.2926 -0.6802  0.1132
 4281TIP3    H234259   4.000   0.588  16.068  1.2963  0.6695 -0.6875
 4282TIP3   OH234260   1.941   4.695  14.951  0.3438 -0.2079 -0.0055
 4282TIP3    H134261   2.010   4.637  14.920 -0.2610 -2.0721  1.8520
 4282TIP3    H234262   1.947   4.772  14.895  2.0955 -1.4721 -1.6950
 4283TIP3   OH234263   6.477   6.556  14.195  0.4883  0.2866 -0.3002
 4283TIP3    H134264   6.486   6.518  14.282  0.4491  2.1889  0.5573
 4283TIP3    H234265   6.542   6.626  14.191 -1.9792  2.7410 -0.3407
 4284TIP3   OH234266   2.843   5.013  15.371 -0.3254 -0.3483  0.2587
 4284TIP3    H134267   2.761   4.977  15.335  0.3760 -0.6317 -1.1042
 4284TIP3    H234268   2.900   5.023  15.295  0.5729  0.7949  1.0523
 4285TIP3   OH234269   6.154   6.489   0.020 -0.5124 -0.0815  0.4468
 4285TIP3    H134270   6.238   6.508  -0.023 -0.9836  0.3861 -0.2840
 4285TIP3    H234271   6.146   6.555   0.089 -1.0242  0.9075 -0.5326
 4286TIP3   OH234272   5.167   3.068  16.805 -0.4112 -0.0807 -0.1804
 4286TIP3    H134273   5.077   3.036  16.817  0.2238 -1.5440  0.9303
 4286TIP3    H234274   5.210   2.999  16.754  0.0375  0.7464 -0.9639
 4287TIP3   OH234275   0.069   6.766   3.402  0.4766  0.2923  0.3579
 4287TIP3    H134276  -0.004   6.704   3.406  0.9794 -0.2434  2.0486
 4287TIP3    H234277   0.077   6.799   3.491  1.0991  1.8078 -0.2179
 4288TIP3   OH234278   4.008   0.434  11.674  0.3226  0.0745  0.4460
 4288TIP3    H134279   3.933   0.411  11.729 -1.5551 -0.2563 -2.0805
 4288TIP3    H234280   4.000   0.528  11.661  0.2133  0.0129  0.0398
 4289TIP3   OH234281   1.338   2.705  11.559  0.3443  0.0764 -0.0597
 4289TIP3    H134282   1.398   2.759  11.507  0.5436 -0.6591 -0.6198
 4289TIP3    H234283   1.264   2.689  11.501 -1.2373  2.3525  1.1890
 4290TIP3   OH234284   0.496   1.748   3.394 -0.3991  0.2202 -0.7890
 4290TIP3    H134285   0.474   1.771   3.304  0.4224  2.5492 -0.4493
 4290TIP3    H234286   0.471   1.825   3.446 -0.8387 -1.0560  0.9993
 4291TIP3   OH234287   4.266   3.092  11.412  0.2715  0.2305 -0.0232
 4291TIP3    H134288   4.266   3.184  11.386  0.4372  0.1458 -0.3297
 4291TIP3    H234289   4.231   3.092  11.501 -0.2583  0.5288 -0.2287
 4292TIP3   OH234290   1.347   0.645   3.644  0.0482 -0.0402 -0.4478
 4292TIP3    H134291   1.441   0.626   3.643  0.1466  0.4213 -0.2021
 4292TIP3    H234292   1.340   0.730   3.687 -0.4103  0.3122 -1.1909
 4293TIP3   OH234293   6.367   3.748  14.348 -0.2078 -0.5408  0.3210
 4293TIP3    H134294   6.436   3.729  14.412 -0.1610 -1.4799  0.0112
 4293TIP3    H234295   6.414   3.768  14.267 -0.2622 -2.7071 -0.3147
 4294TIP3   OH234296   6.503   1.423  11.058  0.2969  0.3162  0.1536
 4294TIP3    H134297   6.483   1.348  11.002  1.1453  0.1391  0.0750
 4294TIP3    H234298   6.521   1.495  10.997 -0.0168  0.4548  0.2220
 4295TIP3   OH234299   1.778   2.347  15.059 -0.5987  0.3930  0.0175
 4295TIP3    H134300   1.794   2.434  15.022 -1.1859  0.5114  0.0351
 4295TIP3    H234301   1.832   2.288  15.006 -0.6543  0.6908 -0.3750
 4296TIP3   OH234302   5.709   3.299   6.263  0.4461  0.6777  0.2129
 4296TIP3    H134303   5.659   3.339   6.192  0.4682 -0.5864 -0.5486
 4296TIP3    H234304   5.799   3.297   6.231  0.4339 -0.0180  0.2167
 4297TIP3   OH234305   6.273   3.221  12.067 -0.0644  0.7483 -0.0377
 4297TIP3    H134306   6.276   3.234  12.162 -0.5066 -0.9516  0.2301
 4297TIP3    H234307   6.349   3.166  12.048 -1.3038 -0.9361 -0.2978
 4298TIP3   OH234308   4.319   5.092  14.328  0.2423 -0.4085  0.4377
 4298TIP3    H134309   4.244   5.032  14.324 -0.4785  0.3517  1.9717
 4298TIP3    H234310   4.286   5.173  14.290 -0.1054  0.2895  2.1706
 4299TIP3   OH234311   5.814   3.027   6.062 -0.4475  0.1395  0.9025
 4299TIP3    H134312   5.821   3.120   6.043  1.3191  0.1115  1.2871
 4299TIP3    H234313   5.881   3.010   6.128 -1.4264 -1.2162  1.6113
 4300TIP3   OH234314   4.865   4.445  10.928 -0.2534 -0.3907 -0.2206
 4300TIP3    H134315   4.881   4.404  10.843 -0.9942  0.2655 -0.6926
 4300TIP3    H234316   4.914   4.527  10.924 -0.2284 -0.3967  0.0066
 4301TIP3   OH234317   4.004   5.799  13.891  0.8080  0.4229  0.2421
 4301TIP3    H134318   3.909   5.792  13.900  0.9959  0.6422  3.0665
 4301TIP3    H234319   4.020   5.891  13.871  0.4982  0.8511  1.8451
 4302TIP3   OH234320   2.343   3.223   0.860 -0.1047 -0.9130 -0.0280
 4302TIP3    H134321   2.400   3.297   0.837 -1.9442 -0.0946 -2.4798
 4302TIP3    H234322   2.370   3.197   0.947  2.7066  0.6384 -0.3383
 4303TIP3   OH234323   5.048   4.498  16.920 -0.3830 -0.1263 -0.0464
 4303TIP3    H134324   5.018   4.479  17.008 -1.9244 -1.6691 -0.8542
 4303TIP3    H234325   5.005   4.580  16.897 -0.8224 -0.2698  0.2524
 4304TIP3   OH234326   6.723   5.438   3.737  0.2054  0.1328 -0.0300
 4304TIP3    H134327   6.695   5.501   3.671  2.6868  1.2618 -0.1184
 4304TIP3    H234328   6.764   5.491   3.805  1.4687 -1.3086  0.3933
 4305TIP3   OH234329   5.664   2.812  16.115  0.8375 -0.1243 -0.9401
 4305TIP3    H134330   5.669   2.875  16.043  1.8231  2.9327  1.6039
 4305TIP3    H234331   5.587   2.838  16.165  1.1963 -1.0406  0.1392
 4306TIP3   OH234332   5.356   4.774  12.940  0.9331  0.0191  0.3779
 4306TIP3    H134333   5.285   4.838  12.947 -0.5525 -1.0098 -2.9964
 4306TIP3    H234334   5.318   4.693  12.973  1.1482 -0.1275  0.2648
 4307TIP3   OH234335   6.703   0.036   2.073 -0.4932  0.2626  0.0529
 4307TIP3    H134336   6.660  -0.019   2.139  1.0193  0.2865  1.1165
 4307TIP3    H234337   6.677   0.126   2.096 -1.7887  0.1124 -0.7885
 4308TIP3   OH234338   5.431   2.870   3.334 -0.0575 -0.0312 -0.4981
 4308TIP3    H134339   5.489   2.798   3.358 -1.5242 -0.9495  0.3886
 4308TIP3    H234340   5.485   2.925   3.277  3.3913  1.7575  3.8673
 4309TIP3   OH234341   4.063   4.631  16.112 -0.1812 -0.5991  0.2037
 4309TIP3    H134342   4.149   4.603  16.083  0.1044 -1.2384  1.5711
 4309TIP3    H234343   4.079   4.682  16.191 -0.9638  0.6047 -0.3774
 4310TIP3   OH234344   4.219   6.730   0.762  0.6012 -0.1933  0.4153
 4310TIP3    H134345   4.220   6.805   0.702  0.5741 -1.9268 -1.8840
 4310TIP3    H234346   4.134   6.688   0.747  0.9403 -1.1475  1.0601
 4311TIP3   OH234347   0.672   4.253  11.536  0.2797 -0.1754  1.1895
 4311TIP3    H134348   0.693   4.164  11.565 -0.6881  0.2925  3.5462
 4311TIP3    H234349   0.748   4.305  11.564  1.1238 -0.3036 -0.7302
 4312TIP3   OH234350   3.524   6.359  15.297  0.1103  0.1885  0.3504
 4312TIP3    H134351   3.464   6.294  15.259 -1.9190  0.9948  1.9953
 4312TIP3    H234352   3.578   6.309  15.357 -1.1956 -0.0954  1.3360
 4313TIP3   OH234353   1.768   6.460   2.490  0.3306  0.1249  0.3439
 4313TIP3    H134354   1.791   6.403   2.417 -1.7715 -1.3400  0.7073
 4313TIP3    H234355   1.781   6.406   2.568  0.0396  0.7578  0.8420
 4314TIP3   OH234356   2.752   6.110   6.138  0.3306 -0.4032  0.4860
 4314TIP3    H134357   2.825   6.170   6.123 -0.0415 -0.0596  0.0258
 4314TIP3    H234358   2.793   6.024   6.145  0.8729 -0.1016  1.1903
 4315TIP3   OH234359   5.326   5.258   4.615  0.4330  0.1486  0.3100
 4315TIP3    H134360   5.338   5.281   4.522 -0.5794  0.4786  0.2516
 4315TIP3    H234361   5.399   5.199   4.634 -0.3822 -1.4298 -1.1956
 4316TIP3   OH234362   0.015   2.877   3.610  0.6187  0.6886  0.4346
 4316TIP3    H134363  -0.011   2.937   3.541 -0.7573  0.2343  0.5225
 4316TIP3    H234364   0.047   2.799   3.564  0.3306  0.6460  0.3050
 4317TIP3   OH234365   1.344   3.130   2.618  0.3683  0.3307  0.3133
 4317TIP3    H134366   1.412   3.147   2.554  0.0530  0.9554  0.1346
 4317TIP3    H234367   1.316   3.216   2.647 -0.4715  0.0914  0.2507
 4318TIP3   OH234368   5.265   0.255  12.839 -0.6047  0.5918  0.0750
 4318TIP3    H134369   5.196   0.214  12.890  1.2766  0.5770  2.8552
 4318TIP3    H234370   5.341   0.199  12.852  0.4639  1.6564 -1.2267
 4319TIP3   OH234371   6.604   5.816  16.380 -0.3319 -0.1722  0.0410
 4319TIP3    H134372   6.693   5.831  16.349 -0.6168  0.5824 -0.4270
 4319TIP3    H234373   6.604   5.849  16.470 -0.1669 -0.0752  0.0047
 4320TIP3   OH234374   1.768   6.763  16.056  0.1585 -0.4402  0.3568
 4320TIP3    H134375   1.806   6.817  16.125 -0.5928  0.9733 -0.3003
 4320TIP3    H234376   1.824   6.685  16.053 -0.4949 -1.1320  3.3387
 4321TIP3   OH234377   3.095   0.874   5.915  0.2964 -0.6878 -0.0464
 4321TIP3    H134378   3.101   0.824   5.834  2.8144 -0.0406 -0.3532
 4321TIP3    H234379   3.108   0.810   5.985 -0.5082 -1.0449 -0.2241
 4322TIP3   OH234380   2.827   2.817   1.248  0.9150  0.2623  0.4190
 4322TIP3    H134381   2.796   2.862   1.327 -1.1545 -0.6600  0.2096
 4322TIP3    H234382   2.751   2.817   1.189  2.3403  0.7555 -1.5309
 4323TIP3   OH234383   2.651   0.353  12.325 -0.1779 -0.1196 -0.0360
 4323TIP3    H134384   2.622   0.274  12.371  0.2700 -0.9203 -1.0796
 4323TIP3    H234385   2.593   0.358  12.248 -0.9820  1.2430  0.6231
 4324TIP3   OH234386   2.975   4.241  14.262 -0.2727  0.4457 -0.4317
 4324TIP3    H134387   2.886   4.233  14.297 -0.8344  0.0039 -1.8760
 4324TIP3    H234388   3.021   4.295  14.326 -1.3409 -0.0157  0.7675
 4325TIP3   OH234389   5.697   1.438   3.412  0.4867 -0.1292 -0.5439
 4325TIP3    H134390   5.689   1.386   3.332 -0.2558  2.1889 -2.0782
 4325TIP3    H234391   5.732   1.377   3.477 -2.4838 -3.1553 -1.5237
 4326TIP3   OH234392   6.377   5.365   2.407  0.1210  0.0692 -0.6842
 4326TIP3    H134393   6.448   5.301   2.418  0.2135 -0.0364 -1.7174
 4326TIP3    H234394   6.322   5.354   2.484 -0.1456 -1.6238 -1.0809
 4327TIP3   OH234395   6.386   2.175   4.406  0.2910 -0.1223 -0.2965
 4327TIP3    H134396   6.430   2.252   4.370 -0.4882  0.2389 -0.4985
 4327TIP3    H234397   6.451   2.135   4.464  1.0687  0.0911 -0.9986
 4328TIP3   OH234398   0.731   2.673   0.123  0.3474  0.6151 -0.3479
 4328TIP3    H134399   0.702   2.602   0.066  1.9606 -0.9644  0.6873
 4328TIP3    H234400   0.718   2.753   0.071 -0.3437 -0.5320 -2.0211
 4329TIP3   OH234401   2.129   6.102   5.525 -0.4112 -0.3156 -0.7291
 4329TIP3    H134402   2.149   6.182   5.574 -0.5418 -0.4672 -0.4261
 4329TIP3    H234403   2.049   6.122   5.477 -0.1114 -0.0600 -1.1288
 4330TIP3   OH234404   2.436   4.252   1.685 -0.7117  0.0107 -0.2017
 4330TIP3    H134405   2.484   4.229   1.764 -1.4103  0.2072  0.2930
 4330TIP3    H234406   2.473   4.337   1.658  0.8522 -0.9362 -1.2024
 4331TIP3   OH234407   1.458   2.007  12.583  0.1821  0.2746 -0.0667
 4331TIP3    H134408   1.540   2.020  12.630  0.6365 -0.0693 -0.7578
 4331TIP3    H234409   1.433   2.095  12.554  0.9473  0.2294 -0.9003
 4332TIP3   OH234410   4.765   0.337   0.337  0.3641  0.3487  0.4925
 4332TIP3    H134411   4.756   0.430   0.357 -2.0646  0.1522  0.5709
 4332TIP3    H234412   4.789   0.297   0.420  0.4492  0.7804  0.6809
 4333TIP3   OH234413   3.288   5.048   4.556  0.4170  0.0409  0.3113
 4333TIP3    H134414   3.254   4.997   4.629  0.5220 -0.7539 -0.1733
 4333TIP3    H234415   3.383   5.047   4.568  0.4804 -0.6027 -0.1378
 4334TIP3   OH234416   0.639   1.382   2.210 -0.0014 -0.2551 -0.1953
 4334TIP3    H134417   0.618   1.398   2.302  0.7162 -1.8653  0.2737
 4334TIP3    H234418   0.561   1.339   2.175  0.2144 -0.8094 -0.0008
 4335TIP3   OH234419   6.310   1.912  14.485 -0.7243  0.4787 -0.2698
 4335TIP3    H134420   6.323   1.933  14.577 -0.7476  1.3205 -0.4477
 4335TIP3    H234421   6.277   1.822  14.485  1.0555 -0.2038  0.4288
 4336TIP3   OH234422   2.797   0.200  11.408  0.4110  0.6237 -0.0621
 4336TIP3    H134423   2.834   0.241  11.330  0.0704  0.6302 -0.2256
 4336TIP3    H234424   2.798   0.269  11.474 -0.2632  0.9448 -0.3682
 4337TIP3   OH234425   0.525   1.291  14.450  0.5323 -0.2734  0.0554
 4337TIP3    H134426   0.474   1.368  14.427  1.8993 -0.0958 -2.7173
 4337TIP3    H234427   0.610   1.325  14.476  1.4456 -0.8030 -2.0555
 4338TIP3   OH234428   1.478   5.717   4.473  0.3083 -0.5731 -0.4058
 4338TIP3    H134429   1.438   5.795   4.512  0.5962 -1.0576  0.9351
 4338TIP3    H234430   1.467   5.728   4.379  2.2281  2.1232 -0.4263
 4339TIP3   OH234431   3.928   2.794   3.119  0.2288 -0.1978  1.0711
 4339TIP3    H134432   4.001   2.757   3.169  0.8537 -0.8613 -0.2880
 4339TIP3    H234433   3.954   2.885   3.103  0.8184 -0.4432  0.5455
 4340TIP3   OH234434   0.112   2.860  15.312  0.1764 -0.4540  0.3646
 4340TIP3    H134435   0.144   2.813  15.236  3.3093  0.7576  0.7990
 4340TIP3    H234436   0.130   2.802  15.386  2.2497  0.5378  0.6934
 4341TIP3   OH234437   3.428   3.200   5.320 -1.1440 -0.1709 -0.1288
 4341TIP3    H134438   3.443   3.120   5.269 -0.1677  0.9685 -1.7091
 4341TIP3    H234439   3.459   3.271   5.264 -2.1635  1.3655  1.1475
 4342TIP3   OH234440   1.157   6.332  15.080 -0.3515 -0.2569 -0.5441
 4342TIP3    H134441   1.071   6.373  15.079 -0.0892  0.3179  0.0334
 4342TIP3    H234442   1.217   6.401  15.052  0.1642 -0.0424  0.9751
 4343TIP3   OH234443   3.286   1.069   4.260 -0.3525  0.4890  0.2662
 4343TIP3    H134444   3.209   1.125   4.247  0.5071  1.6996  0.2242
 4343TIP3    H234445   3.325   1.062   4.173  2.1155  3.7294  0.9081
 4344TIP3   OH234446   3.452   6.414  13.029  0.0687 -0.0068 -0.1735
 4344TIP3    H134447   3.424   6.325  13.051 -2.5035  0.7570  0.0066
 4344TIP3    H234448   3.450   6.417  12.934 -2.2544  0.4608 -0.1736
 4345TIP3   OH234449   3.187   1.483  13.460  0.6739  0.2778  0.3745
 4345TIP3    H134450   3.282   1.469  13.458  0.4677 -1.1369 -1.2304
 4345TIP3    H234451   3.158   1.438  13.539  1.3593  1.0574  1.0917
 4346TIP3   OH234452   0.961   1.045  13.084  0.3416  0.4788 -0.0004
 4346TIP3    H134453   0.875   1.043  13.126 -0.4521  2.8396 -1.3289
 4346TIP3    H234454   1.021   1.074  13.153  0.2271 -1.5985  1.0523
 4347TIP3   OH234455   5.554   2.873  11.935  0.1245 -0.1124  1.1514
 4347TIP3    H134456   5.621   2.938  11.957 -0.7002  1.2178 -0.1119
 4347TIP3    H234457   5.572   2.850  11.844 -0.1538 -1.0017  1.3047
 4348TIP3   OH234458   3.032   1.599   0.356  0.0486 -0.6313 -0.8664
 4348TIP3    H134459   3.040   1.690   0.382  1.4516 -0.6469 -1.1460
 4348TIP3    H234460   3.114   1.580   0.310 -0.8198 -1.6298 -2.0581
 4349TIP3   OH234461   5.194   3.685  12.035 -0.0517 -0.0356 -0.2150
 4349TIP3    H134462   5.183   3.759  12.095 -1.2421  0.8946 -1.4978
 4349TIP3    H234463   5.288   3.680  12.018  0.0887  0.8978  0.2591
 4350TIP3   OH234464   2.702   2.959  13.942 -0.0178  0.5165  0.2375
 4350TIP3    H134465   2.747   3.026  13.890  0.9737  0.7483  1.3519
 4350TIP3    H234466   2.722   2.877  13.898 -0.7305  0.8601 -0.7884
 4351TIP3   OH234467   2.514   4.233  15.606 -0.3914 -0.1225  0.7568
 4351TIP3    H134468   2.438   4.289  15.597  0.1173  0.5097  0.3272
 4351TIP3    H234469   2.589   4.293  15.606  0.3018 -0.8682 -1.5325
 4352TIP3   OH234470   3.069   6.063   5.667  0.0608 -0.8644 -0.2536
 4352TIP3    H134471   3.057   6.096   5.756 -1.1055 -1.2123 -0.2688
 4352TIP3    H234472   3.101   6.139   5.618 -1.1154 -0.1388  0.0576
 4353TIP3   OH234473   3.291   0.472   3.881 -0.4612  0.1449  0.3974
 4353TIP3    H134474   3.239   0.551   3.869  0.5799  1.0354  1.6067
 4353TIP3    H234475   3.275   0.446   3.971 -0.1656 -0.5817  0.2458
 4354TIP3   OH234476   4.063   6.330  13.818 -0.6008  0.5387  0.0074
 4354TIP3    H134477   4.070   6.310  13.724  0.5063  0.9268 -0.0100
 4354TIP3    H234478   4.134   6.392  13.834  0.1258 -0.6169  1.4074
 4355TIP3   OH234479   0.215   0.279  16.586  0.5100  0.4483 -0.2210
 4355TIP3    H134480   0.216   0.184  16.588  0.8830  0.4621  0.3357
 4355TIP3    H234481   0.213   0.305  16.678  2.1206  0.9923 -0.3201
 4356TIP3   OH234482   1.601   4.477   5.371 -0.1392  0.1382  0.0832
 4356TIP3    H134483   1.669   4.427   5.417 -1.0095 -0.6113  0.5841
 4356TIP3    H234484   1.536   4.496   5.438 -0.5943  0.5362 -0.4721
 4357TIP3   OH234485   3.996   2.290   3.592  0.3834  0.0528 -0.2858
 4357TIP3    H134486   3.998   2.201   3.556  1.9696  0.1297 -0.4291
 4357TIP3    H234487   3.909   2.323   3.568  0.0328 -1.2033 -0.8406
 4358TIP3   OH234488   0.453   0.576  14.355 -0.3956 -0.1342  0.0546
 4358TIP3    H134489   0.526   0.636  14.369 -0.4940  0.0293 -0.1272
 4358TIP3    H234490   0.375   0.632  14.354 -0.4209 -0.1675 -0.8544
 4359TIP3   OH234491   4.815   5.909  12.518  0.4718 -0.0303 -0.4497
 4359TIP3    H134492   4.808   5.997  12.555 -0.7565  0.6523 -2.1581
 4359TIP3    H234493   4.779   5.852  12.586 -0.6122  1.0318 -0.0912
 4360TIP3   OH234494   4.350   2.417   3.306  0.0600 -0.1709  0.2966
 4360TIP3    H134495   4.285   2.398   3.373  1.0826 -1.4440  0.9671
 4360TIP3    H234496   4.365   2.334   3.262 -0.9029  0.7205 -1.8480
 4361TIP3   OH234497   5.494   1.493   1.531  0.2836  0.2085  0.1821
 4361TIP3    H134498   5.511   1.549   1.455  0.2551  0.4348  0.3434
 4361TIP3    H234499   5.561   1.425   1.526 -0.6241 -0.6622 -0.9060
 4362TIP3   OH234500   6.329   1.510  14.873  0.3284 -0.3275 -0.1859
 4362TIP3    H134501   6.287   1.582  14.825 -0.7329 -1.1412 -0.5266
 4362TIP3    H234502   6.412   1.546  14.903  0.3172  0.6951 -1.3048
 4363TIP3   OH234503   6.075   0.319   2.232 -0.2873  0.0644  0.5439
 4363TIP3    H134504   6.054   0.226   2.225  0.9136 -0.1477 -0.7172
 4363TIP3    H234505   6.054   0.342   2.322 -2.1706 -1.0193  0.4251
 4364TIP3   OH234506   2.841   1.065   4.645  0.0075 -0.4447 -0.8454
 4364TIP3    H134507   2.897   0.988   4.652 -0.1623 -0.4726  0.4511
 4364TIP3    H234508   2.752   1.030   4.649 -0.2407 -0.0588  4.3668
 4365TIP3   OH234509   1.553   6.565   5.451 -0.3090  0.5042  0.0185
 4365TIP3    H134510   1.594   6.575   5.537 -1.9889 -2.4951  1.3230
 4365TIP3    H234511   1.619   6.519   5.398 -0.2553 -0.0234  0.5452
 4366TIP3   OH234512   2.724   4.095   5.304  0.3320 -0.3570  0.1235
 4366TIP3    H134513   2.776   4.049   5.237  0.0586 -0.4404 -0.0309
 4366TIP3    H234514   2.771   4.078   5.386  1.1038  0.3784 -0.1436
 4367TIP3   OH234515   6.237   5.380   0.414 -0.0560 -0.1549 -0.1013
 4367TIP3    H134516   6.204   5.430   0.489  1.0498  1.9324 -0.9389
 4367TIP3    H234517   6.182   5.408   0.341  1.4580  0.9264 -0.8592
 4368TIP3   OH234518   3.368   6.195  15.091  0.3318  0.4439 -0.0644
 4368TIP3    H134519   3.408   6.109  15.095 -0.5757  0.0609  1.6639
 4368TIP3    H234520   3.403   6.234  15.010 -0.0572 -1.9256 -1.4785
 4369TIP3   OH234521   2.724   2.714   1.757 -0.0474  0.3398  0.8388
 4369TIP3    H134522   2.753   2.652   1.823 -1.2897  0.5100  1.5897
 4369TIP3    H234523   2.727   2.666   1.675  1.1035 -0.0100  1.0635
 4370TIP3   OH234524   6.656   0.879  11.407  0.0708  0.3764  0.5335
 4370TIP3    H134525   6.629   0.967  11.434 -1.6082  0.8251 -2.1999
 4370TIP3    H234526   6.600   0.859  11.332  1.8051 -2.2164 -0.1959
 4371TIP3   OH234527   4.311   3.623   5.517 -0.4013 -0.0082  0.3766
 4371TIP3    H134528   4.325   3.673   5.597 -0.7666  0.1069  0.3710
 4371TIP3    H234529   4.367   3.546   5.526 -1.7061 -0.8669  1.5025
 4372TIP3   OH234530   0.814   6.583   4.234 -0.4111  0.5907  0.5108
 4372TIP3    H134531   0.820   6.571   4.329  2.1415 -0.0737  0.3287
 4372TIP3    H234532   0.764   6.507   4.204  0.9216 -0.5717  1.1160
 4373TIP3   OH234533   2.032   5.209   6.088 -0.3421 -0.0552 -0.3800
 4373TIP3    H134534   2.048   5.298   6.121 -0.7581 -0.2753  0.4301
 4373TIP3    H234535   2.116   5.165   6.097  0.2190  0.6106 -1.9805
 4374TIP3   OH234536   0.771   0.623  10.740 -0.0124 -0.7396  0.2472
 4374TIP3    H134537   0.760   0.715  10.716 -2.0101 -1.1936 -0.8338
 4374TIP3    H234538   0.863   0.604  10.721  0.3082  0.8894  0.0043
 4375TIP3   OH234539   1.458   2.983  13.004 -0.0415 -0.1072  0.3409
 4375TIP3    H134540   1.393   3.020  12.944  0.8609  0.3144 -0.4232
 4375TIP3    H234541   1.436   2.890  13.010 -0.1642 -0.1524 -0.6503
 4376TIP3   OH234542   2.561   0.212   5.075  0.1268 -0.5192 -0.1464
 4376TIP3    H134543   2.636   0.202   5.017  1.1090  2.5779  0.3606
 4376TIP3    H234544   2.580   0.157   5.151  0.7411 -1.5591 -1.0435
 4377TIP3   OH234545   6.538   6.547   4.732 -0.4571 -0.2862  0.0768
 4377TIP3    H134546   6.609   6.599   4.693 -0.0802 -1.5555 -0.9790
 4377TIP3    H234547   6.464   6.559   4.673 -0.4371 -0.7497 -0.0477
 4378TIP3   OH234548   0.821   5.383   4.303 -0.3630 -0.4120  0.0899
 4378TIP3    H134549   0.773   5.382   4.385 -2.6517  1.2112 -1.1118
 4378TIP3    H234550   0.754   5.392   4.236  1.3292 -2.7503 -2.1028
 4379TIP3   OH234551   6.336   4.122  16.430  0.5054 -0.0916 -0.3166
 4379TIP3    H134552   6.349   4.188  16.498 -0.5635  0.1734 -0.3564
 4379TIP3    H234553   6.424   4.101  16.399  0.8720  1.1284 -0.1304
 4380TIP3   OH234554   1.842   3.703   0.582 -0.5184 -0.3860  0.0796
 4380TIP3    H134555   1.868   3.795   0.571  2.1026 -0.8806  1.3769
 4380TIP3    H234556   1.856   3.663   0.496 -1.1765  0.3002 -0.3580
 4381TIP3   OH234557   0.534   3.337   0.698 -0.0303  0.0137 -0.1468
 4381TIP3    H134558   0.548   3.431   0.682  0.4231 -0.1930 -1.0232
 4381TIP3    H234559   0.453   3.333   0.749  0.4362  0.9354  0.7142
 4382TIP3   OH234560   3.148   4.272   0.458  0.0350  0.1328 -0.3638
 4382TIP3    H134561   3.087   4.198   0.466 -1.0450  1.1042  1.0019
 4382TIP3    H234562   3.202   4.251   0.382 -1.6427 -1.0454 -1.2977
 4383TIP3   OH234563   2.238   3.277  17.050 -0.0558  0.0423  0.4418
 4383TIP3    H134564   2.268   3.288  17.141  1.2599 -1.8180  0.2791
 4383TIP3    H234565   2.283   3.347  17.002 -1.0427  1.2734  1.2432
 4384TIP3   OH234566   2.395   5.906  11.068 -0.2021  0.0479 -0.9791
 4384TIP3    H134567   2.369   5.843  11.136 -1.3756  0.0062 -1.4299
 4384TIP3    H234568   2.428   5.851  10.997 -2.4764 -0.2469 -1.9228
 4385TIP3   OH234569   0.370   3.870   1.169  0.2911 -0.9550 -0.1172
 4385TIP3    H134570   0.436   3.933   1.141  1.3469 -1.3772  1.2654
 4385TIP3    H234571   0.288   3.903   1.134  0.8442  1.0513  0.3605
 4386TIP3   OH234572   2.753   2.118   5.539  0.3429 -0.7019  0.1397
 4386TIP3    H134573   2.741   2.040   5.486  1.9495  0.8578 -2.8361
 4386TIP3    H234574   2.713   2.098   5.623 -0.9712 -3.9640 -1.1326
 4387TIP3   OH234575   2.640   5.727  13.111  0.2293  0.1023  0.0056
 4387TIP3    H134576   2.551   5.761  13.117 -0.0032 -0.5169  0.1309
 4387TIP3    H234577   2.647   5.667  13.186  0.5190 -0.3766 -0.4038
 4388TIP3   OH234578   5.350   6.235  11.116  0.2355  0.3409  0.1764
 4388TIP3    H134579   5.374   6.319  11.156  1.3770  0.8611 -1.4746
 4388TIP3    H234580   5.277   6.203  11.168  0.5771  1.7705  1.6005
 4389TIP3   OH234581   0.175   5.758  13.964  1.4858  0.2934  0.2095
 4389TIP3    H134582   0.227   5.715  14.032  1.3272 -0.2648 -0.0224
 4389TIP3    H234583   0.202   5.850  13.969  1.1129  0.3518  1.3598
 4390TIP3   OH234584   0.598   0.630  14.701 -0.6308 -0.9264  0.0179
 4390TIP3    H134585   0.577   0.635  14.795  0.3831  1.0461  0.1914
 4390TIP3    H234586   0.552   0.704  14.662  0.7955 -0.3178 -0.6143
 4391TIP3   OH234587   5.474   5.137  13.863 -0.0053  0.3348 -0.3394
 4391TIP3    H134588   5.475   5.056  13.915 -1.3774 -0.4918 -1.5312
 4391TIP3    H234589   5.403   5.189  13.902  0.5067  0.7293  0.0730
 4392TIP3   OH234590   3.437   6.632   5.843  0.5655 -0.2676 -0.6519
 4392TIP3    H134591   3.389   6.555   5.814  0.2352  0.7340 -3.0192
 4392TIP3    H234592   3.369   6.696   5.866  0.7935  0.0273 -0.7823
 4393TIP3   OH234593   4.033   5.315  14.723 -0.5211 -0.3293 -0.3644
 4393TIP3    H134594   4.019   5.224  14.697  1.1056 -0.9142  0.6462
 4393TIP3    H234595   4.106   5.312  14.785  0.0905  1.7400 -0.8711
 4394TIP3   OH234596   2.303   1.160   0.089 -0.2706  0.1843  0.6150
 4394TIP3    H134597   2.379   1.122   0.045 -0.8789 -1.7146  1.1117
 4394TIP3    H234598   2.307   1.253   0.067 -0.0992 -0.4841 -2.8067
 4395TIP3   OH234599   1.584   0.609  15.100  0.3870  0.1022  0.3879
 4395TIP3    H134600   1.519   0.676  15.075  1.0312  0.9426  0.9159
 4395TIP3    H234601   1.541   0.559  15.169 -0.1770 -0.1728 -0.1499
 4396TIP3   OH234602   2.911   4.753  11.697  0.4387 -0.7273  0.4821
 4396TIP3    H134603   2.841   4.818  11.695 -0.6890 -1.8509  1.4417
 4396TIP3    H234604   2.991   4.804  11.710 -0.0067  0.6854 -1.7622
 4397TIP3   OH234605   0.758   0.280   4.627  0.1345 -0.0008  0.7070
 4397TIP3    H134606   0.728   0.310   4.541 -0.8258  1.1220  1.4035
 4397TIP3    H234607   0.751   0.184   4.622  0.4702  0.0154 -0.5773
 4398TIP3   OH234608   0.446   4.673   1.171  0.0287 -0.0295 -0.3319
 4398TIP3    H134609   0.399   4.692   1.089  0.8936 -3.4370 -1.8037
 4398TIP3    H234610   0.399   4.598   1.208  0.3690  0.7350  1.7234
 4399TIP3   OH234611   6.461   6.667   5.836  0.5448 -0.3908  0.3491
 4399TIP3    H134612   6.406   6.650   5.759  0.2675 -3.4563  1.1051
 4399TIP3    H234613   6.543   6.701   5.799 -0.7678  1.5866 -0.9758
 4400TIP3   OH234614   4.771   1.739   1.797  0.7671 -0.1892  0.2439
 4400TIP3    H134615   4.722   1.773   1.722  0.5737  0.8057  0.8032
 4400TIP3    H234616   4.708   1.738   1.869  0.9291 -1.2074  0.3890
 4401TIP3   OH234617   2.660   5.897   6.331 -0.5941  0.3784 -0.5540
 4401TIP3    H134618   2.750   5.871   6.348 -0.1952  2.3294  0.6154
 4401TIP3    H234619   2.614   5.815   6.311  1.2579 -0.7250 -0.4585
 4402TIP3   OH234620   1.980   5.500   5.910  0.0260  0.3856 -0.5886
 4402TIP3    H134621   1.891   5.503   5.946 -0.3736  0.2767 -1.5366
 4402TIP3    H234622   2.029   5.563   5.962 -0.3119 -0.3716  0.6989
 4403TIP3   OH234623   6.577   1.746  14.582  0.2382 -0.3665  0.2453
 4403TIP3    H134624   6.510   1.679  14.567 -0.9051  0.8655 -0.3931
 4403TIP3    H234625   6.629   1.746  14.501 -1.7209  1.6159 -1.1191
 4404TIP3   OH234626   2.640   1.070   3.785 -0.7176  0.7336  0.0533
 4404TIP3    H134627   2.614   0.995   3.732  1.8679 -0.6001  0.5228
 4404TIP3    H234628   2.571   1.077   3.851  0.8869 -4.1589  2.7494
 4405TIP3   OH234629   1.323   4.047   3.933 -0.4390  0.0391 -0.1469
 4405TIP3    H134630   1.281   3.975   3.980 -0.3144 -2.0214 -2.9371
 4405TIP3    H234631   1.265   4.122   3.945 -1.6061 -1.0514  1.2496
 4406TIP3   OH234632   5.733   5.751  11.138 -0.4600  0.6789  0.3875
 4406TIP3    H134633   5.809   5.774  11.085 -0.6064  0.0016 -0.1314
 4406TIP3    H234634   5.730   5.818  11.206  0.0299  1.2673 -0.1575
 4407TIP3   OH234635   2.738   4.413   4.277  0.5165  0.0034 -0.3777
 4407TIP3    H134636   2.738   4.318   4.292  0.4137 -0.0343 -0.6107
 4407TIP3    H234637   2.674   4.425   4.207 -0.6765  0.4073  0.7227
 4408TIP3   OH234638   5.457   1.090   3.538  0.1524 -0.2381  0.6034
 4408TIP3    H134639   5.445   1.184   3.522  1.6782  0.2274  1.9508
 4408TIP3    H234640   5.369   1.057   3.556 -0.4551  0.8414 -0.2557
 4409TIP3   OH234641   6.042   4.406  11.902 -0.4167 -0.2603 -0.5920
 4409TIP3    H134642   5.971   4.403  11.966  0.0385 -3.0965 -0.0718
 4409TIP3    H234643   6.121   4.421  11.954 -0.2847 -0.3705 -0.7597
 4410TIP3   OH234644   5.421   3.601  16.012 -0.1025 -0.3853  0.3621
 4410TIP3    H134645   5.351   3.544  16.043 -0.3229  0.4580  1.4945
 4410TIP3    H234646   5.501   3.551  16.027 -0.3545 -0.7779  0.4252
 4411TIP3   OH234647   4.584   0.797  11.729  0.0145 -0.5694  0.4448
 4411TIP3    H134648   4.643   0.723  11.745 -0.0713 -1.3031 -2.1847
 4411TIP3    H234649   4.499   0.756  11.712 -0.0502  0.0793 -0.9832
 4412TIP3   OH234650   4.516   4.251   2.169  0.5964 -0.5140  0.1548
 4412TIP3    H134651   4.565   4.231   2.090  0.3679  1.6446 -0.6117
 4412TIP3    H234652   4.457   4.177   2.181  0.4997 -0.7990 -1.7954
 4413TIP3   OH234653   6.358   5.868  11.821 -0.1820 -0.1458  0.0079
 4413TIP3    H134654   6.297   5.803  11.786 -1.1822  0.3968  0.6632
 4413TIP3    H234655   6.321   5.892  11.906 -0.3536  1.9043 -0.5845
 4414TIP3   OH234656   5.090   1.723   0.280  0.4036 -0.7065  0.4859
 4414TIP3    H134657   5.186   1.727   0.279  0.5303 -2.7308  0.3828
 4414TIP3    H234658   5.070   1.633   0.254 -1.6156  0.5129 -2.7421
 4415TIP3   OH234659   5.448   4.494   3.773 -0.1096 -0.1481 -0.1181
 4415TIP3    H134660   5.373   4.435   3.769 -0.0884 -0.2839  1.1001
 4415TIP3    H234661   5.430   4.551   3.848  0.7692  0.1466 -0.1169
 4416TIP3   OH234662   4.990   1.882   3.195  0.3544 -0.6325  0.5141
 4416TIP3    H134663   4.898   1.856   3.203  1.0496 -3.2968  0.8791
 4416TIP3    H234664   5.014   1.859   3.106  1.3479 -2.7089  1.2491
 4417TIP3   OH234665   0.928   3.174   3.395  0.3523 -0.3361 -0.5206
 4417TIP3    H134666   0.853   3.153   3.338 -0.4908  1.5721 -0.2077
 4417TIP3    H234667   0.899   3.149   3.482 -0.4016  1.3885 -0.2400
 4418TIP3   OH234668   4.109   4.712  12.921 -0.3376 -0.3133 -0.4641
 4418TIP3    H134669   4.181   4.671  12.873 -0.5068 -1.1313 -0.0259
 4418TIP3    H234670   4.146   4.731  13.008 -0.3861  0.0917 -0.5279
 4419TIP3   OH234671   5.186   4.692   1.375  0.4364  0.5705  0.0543
 4419TIP3    H134672   5.222   4.770   1.333 -0.9592  0.3574 -1.6766
 4419TIP3    H234673   5.196   4.708   1.469 -0.3677  3.1190 -0.2148
 4420TIP3   OH234674   4.472   0.616  14.322 -0.0803 -0.3279  0.5008
 4420TIP3    H134675   4.547   0.579  14.275 -0.2754 -0.7435  0.5104
 4420TIP3    H234676   4.451   0.550  14.389 -0.4575 -0.2153  0.4939
 4421TIP3   OH234677   3.174   1.629   1.939 -0.1666 -0.2231 -0.0135
 4421TIP3    H134678   3.193   1.535   1.941 -1.5255 -0.7825 -3.9700
 4421TIP3    H234679   3.230   1.663   1.869  1.4907  2.3513  2.3918
 4422TIP3   OH234680   5.077   5.650   5.227 -0.0742  0.1875 -0.0845
 4422TIP3    H134681   5.170   5.627   5.236 -0.4321 -1.1843  0.2154
 4422TIP3    H234682   5.078   5.727   5.169  1.4384  2.0559  2.2249
 4423TIP3   OH234683   5.448   1.832  10.419 -0.6471  0.3056 -0.0517
 4423TIP3    H134684   5.387   1.901  10.391 -2.2194 -0.4799  1.2432
 4423TIP3    H234685   5.398   1.751  10.408  1.4821 -0.8122 -2.4861
 4424TIP3   OH234686   5.816   2.897  14.573 -0.1733 -0.0943 -0.7668
 4424TIP3    H134687   5.853   2.959  14.635  1.3136 -0.6723 -1.0429
 4424TIP3    H234688   5.834   2.811  14.611 -1.7836 -0.3941 -0.6193
 4425TIP3   OH234689   1.551   0.930   4.302  0.7980  0.1314  0.8722
 4425TIP3    H134690   1.527   1.014   4.262 -0.7343 -0.4462  0.5014
 4425TIP3    H234691   1.633   0.906   4.260  1.4962  1.6452  1.3070
 4426TIP3   OH234692   4.511   3.704   0.918  0.1886  0.3473  0.7610
 4426TIP3    H134693   4.431   3.659   0.945  0.4662 -0.9164 -0.3854
 4426TIP3    H234694   4.485   3.758   0.843  0.3284  0.2589  0.6482
 4427TIP3   OH234695   2.782   1.953   3.721 -0.1972 -0.4915  0.5714
 4427TIP3    H134696   2.767   1.860   3.740 -1.4962 -0.4381 -0.0876
 4427TIP3    H234697   2.876   1.965   3.736  0.3508 -2.2925 -0.9020
 4428TIP3   OH234698   2.198   5.375   3.877  0.4543 -0.5530 -0.2685
 4428TIP3    H134699   2.252   5.319   3.932  0.4067 -1.4960 -1.1520
 4428TIP3    H234700   2.139   5.315   3.831 -1.0069  0.4108  0.2803
 4429TIP3   OH234701   2.207   5.776  15.001 -0.5863 -0.5056 -0.2476
 4429TIP3    H134702   2.135   5.816  15.050 -1.5353 -0.5790 -1.5437
 4429TIP3    H234703   2.283   5.832  15.021 -1.0025 -0.3508  1.0282
 4430TIP3   OH234704   3.736   1.297  12.814  0.0717 -0.0439 -0.1664
 4430TIP3    H134705   3.697   1.257  12.892  0.4981 -0.2907 -0.0784
 4430TIP3    H234706   3.778   1.225  12.768  1.6229  0.4255  0.4476
 4431TIP3   OH234707   6.022   5.543   5.075  0.0114 -0.2705 -0.1510
 4431TIP3    H134708   6.008   5.456   5.114  1.9983 -0.0146  1.2887
 4431TIP3    H234709   5.942   5.560   5.026 -1.1208 -2.2009  0.8922
 4432TIP3   OH234710   0.547   4.686   1.809  0.1580 -0.6557 -0.2104
 4432TIP3    H134711   0.578   4.747   1.742  2.9973 -0.7517  0.8726
 4432TIP3    H234712   0.472   4.643   1.769 -0.2731  1.5683 -2.0610
 4433TIP3   OH234713   5.723   4.029   1.490  0.3521 -0.2250 -0.4086
 4433TIP3    H134714   5.678   3.981   1.421  0.2151 -0.0073 -0.4715
 4433TIP3    H234715   5.798   4.068   1.447  0.5161 -0.4592 -0.3370
 4434TIP3   OH234716   2.799   2.829  12.425 -0.6943  0.0227  0.0116
 4434TIP3    H134717   2.762   2.817  12.337  1.0727 -0.6351 -0.6794
 4434TIP3    H234718   2.757   2.909  12.458 -0.8324  0.7104 -1.7307
 4435TIP3   OH234719   0.894   4.107  13.180  0.0996  0.0293  0.3493
 4435TIP3    H134720   0.876   4.033  13.122  0.3950  0.2227  0.0088
 4435TIP3    H234721   0.825   4.102  13.247  0.3930 -0.8254  0.5976
 4436TIP3   OH234722   4.677   3.836   2.962 -0.3313  0.0228  0.1764
 4436TIP3    H134723   4.605   3.776   2.945 -0.5378 -0.0540  1.2693
 4436TIP3    H234724   4.637   3.923   2.953 -0.1419  0.0058 -0.9376
 4437TIP3   OH234725   6.019   2.142  16.890 -0.0940 -0.3051  0.3543
 4437TIP3    H134726   6.080   2.073  16.863 -0.6161 -0.1593 -1.3208
 4437TIP3    H234727   6.065   2.223  16.869 -0.9006 -0.1935 -1.0976
 4438TIP3   OH234728   0.295   6.512   1.368  0.0310  0.6506  0.2038
 4438TIP3    H134729   0.222   6.498   1.429 -1.7180  2.6919 -1.2597
 4438TIP3    H234730   0.297   6.607   1.355  1.7420  0.4622 -1.2766
 4439TIP3   OH234731   1.795   1.033  13.833  0.2753 -0.1346 -0.7732
 4439TIP3    H134732   1.879   1.043  13.788 -0.0331 -0.2777 -1.3966
 4439TIP3    H234733   1.767   0.944  13.812  0.2643 -0.3088 -0.0440
 4440TIP3   OH234734   5.699   6.392  12.797  0.2449 -0.5487  0.2866
 4440TIP3    H134735   5.690   6.466  12.737  2.5219 -1.0887 -0.8462
 4440TIP3    H234736   5.612   6.353  12.800 -0.4947  0.8995 -0.7655
 4441TIP3   OH234737   3.981   1.084  15.466  0.0788 -0.4212 -0.2134
 4441TIP3    H134738   4.041   1.015  15.436  0.2216  0.2264 -1.4881
 4441TIP3    H234739   4.006   1.161  15.414 -0.9735  0.2223  0.2162
 4442TIP3   OH234740   0.028   0.888   6.152  0.1278 -0.3365 -0.3792
 4442TIP3    H134741  -0.017   0.868   6.070  0.8303  1.2583 -1.1943
 4442TIP3    H234742  -0.012   0.829   6.216  0.5007 -2.6326 -2.1077
 4443TIP3   OH234743   0.651   3.453   3.466  0.4175  0.1227 -0.1146
 4443TIP3    H134744   0.634   3.390   3.535  2.9580  1.7391  2.2111
 4443TIP3    H234745   0.566   3.495   3.451 -0.3005 -0.4805  1.8696
 4444TIP3   OH234746   5.202   5.150  13.336 -0.0472  0.1268  0.0329
 4444TIP3    H134747   5.107   5.160  13.344 -0.0871  0.2118 -0.4700
 4444TIP3    H234748   5.220   5.062  13.366  0.2884  1.4885  4.4522
 4445TIP3   OH234749   6.020   2.981   6.221 -0.2112  0.3277 -0.6015
 4445TIP3    H134750   6.102   2.984   6.172  0.3524 -0.4094  0.2394
 4445TIP3    H234751   6.033   3.044   6.292 -0.8512  1.0755 -1.1338
 4446TIP3   OH234752   5.562   2.091   4.854 -0.3258 -0.3453  0.1724
 4446TIP3    H134753   5.535   2.003   4.879  0.2113 -0.7604 -0.6605
 4446TIP3    H234754   5.609   2.079   4.772 -0.7489  0.7888 -0.2554
 4447TIP3   OH234755   2.768   0.372  13.187  0.7412 -0.0133  0.3285
 4447TIP3    H134756   2.773   0.280  13.210 -1.9445 -0.5078 -0.6771
 4447TIP3    H234757   2.805   0.377  13.098 -1.6204 -0.7112 -0.7627
 4448TIP3   OH234758   0.516   6.062   1.322 -0.3540  0.2644  1.0248
 4448TIP3    H134759   0.428   6.036   1.347 -0.6715  1.3783  1.1554
 4448TIP3    H234760   0.508   6.091   1.231 -0.2073  0.6949  1.1433
 4449TIP3   OH234761   1.402   0.221  15.018  0.0515  0.1684 -0.1518
 4449TIP3    H134762   1.404   0.241  15.111  1.7467  2.9297 -0.6714
 4449TIP3    H234763   1.377   0.304  14.976 -1.4664 -1.1919 -2.1591
 4450TIP3   OH234764   2.935   2.881  14.088  0.3866  0.4508  0.4356
 4450TIP3    H134765   2.846   2.913  14.077  0.5906  1.0170  0.4125
 4450TIP3    H234766   2.928   2.786  14.074  0.0968  0.7189 -1.5083
 4451TIP3   OH234767   0.178   5.713   1.468  0.4076  0.0682  0.1067
 4451TIP3    H134768   0.169   5.734   1.561 -0.7212 -1.0623  0.2838
 4451TIP3    H234769   0.155   5.794   1.422  3.2233  1.3576  0.7803
 4452TIP3   OH234770   1.263   5.789   3.830  0.1473  0.4973 -0.7545
 4452TIP3    H134771   1.350   5.749   3.836  1.2671  2.5667 -2.0748
 4452TIP3    H234772   1.214   5.729   3.774  0.8220 -0.5273 -0.2845
 4453TIP3   OH234773   3.049   0.951  12.014  0.0453  0.1291 -0.3442
 4453TIP3    H134774   3.047   0.895  12.091 -0.1944 -0.5479 -0.8289
 4453TIP3    H234775   3.064   1.039  12.048 -1.3251  0.0367  0.5809
 4454TIP3   OH234776   4.896   0.374  13.794  0.5779  0.8000  0.0518
 4454TIP3    H134777   4.964   0.313  13.821  0.6801  0.4056 -1.0286
 4454TIP3    H234778   4.912   0.453  13.846  2.3062  0.9747 -0.6541
 4455TIP3   OH234779   5.102   1.636   5.178 -0.0997  0.3370 -0.4830
 4455TIP3    H134780   5.063   1.556   5.215 -0.4831 -0.1649 -1.8889
 4455TIP3    H234781   5.170   1.660   5.239  1.3194 -2.1638 -0.9185
 4456TIP3   OH234782   5.597   5.322   4.434  0.3497  0.1866 -0.3567
 4456TIP3    H134783   5.577   5.292   4.345 -0.9723  0.5303 -0.1933
 4456TIP3    H234784   5.620   5.242   4.482  0.5708 -0.0633 -0.8771
 4457TIP3   OH234785   3.244   6.439   6.046  0.3740  0.4218  0.4886
 4457TIP3    H134786   3.235   6.411   5.954  0.8296 -0.2328  0.6354
 4457TIP3    H234787   3.160   6.481   6.066 -0.1604 -0.4149  0.0968
 4458TIP3   OH234788   6.568   5.752  12.044  0.2714  0.4634  0.2221
 4458TIP3    H134789   6.596   5.837  12.011 -0.1489  0.1635 -0.9271
 4458TIP3    H234790   6.504   5.721  11.981  0.5609 -0.8012  0.5194
 4459TIP3   OH234791   0.403   5.959   2.367  0.5224  0.0271 -0.5564
 4459TIP3    H134792   0.477   6.002   2.409  1.4700 -1.0522 -1.1026
 4459TIP3    H234793   0.364   6.027   2.312 -0.8814  1.5557  2.1106
 4460TIP3   OH234794   2.772   1.880  16.725 -0.9823 -0.7667  0.1558
 4460TIP3    H134795   2.779   1.843  16.638 -0.6301 -2.0367  0.7062
 4460TIP3    H234796   2.678   1.884  16.743 -1.0037 -2.7297  0.6253
 4461TIP3   OH234797   0.851   0.664  16.425 -0.5606 -0.2690 -0.6032
 4461TIP3    H134798   0.892   0.746  16.450  1.4357 -1.3126 -0.2953
 4461TIP3    H234799   0.865   0.606  16.500  0.2871 -1.6295 -1.7687
 4462TIP3   OH234800   1.541   5.119  15.692 -0.2238  0.1855 -0.0027
 4462TIP3    H134801   1.627   5.153  15.668 -0.5720  1.3832  0.3995
 4462TIP3    H234802   1.559   5.059  15.765  0.3818 -0.4555 -0.6653
 4463TIP3   OH234803   0.034   1.616   0.007  0.2029  0.6609 -0.2896
 4463TIP3    H134804   0.063   1.565  -0.069  1.7296  0.8581  0.1293
 4463TIP3    H234805  -0.036   1.564   0.045  1.4467 -0.9559 -0.1043
 4464TIP3   OH234806   2.598   2.959   3.348 -0.3164 -0.0306 -0.4871
 4464TIP3    H134807   2.627   2.899   3.417 -0.3388  0.5889  0.0651
 4464TIP3    H234808   2.676   3.008   3.324 -1.0091  2.2756  1.6326
 4465TIP3   OH234809   2.047   6.654   2.692 -0.5479 -0.4519 -0.7236
 4465TIP3    H134810   1.978   6.609   2.741 -2.1154 -1.0547 -3.2511
 4465TIP3    H234811   2.109   6.585   2.670  1.5378  0.2489  2.3442
 4466TIP3   OH234812   1.419   0.825   5.470 -0.1512  0.2153 -0.0282
 4466TIP3    H134813   1.389   0.860   5.554  1.7850  0.2370  0.7050
 4466TIP3    H234814   1.424   0.731   5.484 -0.0005  0.2008 -0.1798
 4467TIP3   OH234815   3.539   2.395   3.449  0.5377  0.1947  0.3390
 4467TIP3    H134816   3.593   2.316   3.436  0.6650  0.3214  0.0937
 4467TIP3    H234817   3.457   2.362   3.484 -0.6373 -0.4117 -2.6576
 4468TIP3   OH234818   6.454   4.275  16.651  0.3876  0.2959 -0.5917
 4468TIP3    H134819   6.538   4.321  16.641  0.0895  1.0819  0.3445
 4468TIP3    H234820   6.467   4.218  16.727 -0.0370  0.6855 -0.2248
 4469TIP3   OH234821   1.783   0.756   4.405  0.1234  0.1983 -0.2298
 4469TIP3    H134822   1.745   0.810   4.474  0.9339  0.0843  0.3286
 4469TIP3    H234823   1.746   0.669   4.419 -1.8899  0.7431 -1.6832
 4470TIP3   OH234824   3.019   1.028  15.236  0.0285  0.0846  0.4211
 4470TIP3    H134825   3.088   0.971  15.201  0.8375  1.1549  0.2316
 4470TIP3    H234826   3.015   1.006  15.329  0.3246 -0.2840  0.3503
 4471TIP3   OH234827   5.183   6.716  11.476  0.2690  0.5225 -0.1813
 4471TIP3    H134828   5.170   6.622  11.462  0.7201  0.4726 -0.2833
 4471TIP3    H234829   5.238   6.744  11.403  1.9566  0.4310  1.0003
 4472TIP3   OH234830   6.341   3.493   1.232 -0.1716  0.3355  0.1111
 4472TIP3    H134831   6.389   3.571   1.258 -0.3430  1.4251 -2.5496
 4472TIP3    H234832   6.399   3.448   1.170 -0.2511 -1.4682  1.2637
 4473TIP3   OH234833   3.178   6.337  15.596  0.0416  0.4549  0.7034
 4473TIP3    H134834   3.217   6.254  15.625 -0.4158  0.7769  2.3205
 4473TIP3    H234835   3.246   6.402  15.611  0.3840  0.4083 -0.5276
 4474TIP3   OH234836   2.047   4.912   5.742  0.2270  0.0239  0.4951
 4474TIP3    H134837   1.970   4.957   5.778 -1.2620 -0.5945 -1.7215
 4474TIP3    H234838   2.121   4.965   5.770 -1.0369  1.0308  2.1360
 4475TIP3   OH234839   3.412   6.702   5.467  0.1222 -0.2458  0.7944
 4475TIP3    H134840   3.455   6.778   5.428 -0.7295 -0.0938  0.1342
 4475TIP3    H234841   3.320   6.727   5.473 -0.5964 -2.0048 -1.4839
 4476TIP3   OH234842   4.549   4.361  11.971 -0.0514  0.2921 -0.1543
 4476TIP3    H134843   4.470   4.335  12.017 -0.6612  2.2532  0.0053
 4476TIP3    H234844   4.519   4.391  11.885  0.6131  0.3427 -0.3792
 4477TIP3   OH234845   3.066   3.212   1.829 -0.0098  0.4225 -0.1235
 4477TIP3    H134846   3.031   3.126   1.807  0.7724 -0.3944  1.6340
 4477TIP3    H234847   3.007   3.246   1.896  0.8049  0.3389  0.6634
 4478TIP3   OH234848   4.936   6.621  11.568  0.3254 -0.0807  0.3930
 4478TIP3    H134849   5.021   6.643  11.604 -0.2652 -0.8477  2.4680
 4478TIP3    H234850   4.919   6.532  11.601 -1.2629  0.0657  0.0670
 4479TIP3   OH234851   3.608   4.874   5.432  0.2813  0.0347 -0.5014
 4479TIP3    H134852   3.535   4.860   5.372  1.0943 -1.0677 -1.2641
 4479TIP3    H234853   3.581   4.950   5.484 -1.6050 -0.6020 -0.4489
 4480TIP3   OH234854   5.067   0.770  16.444 -0.1919 -0.3608 -0.1940
 4480TIP3    H134855   5.076   0.718  16.365 -1.9614 -2.0969  0.6590
 4480TIP3    H234856   5.083   0.708  16.515  0.9312  1.0554  0.8347
 4481TIP3   OH234857   1.127   4.608  16.232 -0.2066  0.2105  0.6224
 4481TIP3    H134858   1.165   4.530  16.272  1.4815  1.2282  1.1287
 4481TIP3    H234859   1.060   4.637  16.294 -0.2215 -0.3474  0.8659
 4482TIP3   OH234860   4.803   2.523   4.156  0.2907  0.3416  0.0989
 4482TIP3    H134861   4.788   2.454   4.221 -0.7496 -0.2169 -0.7037
 4482TIP3    H234862   4.782   2.481   4.072  0.7662  1.3050 -0.5113
 4483TIP3   OH234863   2.898   2.248   4.973  0.3192 -0.0922  0.2386
 4483TIP3    H134864   2.860   2.161   4.967  0.7476 -0.2578 -0.1518
 4483TIP3    H234865   2.860   2.286   5.052  0.4462 -0.7916  0.6388
 4484TIP3   OH234866   2.588   1.540   0.701 -0.0349  0.4647  0.5720
 4484TIP3    H134867   2.493   1.526   0.709  0.2912 -1.4793  1.3510
 4484TIP3    H234868   2.607   1.609   0.765 -0.6435 -0.4738  1.7930
 4485TIP3   OH234869   3.671   3.028   0.561  0.0871 -0.7150  0.2510
 4485TIP3    H134870   3.624   3.011   0.642  1.4841 -1.0507  1.0336
 4485TIP3    H234871   3.613   3.085   0.510 -1.0165 -0.9006  1.2674
 4486TIP3   OH234872   1.386   5.810   3.288  0.3244 -0.3744 -0.0976
 4486TIP3    H134873   1.478   5.803   3.315  0.8826 -2.2042 -2.1673
 4486TIP3    H234874   1.340   5.837   3.367  2.1436 -2.9570  2.0587
 4487TIP3   OH234875   4.065   5.737  15.198 -0.4004  0.0730 -0.1457
 4487TIP3    H134876   4.086   5.765  15.109  0.0195 -0.5878 -0.2634
 4487TIP3    H234877   4.021   5.653  15.187 -1.9138  0.7821  0.1824
 4488TIP3   OH234878   1.248   3.407  15.106 -0.1264  0.0305  0.2031
 4488TIP3    H134879   1.245   3.367  15.193 -0.3623  1.5061  0.9060
 4488TIP3    H234880   1.331   3.456  15.105 -0.2278  0.1978 -0.3192
 4489TIP3   OH234881   5.673   0.630   5.574 -0.3267 -0.1016 -0.1891
 4489TIP3    H134882   5.664   0.555   5.634 -0.9289  0.4359  0.4112
 4489TIP3    H234883   5.735   0.600   5.508 -0.9378 -1.3196 -0.2508
 4490TIP3   OH234884   0.657   5.104  12.934 -0.4243  0.1839  0.1301
 4490TIP3    H134885   0.739   5.055  12.924  0.5947  1.9264 -0.4926
 4490TIP3    H234886   0.610   5.090  12.852  0.1346  0.7268 -0.2845
 4491TIP3   OH234887   1.818   0.666  11.679 -0.0243 -0.6984  0.4015
 4491TIP3    H134888   1.792   0.619  11.600  0.5462  0.7261 -0.6692
 4491TIP3    H234889   1.902   0.706  11.657 -0.8274  1.4395  0.9692
 4492TIP3   OH234890   2.802   1.977   1.089  0.2251 -0.0325  0.0197
 4492TIP3    H134891   2.834   1.890   1.066 -1.0295  0.0072 -2.1108
 4492TIP3    H234892   2.708   1.973   1.073  0.0208  1.4783  0.7107
 4493TIP3   OH234893   6.494   5.622  16.980  0.1511  0.0298  0.0372
 4493TIP3    H134894   6.461   5.646  16.893 -1.7729  0.9614  0.9732
 4493TIP3    H234895   6.431   5.559  17.013  1.8878 -1.7790  0.0691
 4494TIP3   OH234896   5.888   0.331  10.863 -0.1130 -0.4482 -0.1085
 4494TIP3    H134897   5.841   0.347  10.781 -1.4218 -1.2741  0.4656
 4494TIP3    H234898   5.897   0.418  10.903 -1.5021 -0.3178 -0.0495
 4495TIP3   OH234899   3.718   0.439  17.112  0.0904 -0.2466  0.1733
 4495TIP3    H134900   3.649   0.405  17.168 -0.4861 -0.6685 -0.7640
 4495TIP3    H234901   3.703   0.534  17.110  0.7147 -0.1015  1.4926
 4496TIP3   OH234902   2.945   5.573   5.904  0.3911  0.6752 -0.2944
 4496TIP3    H134903   2.995   5.607   5.979  0.4997  0.1509 -0.1242
 4496TIP3    H234904   2.936   5.648   5.845 -0.2611  1.2700  0.5354
 4497TIP3   OH234905   4.936   2.671  11.294 -0.2438  0.0606  0.3661
 4497TIP3    H134906   4.959   2.764  11.295  0.3729 -0.0927  0.5536
 4497TIP3    H234907   4.856   2.667  11.242 -0.3363  0.7111  0.4469
 4498TIP3   OH234908   3.906   1.831   6.078 -0.2688  0.0830  0.7811
 4498TIP3    H134909   3.991   1.811   6.037 -0.5274  1.1655 -0.3548
 4498TIP3    H234910   3.860   1.747   6.078  0.8649 -0.5713  1.6195
 4499TIP3   OH234911   5.254   0.718  12.532  0.0310 -0.1236 -0.3239
 4499TIP3    H134912   5.205   0.715  12.614 -1.0272 -0.0091 -0.9482
 4499TIP3    H234913   5.221   0.794  12.486  2.1552  1.1174  0.0653
 4500TIP3   OH234914   3.600   0.002   1.444 -0.0804 -0.6353  0.1281
 4500TIP3    H134915   3.665   0.067   1.415  0.0794 -2.1957 -3.5200
 4500TIP3    H234916   3.652  -0.066   1.486 -0.0026  0.3957  1.8038
 4501TIP3   OH234917   2.470   0.162  11.755  0.6710  0.0816 -0.0447
 4501TIP3    H134918   2.540   0.120  11.805  1.1042 -0.2669 -0.9237
 4501TIP3    H234919   2.392   0.109  11.773  0.9485 -0.3763 -0.1936
 4502TIP3   OH234920   5.204   1.652  13.012 -0.5597 -0.1326 -0.0121
 4502TIP3    H134921   5.240   1.602  12.938 -0.9864 -0.5857  0.0823
 4502TIP3    H234922   5.211   1.593  13.086  0.3412  0.5056  0.4273
 4503TIP3   OH234923   0.230   6.614  13.558  0.0590  0.5821  0.3690
 4503TIP3    H134924   0.165   6.544  13.562  1.0898 -0.4651 -0.5063
 4503TIP3    H234925   0.214   6.656  13.474 -0.1779  1.0315  0.6352
 4504TIP3   OH234926   0.791   6.556   1.931  0.4251  0.4937 -0.5687
 4504TIP3    H134927   0.722   6.620   1.913  0.3677  0.5445 -0.1668
 4504TIP3    H234928   0.823   6.578   2.019 -0.9565 -1.2420  0.4262
 4505TIP3   OH234929   4.156   2.679   0.767 -0.1080  0.5968  0.5874
 4505TIP3    H134930   4.075   2.672   0.716 -1.1727  1.2969  2.1090
 4505TIP3    H234931   4.226   2.682   0.702 -1.1605 -1.4590 -0.7612
 4506TIP3   OH234932   5.060   4.396  14.965 -0.1298 -0.0314 -0.2416
 4506TIP3    H134933   5.003   4.320  14.956 -0.8274  0.2131  1.7571
 4506TIP3    H234934   5.002   4.471  14.954  0.6121  0.2969 -2.5534
 4507TIP3   OH234935   2.111   0.074  15.137  0.1172  0.1750  0.0177
 4507TIP3    H134936   2.032   0.089  15.189 -0.1875  0.6543 -0.5720
 4507TIP3    H234937   2.146   0.162  15.121 -0.6004  0.1799 -1.8004
 4508TIP3   OH234938   3.554   2.894   4.756 -0.0652  0.0009 -0.3784
 4508TIP3    H134939   3.540   2.866   4.665 -0.2555  0.1203 -0.3864
 4508TIP3    H234940   3.493   2.842   4.807  1.5180 -1.6312 -0.0489
 4509TIP3   OH234941   0.350   3.125   1.759 -0.2469 -0.1877  0.0039
 4509TIP3    H134942   0.280   3.112   1.823  0.3180 -0.7187  0.5262
 4509TIP3    H234943   0.350   3.045   1.707 -0.0882 -0.1595 -0.0413
 4510TIP3   OH234944   5.878   3.962  13.306  0.0031 -0.3878  0.0790
 4510TIP3    H134945   5.873   3.897  13.237 -1.1984  1.4844 -1.7237
 4510TIP3    H234946   5.790   4.000  13.309  0.9161  1.8449  0.2954
 4511TIP3   OH234947   1.945   0.874  14.572 -0.1543 -0.0388 -0.2451
 4511TIP3    H134948   1.911   0.788  14.545 -0.4192  0.1931 -0.6747
 4511TIP3    H234949   1.877   0.909  14.630 -0.0103 -0.1505 -0.0073
 4512TIP3   OH234950   5.549   0.517   6.178 -0.0210  0.1556 -0.2109
 4512TIP3    H134951   5.528   0.433   6.218 -1.1452 -0.0462 -1.1589
 4512TIP3    H234952   5.464   0.554   6.152  0.5253  1.1065 -0.7386
 4513TIP3   OH234953   6.178   2.407   3.061  0.5941  0.1884 -0.1057
 4513TIP3    H134954   6.222   2.420   2.977 -0.0174  0.9807 -0.3146
 4513TIP3    H234955   6.184   2.312   3.077  2.0336  0.2303 -0.2925
 4514TIP3   OH234956   0.068   2.249  17.086  0.2213  0.3088 -0.6814
 4514TIP3    H134957   0.040   2.295  17.007 -0.0455  0.5451 -0.4527
 4514TIP3    H234958  -0.008   2.196  17.110  0.2626  0.3244 -0.5198
 4515TIP3   OH234959   3.571   2.806   4.482  0.1755 -0.2638  0.1300
 4515TIP3    H134960   3.492   2.835   4.436 -1.3981 -2.5132  1.2464
 4515TIP3    H234961   3.641   2.820   4.419 -1.2858  0.5284 -1.4184
 4516TIP3   OH234962   4.234   4.972   1.874 -0.1034 -0.2140 -0.0513
 4516TIP3    H134963   4.304   4.908   1.863  1.4359  1.2947  0.6932
 4516TIP3    H234964   4.261   5.047   1.821 -1.8315 -0.0739 -0.8294
 4517TIP3   OH234965   2.421   5.705   1.049 -0.4553  0.1768 -0.7949
 4517TIP3    H134966   2.468   5.679   0.969  0.6948  0.2069 -0.1445
 4517TIP3    H234967   2.396   5.623   1.090  1.8707  0.0223  0.4900
 4518TIP3   OH234968   2.972   0.159   6.458 -0.0300  0.0370  0.0948
 4518TIP3    H134969   2.921   0.147   6.379 -0.2113  0.6038  0.1247
 4518TIP3    H234970   2.973   0.254   6.473  0.2936 -0.0348  0.5739
 4519TIP3   OH234971   5.429   4.215   4.997  0.2639 -0.5137  0.0198
 4519TIP3    H134972   5.523   4.230   4.993  0.5483 -1.6293  1.6141
 4519TIP3    H234973   5.420   4.120   5.008 -1.1917 -0.8632 -2.9984
 4520TIP3   OH234974   0.566   4.975   2.394 -0.0742  0.4026 -0.2742
 4520TIP3    H134975   0.577   5.023   2.312 -2.3123  1.1948 -0.1786
 4520TIP3    H234976   0.610   4.891   2.379  0.8429  1.1043 -1.7164
 4521TIP3   OH234977   3.364   3.079   2.122 -0.1727 -0.4625 -0.1487
 4521TIP3    H134978   3.274   3.049   2.113 -0.4101  0.5049 -1.2667
 4521TIP3    H234979   3.356   3.172   2.145  0.5450 -0.4437  0.0600
 4522TIP3   OH234980   6.695   6.213   2.086  0.4910  0.0988  0.0796
 4522TIP3    H134981   6.697   6.233   1.993 -0.0732 -1.0633 -0.1974
 4522TIP3    H234982   6.763   6.269   2.124  0.6899  0.6192 -1.0142
 4523TIP3   OH234983   4.719   1.016   3.087 -0.1844  0.1592  0.4682
 4523TIP3    H134984   4.796   0.959   3.079 -0.0194  0.3685  0.5648
 4523TIP3    H234985   4.645   0.957   3.077 -0.0123  0.1576 -1.1625
 4524TIP3   OH234986   3.002   6.438   1.503  0.0156  0.0170  0.2577
 4524TIP3    H134987   3.076   6.382   1.479 -0.1258  0.2435 -0.7593
 4524TIP3    H234988   2.925   6.387   1.476 -0.1741  0.0755  0.6839
 4525TIP3   OH234989   4.904   2.016   4.228  0.1998 -0.1664  0.3685
 4525TIP3    H134990   4.973   2.058   4.278 -0.5775  0.3955  1.0095
 4525TIP3    H234991   4.941   2.004   4.140  1.0162  0.3381  0.6374
 4526TIP3   OH234992   2.386   0.833  11.858  0.2662  0.3804 -0.4513
 4526TIP3    H134993   2.389   0.776  11.781  0.1532  1.9508 -1.6761
 4526TIP3    H234994   2.478   0.855  11.875  0.2468  0.5064 -0.5075
 4527TIP3   OH234995   5.885   2.862  13.963  0.5603  0.4150  0.0709
 4527TIP3    H134996   5.933   2.938  13.996 -1.8774  1.0896  2.3874
 4527TIP3    H234997   5.838   2.895  13.887  0.6436  0.8309  0.1984
 4528TIP3   OH234998   4.280   4.026  16.846 -0.1391  0.7290  0.4739
 4528TIP3    H134999   4.263   4.035  16.940  1.9971  0.1557  0.9690
 4528TIP3    H235000   4.293   3.932  16.832 -2.0660  0.5827 -0.7588
 4529TIP3   OH235001   1.482   0.639   1.564 -0.0124 -0.7072  0.4129
 4529TIP3    H135002   1.503   0.595   1.647 -0.4312  0.5502  1.2165
 4529TIP3    H235003   1.435   0.572   1.513 -1.6004 -0.9216  2.0322
 4530TIP3   OH235004   5.351   3.255   4.501  0.0349  0.1658 -0.5843
 4530TIP3    H135005   5.382   3.299   4.580 -1.1071  0.0785 -0.0740
 4530TIP3    H235006   5.397   3.171   4.501  0.1222  0.2116 -0.0757
 4531TIP3   OH235007   4.578   6.212  16.707 -0.1351 -0.0538 -0.3766
 4531TIP3    H135008   4.491   6.184  16.734 -0.4880  0.4637 -0.9589
 4531TIP3    H235009   4.615   6.255  16.784 -0.0930 -0.9401  0.1100
 4532TIP3   OH235010   6.045   5.742  13.724  0.2444 -0.4397 -0.6817
 4532TIP3    H135011   6.098   5.807  13.768  0.1728 -0.3492 -0.7277
 4532TIP3    H235012   6.062   5.755  13.631 -0.6665  0.3064 -0.7628
 4533TIP3   OH235013   4.198   0.466  11.927 -0.2959 -0.6125  0.6025
 4533TIP3    H135014   4.206   0.557  11.956  0.4319 -0.9686  1.5593
 4533TIP3    H235015   4.152   0.472  11.843 -1.4905  0.5381  1.3015
 4534TIP3   OH235016   4.713   4.610   6.153  0.1015  0.3457  0.4114
 4534TIP3    H135017   4.780   4.620   6.221  0.5473 -0.2942  0.0759
 4534TIP3    H235018   4.735   4.677   6.088 -0.0157  0.6142  0.6475
 4535TIP3   OH235019   0.595   2.774   3.404  0.0500 -0.1760 -0.2052
 4535TIP3    H135020   0.528   2.799   3.467 -1.7448 -1.7617 -1.3851
 4535TIP3    H235021   0.569   2.687   3.375  1.7399 -0.1607 -1.9254
 4536TIP3   OH235022   6.400   0.710  13.833 -0.2768 -0.1210 -0.3621
 4536TIP3    H135023   6.454   0.789  13.837 -0.2841 -0.1496  0.5948
 4536TIP3    H235024   6.417   0.674  13.746  1.6989 -0.4507  0.1250
 4537TIP3   OH235025   0.131   4.781   4.973  0.3086  0.2909 -0.4976
 4537TIP3    H135026   0.039   4.789   4.996  0.2133  0.5456 -0.9598
 4537TIP3    H235027   0.173   4.858   5.010  0.6532 -0.6806  1.2191
 4538TIP3   OH235028   4.605   0.670   2.095  0.0667  0.3244  0.1099
 4538TIP3    H135029   4.679   0.715   2.135  0.4526  0.5257 -0.8088
 4538TIP3    H235030   4.587   0.721   2.016 -0.6825 -0.0646  0.0231
 4539TIP3   OH235031   1.500   6.381  15.388  0.3166  0.5692  0.2637
 4539TIP3    H135032   1.514   6.396  15.294 -0.2905 -0.5250 -0.0241
 4539TIP3    H235033   1.410   6.407  15.404 -0.2543 -1.1618  0.0750
 4540TIP3   OH235034   5.951   6.384  15.764 -0.5687 -0.2053 -0.5368
 4540TIP3    H135035   5.904   6.460  15.799  0.8171  0.2026  0.5280
 4540TIP3    H235036   5.956   6.400  15.670  0.1578  1.3153 -0.2690
 4541TIP3   OH235037   0.010   5.741  13.758  0.0201 -0.7274 -0.1712
 4541TIP3    H135038  -0.065   5.748  13.816  0.5336  2.5372  0.2786
 4541TIP3    H235039   0.086   5.750  13.816  0.6018 -0.0050 -1.0182
 4542TIP3   OH235040   3.487   6.452  12.024 -0.1080 -0.3754  0.1109
 4542TIP3    H135041   3.449   6.531  11.987 -0.2237 -0.0898  0.8375
 4542TIP3    H235042   3.539   6.415  11.952  1.1697  1.1436  0.1778
 4543TIP3   OH235043   6.165   5.958   3.403  0.1373 -0.5746  0.1804
 4543TIP3    H135044   6.096   5.959   3.469 -1.3552 -2.4456 -1.2380
 4543TIP3    H235045   6.246   5.949   3.454 -0.8785 -1.0342  1.8046
 4544TIP3   OH235046   2.932   4.556  14.214  0.3148  0.1478  0.1553
 4544TIP3    H135047   2.842   4.526  14.204 -0.7114  3.1399 -0.5448
 4544TIP3    H235048   2.939   4.580  14.307  0.5294 -0.4114  0.2885
 4545TIP3   OH235049   5.874   6.158   4.405 -0.1050  0.9346  0.3537
 4545TIP3    H135050   5.801   6.180   4.464 -0.7854  0.6502 -0.3590
 4545TIP3    H235051   5.836   6.094   4.344  0.2201  2.1390 -1.1568
 4546TIP3   OH235052   4.685   2.062   1.181 -0.0385  0.2388  0.3073
 4546TIP3    H135053   4.599   2.091   1.210 -0.3485 -0.9587  0.6603
 4546TIP3    H235054   4.667   1.997   1.112  0.6515  1.9304 -1.5756
 4547TIP3   OH235055   0.677   4.935   5.617  0.4913  1.3872 -0.0670
 4547TIP3    H135056   0.729   5.014   5.631  2.4330  0.1212  0.3391
 4547TIP3    H235057   0.742   4.865   5.614 -1.2648 -0.3755  1.0091
 4548TIP3   OH235058   5.697   1.272  12.760 -0.9196 -0.0623  0.6842
 4548TIP3    H135059   5.638   1.315  12.822  1.1978  0.6284  2.3460
 4548TIP3    H235060   5.745   1.344  12.720  0.7566 -0.7023  1.4738
 4549TIP3   OH235061   0.945   3.568  16.115  0.2712 -0.0712  0.6881
 4549TIP3    H135062   0.924   3.528  16.200 -0.3506 -2.2158 -0.4139
 4549TIP3    H235063   0.861   3.601  16.083  0.2169 -0.6407  0.2352
 4550TIP3   OH235064   4.058   5.447  13.102 -0.4928 -0.1725  0.0897
 4550TIP3    H135065   4.138   5.405  13.133 -1.0908  0.1845  2.2333
 4550TIP3    H235066   3.998   5.374  13.084  0.5958 -0.5314 -2.7070
 4551TIP3   OH235067   6.491   3.646  13.502  0.0655 -0.1939 -0.4325
 4551TIP3    H135068   6.450   3.714  13.448 -0.8905  0.0493  0.5660
 4551TIP3    H235069   6.579   3.678  13.518  0.4708 -0.3907 -2.0311
 4552TIP3   OH235070   0.823   4.199   3.362  0.3442 -0.1198 -0.6449
 4552TIP3    H135071   0.886   4.185   3.432 -0.8289  0.7388  0.6252
 4552TIP3    H235072   0.746   4.149   3.388 -1.1323  2.4268  0.1536
 4553TIP3   OH235073   3.026   2.346  14.115  0.1425  0.2543 -0.3152
 4553TIP3    H135074   3.108   2.295  14.108  0.0449  0.1692 -0.8385
 4553TIP3    H235075   2.964   2.285  14.155 -0.4539 -0.6363 -2.4403
 4554TIP3   OH235076   5.615   2.481  12.886 -0.5258  0.0652  0.0442
 4554TIP3    H135077   5.620   2.553  12.823 -4.9343  0.6478  0.0976
 4554TIP3    H235078   5.618   2.402  12.832 -0.5371  0.4301 -0.5006
 4555TIP3   OH235079   0.272   1.560   5.027 -0.3673  0.5849  0.4490
 4555TIP3    H135080   0.210   1.631   5.043 -1.6166 -0.4555  0.4209
 4555TIP3    H235081   0.260   1.538   4.935 -1.1644 -0.6697  0.8106
 4556TIP3   OH235082   5.927   4.949  11.791 -0.0886 -0.0438 -0.1395
 4556TIP3    H135083   5.939   4.874  11.850 -1.0541 -0.5357 -0.5457
 4556TIP3    H235084   5.983   4.929  11.716  0.8365  0.3937  0.4163
 4557TIP3   OH235085   1.003   6.149   1.038  0.1785  0.1841  0.1441
 4557TIP3    H135086   1.081   6.120   1.085  1.1006  0.2925 -1.2327
 4557TIP3    H235087   0.951   6.070   1.024  0.8538 -0.1799 -0.3514
 4558TIP3   OH235088   5.734   0.661   1.399 -0.8821  0.1552  0.3046
 4558TIP3    H135089   5.704   0.571   1.411 -0.7732  0.2414  1.2683
 4558TIP3    H235090   5.755   0.666   1.305 -0.7024 -0.8722  0.2714
 4559TIP3   OH235091   3.055   5.318  15.210  0.2178 -0.1695 -0.0482
 4559TIP3    H135092   3.114   5.263  15.262  0.5694  0.8285  0.6329
 4559TIP3    H235093   3.062   5.283  15.121  0.6583 -1.0286  0.3115
 4560TIP3   OH235094   5.002   1.084  14.539  0.3043 -0.6719  0.3609
 4560TIP3    H135095   4.964   1.012  14.489 -0.5598 -0.2750  0.4200
 4560TIP3    H235096   4.961   1.162  14.502 -1.3765 -0.4454  2.5236
 4561TIP3   OH235097   6.441   1.910   3.206 -0.6056  0.1553 -0.2810
 4561TIP3    H135098   6.350   1.888   3.226 -0.7685  0.1461 -0.9820
 4561TIP3    H235099   6.477   1.943   3.288 -1.0500 -0.4694  0.1674
 4562TIP3   OH235100   2.699   3.484  14.773 -0.0950 -1.0160  0.5469
 4562TIP3    H135101   2.792   3.502  14.761  0.1144 -3.2796 -2.3339
 4562TIP3    H235102   2.691   3.461  14.866  1.9927  0.1452  1.0827
 4563TIP3   OH235103   3.321   4.704   4.239 -0.5902  0.0035  0.4704
 4563TIP3    H135104   3.412   4.679   4.256 -0.6357  0.1957  0.9943
 4563TIP3    H235105   3.314   4.794   4.269 -0.9578 -0.0117  0.4371
 4564TIP3   OH235106   2.229   5.093   5.832 -0.3270 -0.0857 -0.4500
 4564TIP3    H135107   2.186   5.172   5.800  0.8333  0.8865  0.2959
 4564TIP3    H235108   2.231   5.103   5.927 -1.1386 -1.5602 -0.2333
 4565TIP3   OH235109   0.465   2.128  11.982  0.1401 -0.2234 -0.2440
 4565TIP3    H135110   0.375   2.161  11.985  0.5060  0.8939  3.1028
 4565TIP3    H235111   0.467   2.061  12.050  1.2653 -2.0756 -2.0365
 4566TIP3   OH235112   5.218   3.115  13.748 -0.0204  0.6260  0.2983
 4566TIP3    H135113   5.270   3.180  13.795 -0.0032  0.5439  0.3952
 4566TIP3    H235114   5.277   3.080  13.681 -0.7067  2.3112 -1.2563
 4567TIP3   OH235115   5.523   5.971   4.456  0.8094  0.2569 -0.1472
 4567TIP3    H135116   5.503   5.996   4.546  0.8628 -0.9604  0.2250
 4567TIP3    H235117   5.442   5.988   4.408  0.9191  1.3342  0.0204
 4568TIP3   OH235118   2.541   0.598  12.429  0.2195 -0.2077  0.3532
 4568TIP3    H135119   2.587   0.521  12.396 -0.8563 -0.9014  0.4249
 4568TIP3    H235120   2.478   0.621  12.361 -1.6066 -1.2935  1.5796
 4569TIP3   OH235121   4.710   0.150   4.395  0.2609  0.6956 -0.7456
 4569TIP3    H135122   4.623   0.172   4.361  0.4320  1.2641 -0.8122
 4569TIP3    H235123   4.705   0.170   4.489 -0.9942 -3.0834  0.2078
 4570TIP3   OH235124   5.827   1.064  11.038  0.7474 -0.2157  0.8490
 4570TIP3    H135125   5.903   1.121  11.049  0.9290 -0.6429  1.8771
 4570TIP3    H235126   5.857   0.994  10.980  2.0286 -1.9078  3.3819
 4571TIP3   OH235127   2.795   0.603  17.245  0.4041 -0.0110 -0.3977
 4571TIP3    H135128   2.859   0.587  17.314 -0.7900 -0.7454  0.5544
 4571TIP3    H235129   2.711   0.574  17.281 -0.3145 -0.0606 -2.0070
 4572TIP3   OH235130   2.781   2.778  13.461 -0.2144 -0.4038 -0.1752
 4572TIP3    H135131   2.699   2.800  13.505  1.5213  1.8215  2.2789
 4572TIP3    H235132   2.824   2.862  13.445  0.7188 -1.3524 -3.3929
 4573TIP3   OH235133   0.054   0.575   4.136 -0.0967 -0.1188 -0.2340
 4573TIP3    H135134   0.026   0.657   4.096  1.9146  1.1058  0.6766
 4573TIP3    H235135   0.026   0.583   4.227 -0.3592 -0.6980 -0.2630
 4574TIP3   OH235136   6.128   6.558  16.380 -0.2800 -0.1074  0.0315
 4574TIP3    H135137   6.090   6.602  16.304  0.2715 -0.2933 -0.3591
 4574TIP3    H235138   6.142   6.467  16.351  0.8374  0.0491  0.0165
 4575TIP3   OH235139   6.495   1.653   5.355  0.0199 -0.1785  0.0446
 4575TIP3    H135140   6.554   1.705   5.409  0.3828 -0.3037 -0.2236
 4575TIP3    H235141   6.541   1.570   5.343  1.1423  0.7052 -2.5472
 4576TIP3   OH235142   5.248   2.611   3.344 -0.0567  0.0255 -0.3596
 4576TIP3    H135143   5.204   2.542   3.295  0.2267  1.0547 -2.1527
 4576TIP3    H235144   5.218   2.692   3.303  1.5715  0.8639  0.0058
 4577TIP3   OH235145   5.987   3.615   3.786  0.5793 -0.1264 -0.6592
 4577TIP3    H135146   5.916   3.636   3.846 -0.7920 -1.5647 -1.7071
 4577TIP3    H235147   6.062   3.596   3.843  0.0199  0.9409  0.4727
 4578TIP3   OH235148   0.799   1.049  10.497 -0.9347  0.7601 -0.1957
 4578TIP3    H135149   0.785   1.143  10.487  0.8949  0.9300 -1.8406
 4578TIP3    H235150   0.882   1.032  10.452 -1.8509 -1.8455 -1.1328
 4579TIP3   OH235151   1.985   3.827  11.646 -0.5258  0.0551 -0.5789
 4579TIP3    H135152   2.049   3.813  11.576  2.0395  1.4797  1.3459
 4579TIP3    H235153   2.034   3.811  11.727 -2.7621  0.6816  0.9819
 4580TIP3   OH235154   2.095   6.528  16.670 -0.5430 -0.5044  0.7567
 4580TIP3    H135155   2.112   6.435  16.659  0.8034 -0.1805 -0.3524
 4580TIP3    H235156   2.164   6.558  16.729  0.2747  0.0886 -0.4307
 4581TIP3   OH235157   0.603   0.349  12.732 -0.3406 -0.5113  0.6663
 4581TIP3    H135158   0.638   0.438  12.731  1.0266 -1.0139 -1.3373
 4581TIP3    H235159   0.636   0.311  12.814  0.2036  0.3769  0.8696
 4582TIP3   OH235160   6.758   5.488  12.541  0.5485  0.3201  0.7165
 4582TIP3    H135161   6.851   5.472  12.527  0.5335 -0.3059  1.2393
 4582TIP3    H235162   6.714   5.417  12.494  0.3195  0.7860  0.2208
 4583TIP3   OH235163   2.265   2.372  15.505  0.4372  0.0546  0.1345
 4583TIP3    H135164   2.243   2.283  15.480  0.8697  0.2073 -0.8287
 4583TIP3    H235165   2.244   2.377  15.599 -2.1045 -0.2665 -0.3403
 4584TIP3   OH235166   2.521   5.954  17.084 -0.2465 -0.2741  0.1281
 4584TIP3    H135167   2.531   6.043  17.052 -3.0896  0.3601  0.7403
 4584TIP3    H235168   2.531   5.899  17.006  2.3409  0.4293 -0.1237
 4585TIP3   OH235169   6.670   0.813  14.248 -0.5025 -0.3094 -0.1108
 4585TIP3    H135170   6.723   0.872  14.194  0.8142 -1.4727 -0.1478
 4585TIP3    H235171   6.582   0.849  14.244  0.5401  2.8549  1.5168
 4586TIP3   OH235172   0.463   5.744   2.232 -0.0891  0.2263 -0.6614
 4586TIP3    H135173   0.422   5.796   2.301  0.4548  0.4314 -0.4834
 4586TIP3    H235174   0.517   5.680   2.280 -0.1438  0.0058 -0.8896
 4587TIP3   OH235175   2.021   5.923  11.371  0.2760  0.5324 -0.0963
 4587TIP3    H135176   1.994   5.941  11.461 -1.3318 -0.0431 -0.4296
 4587TIP3    H235177   1.941   5.936  11.319  1.1234  0.6371 -1.4175
 4588TIP3   OH235178   5.698   4.270   1.639  0.0690 -0.0948  0.4790
 4588TIP3    H135179   5.703   4.186   1.594 -1.2478  0.0048  0.0994
 4588TIP3    H235180   5.771   4.269   1.700 -0.6834 -2.0766  1.4250
 4589TIP3   OH235181   1.322   0.847   2.129 -0.8381  0.0350  0.5123
 4589TIP3    H135182   1.336   0.787   2.056 -0.3074  0.2460  0.4385
 4589TIP3    H235183   1.404   0.895   2.138 -1.0795  0.3895  0.9044
 4590TIP3   OH235184   4.369   0.386  14.074  0.0561 -0.6211  0.4338
 4590TIP3    H135185   4.331   0.473  14.085  0.7735 -0.0351 -1.4056
 4590TIP3    H235186   4.319   0.330  14.134 -2.9014  0.3339 -0.9793
 4591TIP3   OH235187   4.086   3.311   2.862  0.2657 -0.2348  0.5249
 4591TIP3    H135188   4.179   3.306   2.887  0.4142 -1.3814 -0.1818
 4591TIP3    H235189   4.085   3.292   2.768 -0.7723 -1.2213  0.7134
 4592TIP3   OH235190   5.953   2.860  15.281 -0.3180  0.5361 -0.3281
 4592TIP3    H135191   5.858   2.874  15.273 -0.2503  2.0340  0.9169
 4592TIP3    H235192   5.988   2.886  15.196 -1.0243 -0.2511 -0.8809
 4593TIP3   OH235193   2.429   3.740  11.279  0.2817 -0.2569  0.0088
 4593TIP3    H135194   2.513   3.770  11.244  0.6828 -1.3186  0.0369
 4593TIP3    H235195   2.365   3.769  11.214  0.9468 -1.6435 -1.3366
 4594TIP3   OH235196   5.887   3.571  14.179 -0.2482  0.2685 -0.3835
 4594TIP3    H135197   5.799   3.610  14.179  0.0128  0.8728  0.1830
 4594TIP3    H235198   5.937   3.627  14.120  0.5237  1.7700  1.5694
 4595TIP3   OH235199   3.785   6.211  15.300 -0.2778  0.0479 -0.1525
 4595TIP3    H135200   3.878   6.199  15.322 -0.3893 -2.6959 -0.8020
 4595TIP3    H235201   3.738   6.184  15.379 -0.5143 -2.8803 -1.1556
 4596TIP3   OH235202   6.555   2.141   4.742 -0.0199  0.2132  0.0846
 4596TIP3    H135203   6.514   2.065   4.784  0.4042 -0.1570 -0.1690
 4596TIP3    H235204   6.576   2.112   4.654 -1.5071  1.1909 -0.6415
 4597TIP3   OH235205   2.586   1.820  12.898  0.1386  0.2716  0.1703
 4597TIP3    H135206   2.619   1.857  12.980  0.4636  1.3860 -0.4337
 4597TIP3    H235207   2.495   1.848  12.894  0.3080  0.7853 -0.1574
 4598TIP3   OH235208   0.359   0.851  13.690  0.2902 -0.7910 -0.2722
 4598TIP3    H135209   0.367   0.935  13.644 -0.2439 -0.4694  0.2079
 4598TIP3    H235210   0.449   0.821  13.700  0.6525  0.5743  1.0802
 4599TIP3   OH235211   0.786   6.765  13.746 -0.3383 -0.0495  0.2271
 4599TIP3    H135212   0.803   6.759  13.840  0.3240  1.5463  0.2375
 4599TIP3    H235213   0.810   6.855  13.723 -0.9165 -0.2795 -1.3871
 4600TIP3   OH235214   3.012   2.980   3.016 -0.1717  0.1076  0.0387
 4600TIP3    H135215   3.017   2.890   2.984 -0.0514 -0.3892  1.4001
 4600TIP3    H235216   2.957   3.025   2.951 -0.8967 -1.1303 -0.2429
 4601TIP3   OH235217   5.728   5.312  14.738 -0.6022 -0.4118  0.2762
 4601TIP3    H135218   5.819   5.313  14.766 -0.4417  1.0307 -0.2138
 4601TIP3    H235219   5.678   5.324  14.820 -0.3778 -1.4334  0.5725
 4602TIP3   OH235220   4.199   2.833  11.295 -0.0051  0.1198 -0.1467
 4602TIP3    H135221   4.234   2.854  11.208 -0.1241  3.0879  0.4157
 4602TIP3    H235222   4.187   2.919  11.337 -1.5737 -1.1455  2.1742
 4603TIP3   OH235223   0.451   4.154   1.269  0.3265 -0.7151  0.2031
 4603TIP3    H135224   0.357   4.171   1.258  0.5243 -0.1877 -0.6994
 4603TIP3    H235225   0.454   4.084   1.335 -0.5905  1.1539  2.4082
 4604TIP3   OH235226   0.292   6.587  11.709  0.1611  0.1958 -0.8017
 4604TIP3    H135227   0.346   6.615  11.783 -0.0958 -0.4814 -0.3412
 4604TIP3    H235228   0.211   6.637  11.719  0.2127  0.2680 -0.7452
 4605TIP3   OH235229   3.080   1.190   3.318 -0.4013 -0.2109 -0.1460
 4605TIP3    H135230   3.119   1.111   3.280 -0.0449  0.4333 -1.1567
 4605TIP3    H235231   3.153   1.251   3.326 -0.8149  0.2802 -0.0844
 4606TIP3   OH235232   5.518   2.842  14.718  0.1939 -0.0604 -0.0174
 4606TIP3    H135233   5.567   2.791  14.783  0.4818  2.0040  1.4965
 4606TIP3    H235234   5.585   2.895  14.675 -0.2129 -0.2443 -0.8915
 4607TIP3   OH235235   1.288   4.706  15.271 -0.5810 -0.1994  0.2691
 4607TIP3    H135236   1.194   4.716  15.253 -0.2246  1.2971 -0.8911
 4607TIP3    H235237   1.313   4.626  15.224 -1.3052 -0.7626  0.8097
 4608TIP3   OH235238   5.831   3.490  14.859  0.2653  0.2031  0.3800
 4608TIP3    H135239   5.862   3.437  14.933  1.0987  0.8023  0.4768
 4608TIP3    H235240   5.909   3.504  14.806  0.9847  4.2213  2.1229
 4609TIP3   OH235241   5.946   5.103  15.567  0.3298 -0.4131  0.6121
 4609TIP3    H135242   5.858   5.085  15.536  0.5104  1.1722 -1.0142
 4609TIP3    H235243   5.975   5.022  15.609 -1.7375 -1.0772  0.8238
 4610TIP3   OH235244   6.444   6.094   3.825 -0.5606  0.4414  0.1476
 4610TIP3    H135245   6.410   6.016   3.781 -1.7313  1.0145 -0.0057
 4610TIP3    H235246   6.384   6.109   3.898  0.9335 -0.0581  1.5273
 4611TIP3   OH235247   1.946   0.492  13.049 -0.1439 -0.0802  0.2091
 4611TIP3    H135248   2.000   0.569  13.031 -2.5573  1.3320 -1.5155
 4611TIP3    H235249   1.969   0.468  13.139 -0.1142  3.4336  1.3093
 4612TIP3   OH235250   2.436   2.690  14.634  0.3085  0.1964  0.2439
 4612TIP3    H135251   2.513   2.684  14.691 -0.2817  1.5449  1.2547
 4612TIP3    H235252   2.378   2.752  14.679 -0.8510  0.1353 -1.0916
 4613TIP3   OH235253   3.042   4.391   3.901  0.5498 -0.8021 -0.4216
 4613TIP3    H135254   3.106   4.421   3.835 -1.2884  2.5942 -0.8853
 4613TIP3    H235255   3.064   4.440   3.980 -0.3839 -0.9512 -0.0575
 4614TIP3   OH235256   1.862   0.495   2.005  0.3367  0.1262 -0.2420
 4614TIP3    H135257   1.899   0.578   2.038 -0.4756  0.7058 -0.7642
 4614TIP3    H235258   1.777   0.489   2.048  0.7284 -0.8750  0.4405
 4615TIP3   OH235259   5.528   2.227  16.743 -0.1305 -0.3514  0.0612
 4615TIP3    H135260   5.546   2.162  16.676 -1.6800 -1.5894  0.7807
 4615TIP3    H235261   5.442   2.263  16.720 -0.1069  0.1360  0.6797
 4616TIP3   OH235262   5.806   2.231  14.446 -0.2390  0.3932 -0.1768
 4616TIP3    H135263   5.746   2.301  14.420  0.1135  0.9769  0.5291
 4616TIP3    H235264   5.877   2.277  14.491 -0.2202 -0.4635  0.6925
 4617TIP3   OH235265   2.654   6.348   3.464  0.1620  0.2967 -0.6189
 4617TIP3    H135266   2.701   6.425   3.431  0.2447  0.0892 -0.9911
 4617TIP3    H235267   2.686   6.276   3.410 -0.2417  0.0754 -0.5634
 4618TIP3   OH235268   3.511   1.021  14.873 -0.0336  0.3953  0.1411
 4618TIP3    H135269   3.442   1.060  14.820  0.4926  0.8643 -0.2045
 4618TIP3    H235270   3.534   0.940  14.828  0.3394  0.7404 -0.2882
 4619TIP3   OH235271   1.060   1.293   2.642  0.0734  0.3359 -0.6274
 4619TIP3    H135272   0.988   1.338   2.686  0.4760  3.1965 -2.6205
 4619TIP3    H235273   1.139   1.332   2.680  0.5240 -0.4459 -0.7371
 4620TIP3   OH235274   3.240   0.507  15.484  0.0428 -0.0210  0.0146
 4620TIP3    H135275   3.162   0.551  15.451  1.9937  2.9700 -0.9689
 4620TIP3    H235276   3.288   0.480  15.406  0.3504 -1.2549  0.5981
 4621TIP3   OH235277   0.263   3.980   0.555  0.3036  0.5443  0.3414
 4621TIP3    H135278   0.290   3.889   0.556 -1.2764  0.0473  1.4840
 4621TIP3    H235279   0.301   4.016   0.474  0.5863 -1.2255 -0.3482
 4622TIP3   OH235280   5.823   6.229  13.192  0.4487 -0.1272 -0.2314
 4622TIP3    H135281   5.756   6.251  13.257  1.0731  1.2161  0.0049
 4622TIP3    H235282   5.871   6.155  13.230  0.5701  0.4046  0.6817
 4623TIP3   OH235283   2.221   4.657   1.646  0.1297  0.4532  0.3110
 4623TIP3    H135284   2.128   4.650   1.625  0.4233 -0.5582 -0.7420
 4623TIP3    H235285   2.243   4.749   1.629 -0.1397  0.1687 -1.8561
 4624TIP3   OH235286   1.576   6.249  12.962  0.5031  0.0108  0.2459
 4624TIP3    H135287   1.503   6.302  12.931 -0.3694 -1.3390 -0.1017
 4624TIP3    H235288   1.646   6.265  12.898  0.5778  1.3751  0.6273
 4625TIP3   OH235289   4.042   3.319   5.847 -0.0034  0.1255 -0.3370
 4625TIP3    H135290   4.060   3.228   5.873  1.1467  0.5314  0.3916
 4625TIP3    H235291   4.115   3.341   5.789  0.4593  0.9950  0.5497
 4626TIP3   OH235292   3.148   4.375  13.372 -0.1246  0.1675  0.3261
 4626TIP3    H135293   3.243   4.363  13.375 -0.1471 -0.3528 -0.6447
 4626TIP3    H235294   3.116   4.301  13.319 -0.5877  2.7434 -3.3585
 4627TIP3   OH235295   5.911   1.317   2.717 -0.4921 -0.0713  0.2478
 4627TIP3    H135296   5.829   1.269   2.708 -0.8590  0.2112  1.7569
 4627TIP3    H235297   5.887   1.409   2.701 -0.2593 -0.1147 -0.3508
 4628TIP3   OH235298   6.346   5.171  16.640  0.2195 -0.0502  0.4410
 4628TIP3    H135299   6.417   5.110  16.619 -1.8767 -1.8565 -2.2054
 4628TIP3    H235300   6.315   5.143  16.726  0.1382 -2.0101 -0.1664
 4629TIP3   OH235301   0.938   5.222   3.576  0.3984 -0.6974  0.4761
 4629TIP3    H135302   0.993   5.299   3.565  0.6777 -0.0255  4.8288
 4629TIP3    H235303   0.905   5.203   3.488  2.8745  2.3783 -1.3188
 4630TIP3   OH235304   2.815   3.542   4.987 -0.1294  0.6050 -0.8576
 4630TIP3    H135305   2.838   3.625   4.946 -2.2498  1.6775 -0.0411
 4630TIP3    H235306   2.899   3.500   5.005  1.1387  3.4009  0.3851
 4631TIP3   OH235307   3.969   2.464   6.351 -0.1637 -0.1815 -0.0140
 4631TIP3    H135308   4.002   2.548   6.318  0.6047 -0.3412  0.3246
 4631TIP3    H235309   3.876   2.464   6.327 -0.1066  0.6338 -0.2808
 4632TIP3   OH235310   0.264   2.871  14.608 -0.6532 -0.4519  0.1859
 4632TIP3    H135311   0.244   2.937  14.542 -0.2830  0.7679  1.2602
 4632TIP3    H235312   0.350   2.895  14.641 -0.8758 -0.9820  1.1837
 4633TIP3   OH235313   6.526   5.397  16.560  0.0929  0.0587  0.2558
 4633TIP3    H135314   6.460   5.342  16.603 -0.7416  0.4680 -0.4731
 4633TIP3    H235315   6.512   5.383  16.466  1.5203 -0.3875  0.0765
 4634TIP3   OH235316   2.243   3.231   4.964  0.6835  0.3402 -0.4696
 4634TIP3    H135317   2.299   3.238   4.887 -0.0638 -0.0918 -1.0678
 4634TIP3    H235318   2.293   3.177   5.025  1.7256  1.5459 -0.2174
 4635TIP3   OH235319   4.790   6.561  15.320  0.4493  0.4096 -1.2271
 4635TIP3    H135320   4.850   6.489  15.341  0.9733  1.1398 -0.0805
 4635TIP3    H235321   4.719   6.552  15.384  1.7593  2.3103  0.6500
 4636TIP3   OH235322   0.489   4.635  13.745  0.0781  0.6214  0.1306
 4636TIP3    H135323   0.505   4.643  13.839 -1.1528  1.4113  0.2915
 4636TIP3    H235324   0.407   4.683  13.730  0.0277  0.1407 -1.2757
 4637TIP3   OH235325   1.660   4.623   1.832 -0.2421 -1.0226 -0.8667
 4637TIP3    H135326   1.712   4.700   1.810 -0.0491 -0.8921 -0.0040
 4637TIP3    H235327   1.608   4.606   1.754 -1.6853  1.1260 -0.4805
 4638TIP3   OH235328   3.559   5.777  10.451  0.0274  0.5009  0.3995
 4638TIP3    H135329   3.551   5.682  10.462  1.6438  0.1253 -1.2095
 4638TIP3    H235330   3.495   5.799  10.384 -2.2504  1.0667  2.5877
 4639TIP3   OH235331   2.247   2.617  15.673  0.0467 -0.0132 -0.1807
 4639TIP3    H135332   2.193   2.543  15.644  0.2372 -0.0805 -0.3667
 4639TIP3    H235333   2.262   2.600  15.766  0.6488 -0.5636 -0.3721
 4640TIP3   OH235334   4.945   1.980  16.542 -0.2028  0.2547 -0.1369
 4640TIP3    H135335   4.949   2.016  16.454  1.3341  0.5646  0.0273
 4640TIP3    H235336   4.866   1.926  16.542  0.7498 -1.3468 -2.3499
 4641TIP3   OH235337   6.455   0.705  12.077 -0.5305  0.3407  0.0103
 4641TIP3    H135338   6.359   0.711  12.077 -0.4383  2.2938  0.0220
 4641TIP3    H235339   6.477   0.681  11.987 -0.9874  1.2895 -0.3696
 4642TIP3   OH235340   6.152   0.908   6.606 -0.5939  0.1155 -0.0317
 4642TIP3    H135341   6.138   0.817   6.581 -0.4963  0.4032 -1.1904
 4642TIP3    H235342   6.173   0.953   6.524 -1.3391  1.3152  0.4030
 4643TIP3   OH235343   1.231   0.324   1.700 -0.1564 -0.1539  0.3675
 4643TIP3    H135344   1.180   0.404   1.684 -0.5267 -0.4885 -0.1613
 4643TIP3    H235345   1.255   0.329   1.792 -1.2726 -0.0614  0.6655
 4644TIP3   OH235346   5.223   4.964  15.093  0.3932 -0.0134 -0.3274
 4644TIP3    H135347   5.255   4.952  15.182  1.1629 -0.3634 -0.6487
 4644TIP3    H235348   5.181   4.881  15.071 -0.4269  0.3124 -0.0469
 4645TIP3   OH235349   0.845   4.531  15.484 -0.2672  0.1717 -0.9005
 4645TIP3    H135350   0.867   4.537  15.391 -0.6473  3.1440 -0.8793
 4645TIP3    H235351   0.752   4.508  15.485 -0.2191 -0.0480 -1.2459
 4646TIP3   OH235352   1.774   3.134   6.289  0.1910  0.2771  0.0484
 4646TIP3    H135353   1.730   3.212   6.324  0.1274  0.8512 -1.2836
 4646TIP3    H235354   1.814   3.094   6.366 -1.8030  0.2774  1.1584
 4647TIP3   OH235355   1.444   4.056  13.046  0.2394  0.4922 -0.0781
 4647TIP3    H135356   1.409   4.078  12.960 -0.6617  0.2042  0.2051
 4647TIP3    H235357   1.537   4.081  13.042  0.8361 -1.6521 -1.9413
 4648TIP3   OH235358   3.691   0.589  15.265  0.2077 -0.3722 -0.2208
 4648TIP3    H135359   3.673   0.668  15.213  0.0029 -0.4710 -0.3012
 4648TIP3    H235360   3.699   0.519  15.200  2.2714 -0.1155 -0.3147
 4649TIP3   OH235361   2.786   4.299  16.799 -0.0444 -0.6506  0.5515
 4649TIP3    H135362   2.844   4.373  16.781 -0.9652  0.0235  0.2705
 4649TIP3    H235363   2.814   4.230  16.739  1.1828 -0.7429  1.1993
 4650TIP3   OH235364   6.207   1.446  16.843  0.3294 -0.7098 -0.4657
 4650TIP3    H135365   6.185   1.534  16.813  2.3071 -0.3392 -0.9913
 4650TIP3    H235366   6.245   1.460  16.930  1.0159 -0.9883 -0.7172
 4651TIP3   OH235367   0.101   5.682  15.262  0.6049 -0.0120 -0.6802
 4651TIP3    H135368   0.011   5.650  15.259  0.8193 -0.7604  0.1899
 4651TIP3    H235369   0.154   5.602  15.271  1.3170  0.4478 -0.7111
 4652TIP3   OH235370   3.584   1.829  15.910 -0.2616  0.4193 -0.5235
 4652TIP3    H135371   3.550   1.918  15.924  1.1448  1.1267 -1.4370
 4652TIP3    H235372   3.621   1.804  15.995 -4.2728 -1.0256  1.0425
 4653TIP3   OH235373   3.990   6.171   0.002  0.8668  0.9285 -0.8144
 4653TIP3    H135374   3.954   6.227  -0.067 -0.0316  0.3914 -0.7946
 4653TIP3    H235375   4.061   6.123  -0.041  1.2771  1.6668 -0.9768
 4654TIP3   OH235376   6.765   3.714   0.981  0.6222  1.1275  0.1555
 4654TIP3    H135377   6.786   3.799   1.021  1.7712  0.9702 -0.0631
 4654TIP3    H235378   6.829   3.653   1.019 -0.4881  0.2479  0.6640
 4655TIP3   OH235379   0.478   3.310  12.341  0.7167  0.1917  0.3057
 4655TIP3    H135380   0.530   3.229  12.344 -0.6882 -0.7121  1.0348
 4655TIP3    H235381   0.457   3.329  12.432 -0.3293  0.4800  0.0137
 4656TIP3   OH235382   6.694   3.230  16.896  0.1463  0.1122 -0.0326
 4656TIP3    H135383   6.680   3.283  16.974  1.4532 -0.0777  0.3499
 4656TIP3    H235384   6.727   3.291  16.831 -0.7473  0.2292 -0.4009
 4657TIP3   OH235385   6.397   0.739   1.317 -0.2433 -0.0328  0.3559
 4657TIP3    H135386   6.455   0.792   1.372 -1.8177  2.2813 -0.0750
 4657TIP3    H235387   6.395   0.785   1.233 -2.4668 -0.1747  0.2812
 4658TIP3   OH235388   2.666   3.384   4.271  0.9410  0.4283 -0.1443
 4658TIP3    H135389   2.671   3.460   4.214  1.9599  1.5887  1.4034
 4658TIP3    H235390   2.678   3.419   4.359  1.7719 -1.5597  0.5915
 4659TIP3   OH235391   0.672   2.020   2.863  0.5285  0.1538 -0.6104
 4659TIP3    H135392   0.640   1.930   2.853  1.2840 -0.4193  1.6443
 4659TIP3    H235393   0.762   2.017   2.830  0.5524  0.0826 -0.5396
 4660TIP3   OH235394   0.046   3.121  15.827 -0.6013  0.0598 -0.4284
 4660TIP3    H135395  -0.029   3.163  15.870 -0.4365 -0.0904  0.0128
 4660TIP3    H235396   0.122   3.173  15.853 -0.5159  0.0391 -0.6343
 4661TIP3   OH235397   5.002   3.622   5.119 -0.6179 -0.4698  0.1190
 4661TIP3    H135398   5.045   3.647   5.037  2.0020  1.4893  1.9373
 4661TIP3    H235399   5.029   3.532   5.135  0.8176 -0.0789 -0.0245
 4662TIP3   OH235400   0.408   1.788  14.547 -0.6612 -0.5916  0.2979
 4662TIP3    H135401   0.323   1.750  14.566 -0.3562 -1.7931 -0.5915
 4662TIP3    H235402   0.468   1.747  14.609 -0.6323 -0.2051  0.5254
 4663TIP3   OH235403   5.146   5.945   5.365  0.0082 -0.7463 -0.0488
 4663TIP3    H135404   5.159   5.938   5.271  1.4096  0.1016  0.0503
 4663TIP3    H235405   5.114   6.034   5.379  1.3260 -0.3134  0.3824
 4664TIP3   OH235406   2.087   2.837   0.382 -0.5380 -0.2634  0.5278
 4664TIP3    H135407   2.178   2.819   0.356 -0.9719 -0.7016 -0.7565
 4664TIP3    H235408   2.049   2.751   0.400 -1.2641 -0.2877 -0.9651
 4665TIP3   OH235409   4.313   1.733   1.254  0.7845 -0.3247 -0.4014
 4665TIP3    H135410   4.268   1.711   1.172 -0.7471 -1.1468  0.6167
 4665TIP3    H235411   4.293   1.660   1.313  0.3363  1.0697  1.2718
 4666TIP3   OH235412   5.264   3.547   4.835 -0.1462 -0.6437  0.7268
 4666TIP3    H135413   5.266   3.635   4.872 -0.0581 -0.2625 -0.1463
 4666TIP3    H235414   5.299   3.491   4.904 -1.6646 -0.2293  1.8752
 4667TIP3   OH235415   2.488   3.873   2.370  0.3616 -0.1444 -0.0652
 4667TIP3    H135416   2.541   3.877   2.291 -1.0026  0.7031 -0.9711
 4667TIP3    H235417   2.512   3.952   2.419  0.1588  0.0988 -0.3488
 4668TIP3   OH235418   1.850   0.755  13.890 -0.2077  0.0516  0.2343
 4668TIP3    H135419   1.926   0.795  13.932  0.7307 -0.6455 -0.7326
 4668TIP3    H235420   1.885   0.715  13.811 -1.5312 -0.6184 -0.0421
 4669TIP3   OH235421   3.262   0.886  14.894 -0.4363  0.1653  0.3182
 4669TIP3    H135422   3.354   0.868  14.872 -0.7273  0.4343 -1.2230
 4669TIP3    H235423   3.266   0.954  14.961  0.5044 -0.2439  0.6852
 4670TIP3   OH235424   1.917   4.665   2.519 -0.0797 -0.1043 -0.3636
 4670TIP3    H135425   1.890   4.602   2.452 -0.4257 -0.4918  0.1235
 4670TIP3    H235426   1.951   4.740   2.470 -1.0828 -0.0362 -0.9908
 4671TIP3   OH235427   0.792   3.892  12.409  0.4817  0.2530 -0.1372
 4671TIP3    H135428   0.702   3.870  12.386  0.5783 -0.5442  0.2143
 4671TIP3    H235429   0.838   3.808  12.408  1.4940  0.7853 -1.4626
 4672TIP3   OH235430   2.745   4.764   4.492  0.2483 -0.1211  0.2588
 4672TIP3    H135431   2.727   4.670   4.487  1.2591 -0.3276  0.1813
 4672TIP3    H235432   2.734   4.795   4.402 -0.5792 -0.0638  0.3766
 4673TIP3   OH235433   6.529   5.193  13.153 -0.6394 -0.0351  0.4156
 4673TIP3    H135434   6.529   5.237  13.068 -0.0815 -2.1467 -0.7586
 4673TIP3    H235435   6.437   5.193  13.180 -1.0206 -0.3912 -0.7979
 4674TIP3   OH235436   1.903   4.629   3.811  0.5152  0.1932 -0.2201
 4674TIP3    H135437   1.882   4.641   3.904 -1.4780  1.4520 -0.7658
 4674TIP3    H235438   1.841   4.562   3.781  1.3471 -0.4245 -0.5879
 4675TIP3   OH235439   2.366   4.680   0.244 -1.0712  0.3253 -1.1037
 4675TIP3    H135440   2.300   4.670   0.175 -2.7544  0.9522  0.3386
 4675TIP3    H235441   2.316   4.680   0.325  0.9476 -1.4417  0.2381
 4676TIP3   OH235442   6.162   2.083  13.189 -0.2252  0.4973  0.1240
 4676TIP3    H135443   6.103   2.069  13.263 -0.2352 -0.6518 -0.0884
 4676TIP3    H235444   6.249   2.063  13.223 -0.0599  1.2902  0.1836
 4677TIP3   OH235445   5.154   5.349   3.208 -0.1411 -1.1751 -0.6754
 4677TIP3    H135446   5.233   5.382   3.166 -0.2055  0.3203  0.2804
 4677TIP3    H235447   5.127   5.275   3.154  1.3514 -1.1103 -1.5806
 4678TIP3   OH235448   3.107   4.898  11.436  0.2737 -0.0691  0.2302
 4678TIP3    H135449   3.159   4.865  11.510  0.7261 -0.4814 -0.2623
 4678TIP3    H235450   3.171   4.942  11.381  0.3377 -1.6108 -0.9919
 4679TIP3   OH235451   1.336   0.993   0.922 -0.1504 -0.5077 -0.1642
 4679TIP3    H135452   1.271   0.988   0.992 -0.7013  0.3690 -0.5993
 4679TIP3    H235453   1.323   1.079   0.883  2.4054  0.4005  0.7990
 4680TIP3   OH235454   5.992   2.877  14.966 -0.3384  0.1458 -0.5765
 4680TIP3    H135455   5.976   2.935  14.892  2.6672  0.9302 -0.7578
 4680TIP3    H235456   6.067   2.823  14.939 -1.1027 -1.6907  0.7691
 4681TIP3   OH235457   3.015   4.931   5.562  1.2463  0.2928  0.4581
 4681TIP3    H135458   2.935   4.920   5.613  0.7400 -2.3616 -0.7201
 4681TIP3    H235459   2.986   4.973   5.481  0.9108 -1.0581 -0.1501
 4682TIP3   OH235460   2.063   3.076   4.303  0.8470  0.4482  0.5759
 4682TIP3    H135461   2.093   3.157   4.345  1.0746  0.2501  0.8006
 4682TIP3    H235462   2.138   3.047   4.252  0.3723  1.0130 -0.4689
 4683TIP3   OH235463   1.802   1.711  14.688  0.2764  0.2155 -0.2518
 4683TIP3    H135464   1.897   1.720  14.683  0.4432 -0.5126  1.2214
 4683TIP3    H235465   1.776   1.773  14.757  0.0050 -1.3707  1.1297
 4684TIP3   OH235466   3.962   2.648   0.554  0.2855 -0.1974 -0.5237
 4684TIP3    H135467   3.965   2.691   0.469 -0.9688 -0.2844 -0.6378
 4684TIP3    H235468   3.884   2.593   0.550  0.5581 -0.6790  0.4613
 4685TIP3   OH235469   2.350   5.722   4.746  0.3415  0.1778 -0.0330
 4685TIP3    H135470   2.336   5.792   4.809  0.3742 -0.5154  0.7603
 4685TIP3    H235471   2.362   5.767   4.662  1.0367  1.1510  0.5667
 4686TIP3   OH235472   6.681   3.478  11.556 -0.2133  0.0896 -0.0018
 4686TIP3    H135473   6.627   3.531  11.615  1.8792  1.2458  1.0004
 4686TIP3    H235474   6.723   3.541  11.498  1.0036 -0.6138  0.0712
 4687TIP3   OH235475   4.651   6.100  13.091  0.2922 -0.2990  0.0703
 4687TIP3    H135476   4.568   6.141  13.116  0.3229 -1.1556  1.6729
 4687TIP3    H235477   4.713   6.172  13.088 -0.0285  0.0428  1.1543
 4688TIP3   OH235478   2.466   3.643   0.794 -0.0553  0.3953 -0.4463
 4688TIP3    H135479   2.535   3.654   0.728  0.4380  3.6850  0.4294
 4688TIP3    H235480   2.389   3.616   0.745  1.2191 -0.9955 -1.7889
 4689TIP3   OH235481   4.260   3.542  11.494  0.2760 -0.5531 -0.2654
 4689TIP3    H135482   4.298   3.477  11.435  0.6120 -0.8510  0.2685
 4689TIP3    H235483   4.166   3.539  11.476  0.2094 -1.6263  0.1633
 4690TIP3   OH235484   5.124   5.846  14.610  0.1240  0.0476 -0.3681
 4690TIP3    H135485   5.122   5.888  14.524 -0.0425  0.0409 -0.3687
 4690TIP3    H235486   5.046   5.879  14.654  0.3746  0.2893 -0.1040
 4691TIP3   OH235487   0.492   3.015  11.628 -0.1808  0.4900  0.1909
 4691TIP3    H135488   0.569   3.047  11.676  1.0264 -1.0481 -0.6336
 4691TIP3    H235489   0.475   2.929  11.665  0.0400 -0.2277 -1.3081
 4692TIP3   OH235490   0.676   0.240   2.535  0.3461 -0.3347 -0.4262
 4692TIP3    H135491   0.711   0.153   2.516 -1.3279 -1.2406  0.4205
 4692TIP3    H235492   0.646   0.272   2.450  1.4537 -0.3341 -0.8340
 4693TIP3   OH235493   3.382   6.064  11.985  0.2200  0.3721  0.1689
 4693TIP3    H135494   3.391   5.982  11.936 -1.7607  0.3628 -0.2681
 4693TIP3    H235495   3.288   6.074  11.997  0.5475  1.4733  2.1687
 4694TIP3   OH235496   5.724   0.429   0.908 -0.3404 -0.3092  0.4159
 4694TIP3    H135497   5.769   0.381   0.977 -0.7943  0.3038  1.1543
 4694TIP3    H235498   5.773   0.511   0.899 -1.4975  0.5646  1.5380
 4695TIP3   OH235499   3.497   1.522  12.767 -0.0870 -0.1073 -0.4799
 4695TIP3    H135500   3.542   1.518  12.682  0.2321  0.4207 -0.3395
 4695TIP3    H235501   3.566   1.548  12.829 -0.9239  2.3943 -0.5183
 4696TIP3   OH235502   0.998   4.516   2.122 -0.0380 -0.5398 -0.1212
 4696TIP3    H135503   1.064   4.474   2.067 -0.0839 -0.1626 -0.4705
 4696TIP3    H235504   1.026   4.498   2.212  1.4406  0.9931 -0.2460
 4697TIP3   OH235505   1.229   1.476   0.305  0.2923  0.0969 -0.3367
 4697TIP3    H135506   1.170   1.539   0.263  0.1886  0.3616  0.1909
 4697TIP3    H235507   1.246   1.410   0.238 -1.6505 -0.6982 -0.1231
 4698TIP3   OH235508   6.132   2.952  10.953 -0.3825 -0.5805  0.2422
 4698TIP3    H135509   6.167   3.032  10.914 -1.3806  0.8996  2.2229
 4698TIP3    H235510   6.205   2.890  10.951  0.6773  0.6569 -0.5598
 4699TIP3   OH235511   5.632   5.187   1.893 -0.3528 -0.0365  0.2661
 4699TIP3    H135512   5.676   5.104   1.915 -0.2757 -1.0036 -3.0840
 4699TIP3    H235513   5.539   5.166   1.894 -0.2896 -0.7122 -2.1571
 4700TIP3   OH235514   2.554   1.833  15.794 -0.2280  0.6277 -0.2803
 4700TIP3    H135515   2.550   1.774  15.870 -2.2048  0.0945 -0.7450
 4700TIP3    H235516   2.627   1.798  15.742 -0.3683 -0.4748  0.2172
 4701TIP3   OH235517   1.842   3.075  13.202  0.5661 -0.0417 -0.1173
 4701TIP3    H135518   1.808   3.075  13.291 -1.1997  0.1831 -0.7500
 4701TIP3    H235519   1.816   3.160  13.167 -1.4520 -1.2568 -1.7795
 4702TIP3   OH235520   0.104   3.837  14.862 -0.0301  0.2964 -0.1936
 4702TIP3    H135521   0.091   3.848  14.956 -0.4808 -0.4079 -0.1679
 4702TIP3    H235522   0.024   3.793  14.832 -0.4711  1.7012 -1.1368
 4703TIP3   OH235523   3.838   6.342  10.696 -0.1508 -0.3402  0.3131
 4703TIP3    H135524   3.795   6.312  10.615  1.0493 -0.4069 -0.3127
 4703TIP3    H235525   3.790   6.421  10.720  0.4179  0.5480 -1.3251
 4704TIP3   OH235526   4.121   2.694  15.502 -0.4363 -0.0406  0.0905
 4704TIP3    H135527   4.069   2.772  15.523 -1.2029 -0.5366  0.0638
 4704TIP3    H235528   4.195   2.727  15.452 -1.0566  0.6042 -0.4140
 4705TIP3   OH235529   1.743   0.112   3.480  0.4964 -0.0347  0.3149
 4705TIP3    H135530   1.702   0.194   3.509 -1.0148 -0.1143 -1.4022
 4705TIP3    H235531   1.836   0.125   3.497  0.2625  1.9219  0.3653
 4706TIP3   OH235532   3.040   1.785   2.516 -0.3393  0.1680 -0.3221
 4706TIP3    H135533   3.065   1.745   2.599  3.8978  0.9712 -1.0236
 4706TIP3    H235534   2.995   1.715   2.469 -1.0377 -0.9099  1.8055
 4707TIP3   OH235535   2.408   2.011  14.635  0.3722 -0.2134 -0.1003
 4707TIP3    H135536   2.435   2.091  14.591 -0.4660  0.5906  0.8119
 4707TIP3    H235537   2.488   1.978  14.676  0.7256  0.1485 -0.4964
 4708TIP3   OH235538   3.899   1.143  11.353  0.2767 -0.2128 -0.5860
 4708TIP3    H135539   3.898   1.136  11.258 -2.2668 -0.2381 -0.6302
 4708TIP3    H235540   3.958   1.072  11.382  1.8108  0.3787 -2.1133
 4709TIP3   OH235541   1.069   4.056   4.828 -0.5824  0.1232  0.4932
 4709TIP3    H135542   1.011   3.982   4.842  0.0383 -0.1709  1.6821
 4709TIP3    H235543   1.145   4.019   4.784  0.0205 -0.1062  1.6819
 4710TIP3   OH235544   3.163   4.721  15.914 -0.5237  0.1342 -0.2690
 4710TIP3    H135545   3.145   4.814  15.901  1.8456  0.5022 -1.4762
 4710TIP3    H235546   3.195   4.691  15.829  1.7997 -0.9650  0.8925
 4711TIP3   OH235547   4.252   2.908   4.041 -0.4564 -0.4368 -0.5026
 4711TIP3    H135548   4.308   2.941   4.111 -0.2204  2.5058 -1.9456
 4711TIP3    H235549   4.309   2.850   3.990  0.8178  1.1227 -0.9236
 4712TIP3   OH235550   1.499   2.068  15.981  0.4968 -0.0490  0.6023
 4712TIP3    H135551   1.433   2.031  16.041  0.0549 -1.2368 -0.5744
 4712TIP3    H235552   1.570   2.004  15.982 -0.1246 -0.8064 -1.2046
 4713TIP3   OH235553   5.105   0.444  17.248  0.4613  0.1577 -0.7275
 4713TIP3    H135554   5.139   0.358  17.223 -0.5870 -0.4216 -0.2161
 4713TIP3    H235555   5.011   0.430  17.260  0.2536  1.4072 -0.7600
 4714TIP3   OH235556   3.334   5.615   1.323  0.4195 -0.3292  0.7227
 4714TIP3    H135557   3.339   5.630   1.418  0.6109  0.1357  0.6381
 4714TIP3    H235558   3.425   5.616   1.294  0.2644  1.9928  0.1549
 4715TIP3   OH235559   0.168   6.046   4.783  0.3552  0.0315  0.2751
 4715TIP3    H135560   0.235   6.099   4.826  2.2910 -2.4107  0.5046
 4715TIP3    H235561   0.094   6.047   4.844  0.5534  1.8555  0.5498
 4716TIP3   OH235562   2.585   5.826  13.507  0.5400 -0.2404 -0.2330
 4716TIP3    H135563   2.539   5.779  13.577 -0.1518 -0.4057 -0.7825
 4716TIP3    H235564   2.650   5.765  13.475 -1.2503 -1.4279 -1.8737
 4717TIP3   OH235565   5.162   5.569   2.817 -0.2929 -0.5012 -0.8397
 4717TIP3    H135566   5.166   5.654   2.774 -1.2577 -1.3391 -2.6870
 4717TIP3    H235567   5.252   5.535   2.812  0.2573  0.6685  0.5461
 4718TIP3   OH235568   1.938   1.224  15.643 -0.2783  0.3484 -0.7891
 4718TIP3    H135569   1.881   1.273  15.584  0.6597  2.5992  0.0654
 4718TIP3    H235570   2.016   1.204  15.591 -1.5154 -2.3104 -1.8104
 4719TIP3   OH235571   6.540   3.056  10.969 -0.1386  0.8495 -0.4599
 4719TIP3    H135572   6.522   3.126  10.907  1.0431  1.6411  0.0592
 4719TIP3    H235573   6.591   2.992  10.920  1.4324  1.8213 -0.1465
 4720TIP3   OH235574   6.050   0.245  14.108  0.0010  0.3984 -0.1901
 4720TIP3    H135575   6.090   0.227  14.194  0.3380  1.1021 -0.1968
 4720TIP3    H235576   6.076   0.170  14.054  0.1823  0.1804  0.1894
 4721TIP3   OH235577   4.257   1.608   3.642 -0.0176  0.4070 -0.1975
 4721TIP3    H135578   4.223   1.525   3.608 -0.3650  0.3747  0.2177
 4721TIP3    H235579   4.181   1.667   3.641  0.7000  1.4037 -2.5688
 4722TIP3   OH235580   6.770   6.093  15.377  0.3717 -0.2319 -0.4556
 4722TIP3    H135581   6.733   6.145  15.306  1.0651  1.2641  0.2360
 4722TIP3    H235582   6.839   6.040  15.335 -0.3358 -0.6050 -1.1638
 4723TIP3   OH235583   4.363   0.493   1.000 -0.0815 -0.1307 -0.2360
 4723TIP3    H135584   4.362   0.546   0.920 -0.0675 -0.3915 -0.4111
 4723TIP3    H235585   4.287   0.435   0.991  0.0298 -0.2903 -0.1494
 4724TIP3   OH235586   5.352   6.398  16.952  0.0527 -0.3111  0.2418
 4724TIP3    H135587   5.420   6.345  16.993  1.2204  0.6839 -0.3387
 4724TIP3    H235588   5.289   6.334  16.917  1.1027 -1.2876  0.0867
 4725TIP3   OH235589   2.704   3.775  14.118 -0.2322 -0.7229 -0.0900
 4725TIP3    H135590   2.624   3.743  14.076 -0.2145 -1.7283  0.6187
 4725TIP3    H235591   2.759   3.698  14.127 -0.5885 -0.7376  2.5896
 4726TIP3   OH235592   0.516   0.737   1.016 -0.1203 -0.6181 -0.0928
 4726TIP3    H135593   0.581   0.693   0.962  2.1209 -0.2930  2.1304
 4726TIP3    H235594   0.520   0.829   0.990  0.2563 -0.6134 -0.0181
 4727TIP3   OH235595   2.339   3.195  10.872  0.1072 -0.1837  0.1395
 4727TIP3    H135596   2.315   3.221  10.783  0.3716 -0.3067  0.0317
 4727TIP3    H235597   2.258   3.206  10.923  0.2615  1.0879  0.1601
 4728TIP3   OH235598   0.034   3.306   3.841  0.3158 -0.2407  0.2600
 4728TIP3    H135599  -0.008   3.220   3.847 -0.8605  0.2691 -0.4824
 4728TIP3    H235600   0.128   3.286   3.838  0.1566 -1.4055  1.8057
 4729TIP3   OH235601   1.290   2.932   2.419 -0.2530 -0.2725 -0.0805
 4729TIP3    H135602   1.294   2.866   2.489  2.4701  0.2229  0.3293
 4729TIP3    H235603   1.340   3.006   2.453  0.2272  0.4032 -2.1167
 4730TIP3   OH235604   2.251   2.187  12.229  0.1616 -0.3181 -0.2603
 4730TIP3    H135605   2.345   2.200  12.221  0.4910 -1.8034  0.7412
 4730TIP3    H235606   2.218   2.190  12.139  1.2260 -0.2470 -0.6559
 4731TIP3   OH235607   5.518   3.398  11.554  0.1724 -0.4840  0.0752
 4731TIP3    H135608   5.568   3.341  11.612  0.7485  0.7602  0.8334
 4731TIP3    H235609   5.574   3.410  11.477  1.7272  1.9309  1.4497
 4732TIP3   OH235610   5.263   0.149   2.849 -0.0641 -0.0423 -0.4272
 4732TIP3    H135611   5.320   0.125   2.776 -1.1771  0.3827 -1.4621
 4732TIP3    H235612   5.216   0.068   2.870  1.5690 -0.6755  1.1040
 4733TIP3   OH235613   1.853   3.420   5.437  0.3650  0.7012  0.2171
 4733TIP3    H135614   1.803   3.392   5.514  0.8067  2.2651  1.1113
 4733TIP3    H235615   1.841   3.515   5.433  1.3948  0.8170 -0.8894
 4734TIP3   OH235616   6.224   1.206  16.703  0.2217  0.6102 -0.0290
 4734TIP3    H135617   6.204   1.148  16.777  1.4763 -1.3939 -1.1856
 4734TIP3    H235618   6.230   1.293  16.743 -1.1540 -0.0979  1.8789
 4735TIP3   OH235619   4.728   5.443  10.510  0.3360 -0.1548 -0.3567
 4735TIP3    H135620   4.739   5.374  10.576  1.3740 -0.3590 -0.7190
 4735TIP3    H235621   4.740   5.525  10.558 -0.0193 -0.2566 -0.0905
 4736TIP3   OH235622   3.718   1.674   0.997  0.1551 -0.4307  0.0805
 4736TIP3    H135623   3.804   1.634   0.994  0.2049 -0.3037 -0.2462
 4736TIP3    H235624   3.733   1.763   1.028  0.1300 -0.4454  0.1341
 4737TIP3   OH235625   4.310   5.848  14.513  0.3681  1.0925  0.0857
 4737TIP3    H135626   4.400   5.852  14.479  0.8960 -0.0149  1.2728
 4737TIP3    H235627   4.289   5.938  14.536  1.9950  1.1208  1.7306
 4738TIP3   OH235628   5.728   0.372   1.444  0.5384  0.2031 -0.1785
 4738TIP3    H135629   5.818   0.342   1.460  0.3418  0.0998  0.8205
 4738TIP3    H235630   5.676   0.324   1.509 -0.5333 -1.2181 -1.9877
 4739TIP3   OH235631   3.272   4.746   0.167  0.2650  0.1931 -0.5238
 4739TIP3    H135632   3.282   4.668   0.221  0.3453 -0.1333 -0.9980
 4739TIP3    H235633   3.278   4.819   0.228  0.6363 -0.1591 -0.1336
 4740TIP3   OH235634   3.163   5.452  16.760 -0.2404  0.2464  0.4643
 4740TIP3    H135635   3.133   5.504  16.685  0.7194  1.8650  1.1500
 4740TIP3    H235636   3.093   5.463  16.825  0.9742  2.7558  1.4923
 4741TIP3   OH235637   6.492   4.998   1.830  0.2228  0.0762  0.4412
 4741TIP3    H135638   6.514   5.065   1.895  0.0523  0.8343 -0.2713
 4741TIP3    H235639   6.509   5.040   1.746  2.4429 -1.5712 -0.0132
 4742TIP3   OH235640   0.673   4.578   3.911 -0.1947  0.2365 -0.6773
 4742TIP3    H135641   0.623   4.537   3.840 -1.6184  0.1534  0.3459
 4742TIP3    H235642   0.615   4.645   3.946 -0.8816 -1.8320  2.5158
 4743TIP3   OH235643   3.678   2.758   6.273  0.5122 -0.1237  0.0235
 4743TIP3    H135644   3.660   2.819   6.202  0.9656 -2.0599 -1.8911
 4743TIP3    H235645   3.773   2.746   6.271  0.6047  0.2065  1.3687
 4744TIP3   OH235646   2.821   2.941   5.356 -0.7053  0.5441 -0.0949
 4744TIP3    H135647   2.734   2.966   5.324  0.5313  1.6210 -2.9943
 4744TIP3    H235648   2.846   2.867   5.301  0.5959  0.8873 -0.0002
 4745TIP3   OH235649   4.700   5.577  14.440  0.2732 -0.1355  0.2488
 4745TIP3    H135650   4.634   5.537  14.496  0.7112 -1.8526 -0.3765
 4745TIP3    H235651   4.675   5.669  14.434 -1.2516 -0.4652  1.1397
 4746TIP3   OH235652   4.215   0.223  12.005  0.1219 -0.1648 -0.1115
 4746TIP3    H135653   4.188   0.214  12.096 -0.9148 -0.0216 -0.4006
 4746TIP3    H235654   4.195   0.314  11.983 -2.3588 -0.9282 -1.3374
 4747TIP3   OH235655   0.086   1.420   6.463 -0.4163 -0.2471  0.5349
 4747TIP3    H135656   0.181   1.434   6.468 -0.5338  0.4384  1.1117
 4747TIP3    H235657   0.067   1.359   6.535 -0.4982  0.1824  0.8867
 4748TIP3   OH235658   3.423   1.347  15.335 -0.3295 -0.0658 -0.3657
 4748TIP3    H135659   3.362   1.277  15.359 -2.6818  1.4603 -1.5264
 4748TIP3    H235660   3.377   1.397  15.267  0.7051  3.3273  1.2069
 4749TIP3   OH235661   1.818   4.983   4.599  0.0256  0.4876  0.0730
 4749TIP3    H135662   1.863   5.038   4.535  1.0768  0.5038  0.7969
 4749TIP3    H235663   1.886   4.926   4.634 -0.1484  1.5607  2.3244
 4750TIP3   OH235664   0.713   1.412   3.872  0.1519 -0.3289 -0.0857
 4750TIP3    H135665   0.663   1.402   3.953 -1.1202  0.9764 -0.6758
 4750TIP3    H235666   0.663   1.364   3.806 -0.2018  0.7313 -0.6152
 4751TIP3   OH235667   2.554   5.161   5.428  0.1735 -0.1430 -0.4709
 4751TIP3    H135668   2.510   5.131   5.508 -1.3770  1.5269 -0.6144
 4751TIP3    H235669   2.608   5.234   5.458 -0.3695  0.4507 -0.9145
 4752TIP3   OH235670   0.129   3.354  11.675 -0.3648 -0.5983 -0.0232
 4752TIP3    H135671   0.198   3.404  11.633  0.4775 -1.2276  0.5706
 4752TIP3    H235672   0.050   3.406  11.663  0.5064  0.9557  0.7142
 4753TIP3   OH235673   5.869   6.403  15.467 -0.4222  0.1654 -0.1272
 4753TIP3    H135674   5.850   6.309  15.479  1.1806 -0.3857 -1.5772
 4753TIP3    H235675   5.858   6.418  15.374  0.3584  1.1748 -0.0690
 4754TIP3   OH235676   3.029   3.926  14.475 -0.1665 -0.0465 -0.1817
 4754TIP3    H135677   2.951   3.972  14.504 -0.6442 -2.1132  2.1172
 4754TIP3    H235678   2.996   3.856  14.419 -0.0479 -1.1018  1.0269
 4755TIP3   OH235679   1.720   2.382  11.731 -0.0995 -0.6225  0.3385
 4755TIP3    H135680   1.673   2.303  11.704 -1.5311  0.4317 -0.3785
 4755TIP3    H235681   1.739   2.428  11.649  0.3541 -0.0096  0.7707
 4756TIP3   OH235682   1.098   0.941   4.232 -0.0145 -0.3971 -0.7173
 4756TIP3    H135683   1.127   1.002   4.300  1.6146 -0.8638 -0.9537
 4756TIP3    H235684   1.029   0.889   4.274 -1.7707  1.8252 -0.6394
 4757TIP3   OH235685   2.504   5.702  14.381  0.3112  0.6685  0.7077
 4757TIP3    H135686   2.513   5.622  14.433 -1.0968 -1.7979 -2.4682
 4757TIP3    H235687   2.595   5.731  14.366  0.8198  0.0441  2.3826
 4758TIP3   OH235688   5.319   5.987   4.241 -0.3591  0.3642 -0.0031
 4758TIP3    H135689   5.266   5.907   4.243 -1.3425  0.9970 -0.4286
 4758TIP3    H235690   5.256   6.058   4.232  0.5782  1.1204 -0.8717
 4759TIP3   OH235691   3.468   5.148   2.041 -0.0206 -0.9993 -0.0924
 4759TIP3    H135692   3.414   5.171   2.117 -2.6883 -1.6151 -1.6518
 4759TIP3    H235693   3.446   5.215   1.975  2.4623 -0.2961 -0.2958
 4760TIP3   OH235694   0.415   5.556  11.811 -0.2710 -0.2354  0.4121
 4760TIP3    H135695   0.504   5.579  11.786  0.1911 -0.2486  1.9813
 4760TIP3    H235696   0.365   5.561  11.729  1.1125 -0.0223 -0.4422
 4761TIP3   OH235697   0.101   2.860   4.493  0.1109 -0.6304  0.3002
 4761TIP3    H135698   0.013   2.841   4.460 -0.1018  0.8242 -0.0698
 4761TIP3    H235699   0.129   2.937   4.443  2.2619 -1.9764 -0.7377
 4762TIP3   OH235700   5.409   2.392   5.627 -0.2325 -0.3533 -0.5384
 4762TIP3    H135701   5.419   2.377   5.533  2.2192  0.2555 -0.4551
 4762TIP3    H235702   5.410   2.487   5.637  0.7078 -0.4220  0.1711
 4763TIP3   OH235703   1.158   3.704   5.027  0.2709 -0.0442  0.0211
 4763TIP3    H135704   1.158   3.774   4.962 -1.8572  0.2435  0.2418
 4763TIP3    H235705   1.226   3.643   4.998 -0.1735  0.3988 -2.1153
 4764TIP3   OH235706   5.619   5.074   4.585 -0.5470  0.4664 -0.5685
 4764TIP3    H135707   5.695   5.016   4.577  1.3491  2.7111  0.3150
 4764TIP3    H235708   5.548   5.026   4.542  0.7476 -2.7198  0.5569
 4765TIP3   OH235709   2.052   3.106  12.546 -0.3812 -0.1809  0.0677
 4765TIP3    H135710   2.087   3.168  12.483 -1.8220  1.5263  0.8517
 4765TIP3    H235711   2.116   3.104  12.617  0.6550 -1.1867 -0.8632
 4766TIP3   OH235712   4.529   1.677   0.437 -0.2557 -0.2993 -0.1798
 4766TIP3    H135713   4.465   1.715   0.497  0.9305  0.5000  0.6269
 4766TIP3    H235714   4.510   1.717   0.353 -2.4688 -2.0465 -0.5698
 4767TIP3   OH235715   5.452   4.468  14.407 -0.5157 -0.2323  0.0945
 4767TIP3    H135716   5.476   4.410  14.480  2.8506  0.0113 -0.6259
 4767TIP3    H235717   5.455   4.411  14.330 -0.8040  0.1613 -0.2053
 4768TIP3   OH235718   4.397   4.302   4.932  0.3688 -0.3443 -0.0122
 4768TIP3    H135719   4.490   4.282   4.917  0.8961 -0.3725  2.8722
 4768TIP3    H235720   4.395   4.395   4.952 -0.1994 -0.3897  0.1513
 4769TIP3   OH235721   0.072   6.002  12.739 -0.2180  0.1779 -0.3146
 4769TIP3    H135722   0.058   5.921  12.788 -0.5435  0.4097 -0.0255
 4769TIP3    H235723   0.076   5.974  12.647 -0.6197 -0.1303 -0.2418
 4770TIP3   OH235724   3.140   2.600  12.844  0.9983  0.2340 -0.0565
 4770TIP3    H135725   3.067   2.646  12.801  0.5806  0.5072  0.9219
 4770TIP3    H235726   3.101   2.559  12.920  1.5266 -1.1428 -0.5038
 4771TIP3   OH235727   3.180   0.019   4.834 -0.0153  0.2963  0.1170
 4771TIP3    H135728   3.106  -0.017   4.883  0.5507 -1.1956 -0.0974
 4771TIP3    H235729   3.231   0.068   4.899  0.6545 -1.5329  1.0262
 4772TIP3   OH235730   2.726   3.604   2.044 -0.3807 -0.0883  0.0121
 4772TIP3    H135731   2.645   3.601   2.095  0.3665  0.6292  1.2659
 4772TIP3    H235732   2.736   3.696   2.020  0.1431 -0.1499 -0.0039
 4773TIP3   OH235733   6.202   1.149  12.785  0.2413 -0.1177 -0.0745
 4773TIP3    H135734   6.196   1.106  12.700 -0.2824  1.2362 -0.7490
 4773TIP3    H235735   6.112   1.155  12.816  0.2404  1.0168 -0.2683
 4774TIP3   OH235736   4.644   1.694   1.316  0.4967  0.4407 -0.1460
 4774TIP3    H135737   4.681   1.754   1.252  0.3035 -0.0330 -0.7129
 4774TIP3    H235738   4.577   1.745   1.361 -0.1364  0.4589 -1.0850
 4775TIP3   OH235739   5.506   3.965   2.754  0.3886  0.3221 -0.2929
 4775TIP3    H135740   5.592   3.927   2.737  0.4532  0.6920 -0.8103
 4775TIP3    H235741   5.456   3.949   2.675  0.5419  1.6355 -0.6736
 4776TIP3   OH235742   3.071   5.030   1.515 -0.1243 -0.1898  0.6404
 4776TIP3    H135743   3.160   5.024   1.551  0.1924  1.8727  0.3523
 4776TIP3    H235744   3.055   5.124   1.509 -2.1487 -0.5299  0.1946
 4777TIP3   OH235745   4.899   2.066   1.339  0.6749  0.1795  0.4579
 4777TIP3    H135746   4.832   2.008   1.303  0.3029  0.3631  0.8519
 4777TIP3    H235747   4.923   2.124   1.267  0.8926 -0.3233  0.1248
 4778TIP3   OH235748   0.827   0.138   5.225 -0.1541  0.7163 -0.1424
 4778TIP3    H135749   0.809   0.195   5.300 -0.2569  1.1394 -0.4914
 4778TIP3    H235750   0.816   0.049   5.260  0.4519  0.8887  0.5233
 4779TIP3   OH235751   1.170   5.246  14.518 -0.8845  0.7217  0.2471
 4779TIP3    H135752   1.179   5.306  14.591 -0.9877  2.6845 -1.2637
 4779TIP3    H235753   1.079   5.255  14.490 -0.3594  1.5678 -1.3358
 4780TIP3   OH235754   5.827   2.051   1.746  0.0918  0.2067 -0.1844
 4780TIP3    H135755   5.741   2.052   1.789  0.4104 -0.1279  0.4890
 4780TIP3    H235756   5.831   2.133   1.697 -1.2219 -0.4540 -1.4701
 4781TIP3   OH235757   0.589   1.786   1.076  0.0239 -0.3887 -0.0177
 4781TIP3    H135758   0.502   1.816   1.102  0.1630 -0.4557  0.5322
 4781TIP3    H235759   0.625   1.859   1.026 -1.0523 -1.0507 -1.8926
 4782TIP3   OH235760   2.718   6.424   0.250  0.1570 -0.5173 -0.9288
 4782TIP3    H135761   2.800   6.466   0.226  0.1773 -0.7434 -1.2579
 4782TIP3    H235762   2.700   6.456   0.339  2.0812 -2.6523  0.3442
 4783TIP3   OH235763   4.879   1.972   2.062  1.0870  0.2250  0.0479
 4783TIP3    H135764   4.848   2.037   1.999 -1.9578 -1.3475 -0.2267
 4783TIP3    H235765   4.893   1.892   2.010 -0.8673 -0.9224  1.1794
 4784TIP3   OH235766   4.477   3.516   3.050 -0.2742  0.6404 -0.1378
 4784TIP3    H135767   4.429   3.578   2.995  0.3552  0.0048 -1.4356
 4784TIP3    H235768   4.566   3.517   3.016  0.3695  0.8923  1.4627
 4785TIP3   OH235769   3.334   4.100   4.890  0.0435 -0.0922  0.4229
 4785TIP3    H135770   3.385   4.022   4.914 -0.2583  0.1741  2.0472
 4785TIP3    H235771   3.374   4.130   4.808  0.3905 -1.7430 -0.0593
 4786TIP3   OH235772   4.574   2.640   2.346 -0.0421 -0.7655  0.4973
 4786TIP3    H135773   4.589   2.732   2.367  0.1644 -0.8898  0.8998
 4786TIP3    H235774   4.485   2.622   2.376  0.4883 -1.1242  1.9300
 4787TIP3   OH235775   1.030   0.321   4.054 -0.1583 -0.0960  0.4830
 4787TIP3    H135776   1.046   0.270   4.133 -1.2630  0.5503  1.1539
 4787TIP3    H235777   0.995   0.404   4.086 -1.7556 -0.2550 -0.7345
 4788TIP3   OH235778   0.218   2.655  12.119  0.2624  0.0262  0.3291
 4788TIP3    H135779   0.189   2.731  12.069  1.0309 -0.8287 -1.5222
 4788TIP3    H235780   0.265   2.693  12.194 -0.3649  1.3641  0.0802
 4789TIP3   OH235781   0.347   0.391   1.501 -0.2840  0.1906 -0.0585
 4789TIP3    H135782   0.349   0.484   1.522 -1.1213  0.0483  0.7436
 4789TIP3    H235783   0.357   0.348   1.586  2.5858 -0.5040 -0.6412
 4790TIP3   OH235784   5.387   6.765  15.938 -0.9571 -0.3714  0.2818
 4790TIP3    H135785   5.363   6.678  15.905  1.0621 -0.6852 -0.4938
 4790TIP3    H235786   5.463   6.790  15.887  0.4518  0.4686  2.6178
 4791TIP3   OH235787   0.616   0.797  12.673  0.4433  0.3514  0.2320
 4791TIP3    H135788   0.636   0.730  12.739 -1.2002  2.3886  3.0241
 4791TIP3    H235789   0.661   0.876  12.704 -1.4966  1.7220 -0.2496
 4792TIP3   OH235790   6.082   1.150   5.368 -0.4742  0.2123 -0.4873
 4792TIP3    H135791   6.170   1.125   5.393 -0.8830 -0.5202  0.2583
 4792TIP3    H235792   6.090   1.242   5.342  0.5371  0.0955 -0.6351
 4793TIP3   OH235793   6.723   3.947  10.363  0.2515 -0.2624  0.3080
 4793TIP3    H135794   6.638   3.924  10.401  0.2540 -1.0370 -0.1382
 4793TIP3    H235795   6.744   4.032  10.402 -2.0029  1.3312 -1.6226
 4794TIP3   OH235796   3.458   0.678  11.671  0.0359  0.2086 -0.8323
 4794TIP3    H135797   3.445   0.702  11.579 -2.2255 -0.5514 -0.7579
 4794TIP3    H235798   3.533   0.731  11.699  0.2501  1.0674 -2.8821
 4795TIP3   OH235799   3.582   5.491   4.893 -0.6840 -0.3322  0.4751
 4795TIP3    H135800   3.628   5.437   4.828 -0.7178  0.8743 -0.5937
 4795TIP3    H235801   3.637   5.569   4.902 -1.6104  0.3272  0.5243
 4796TIP3   OH235802   5.105   1.828   6.279  0.0080  0.5571 -0.2201
 4796TIP3    H135803   5.139   1.744   6.309  0.1371  0.8807  0.5421
 4796TIP3    H235804   5.181   1.875   6.246  0.4230  1.4343  1.8374
 4797TIP3   OH235805   6.014   1.216  14.353  0.5095  0.4763 -0.5541
 4797TIP3    H135806   5.967   1.239  14.273 -0.7950 -0.8670 -0.2158
 4797TIP3    H235807   5.946   1.216  14.421  1.5069  1.1073  0.4730
 4798TIP3   OH235808   4.505   0.504  13.011  0.2491 -0.3793 -0.1020
 4798TIP3    H135809   4.576   0.455  12.970  0.6040  0.5882 -0.6643
 4798TIP3    H235810   4.526   0.501  13.105  0.9203 -0.2870 -0.2399
 4799TIP3   OH235811   6.328   5.610  15.553  0.2985  0.2476  0.8099
 4799TIP3    H135812   6.312   5.703  15.535 -0.1218 -0.2729 -1.9104
 4799TIP3    H235813   6.388   5.582  15.484  0.5597 -1.4973  1.6849
 4800TIP3   OH235814   0.630   3.579  16.015 -0.0095 -0.2105  0.1985
 4800TIP3    H135815   0.594   3.555  16.100  1.8821 -0.0804  1.0986
 4800TIP3    H235816   0.594   3.515  15.954 -1.2853 -0.3967  1.1093
 4801TIP3   OH235817   0.893   2.186   5.400 -0.0985 -0.3517 -0.3313
 4801TIP3    H135818   0.934   2.266   5.366 -0.1859  1.7581  3.9062
 4801TIP3    H235819   0.961   2.119   5.391  1.4326  1.1607 -0.5197
 4802TIP3   OH235820   5.147   3.784  16.425  0.5948 -0.8242  0.0658
 4802TIP3    H135821   5.179   3.785  16.516  0.1493  1.7177  0.2595
 4802TIP3    H235822   5.066   3.733  16.430  1.1808 -1.7382  0.8293
 4803TIP3   OH235823   2.539   3.352  12.678  0.0421 -0.1932 -0.5483
 4803TIP3    H135824   2.479   3.424  12.659  2.5016  2.2874  0.2460
 4803TIP3    H235825   2.601   3.352  12.605  1.7413  0.5076  0.8061
 4804TIP3   OH235826   5.227   5.554   4.659 -0.5225  0.5270  0.3936
 4804TIP3    H135827   5.321   5.547   4.673 -0.4368  1.4224  0.2875
 4804TIP3    H235828   5.208   5.490   4.589  0.1098  0.8248 -0.0538
 4805TIP3   OH235829   6.007   2.767   1.913  0.6124 -0.2907 -0.0767
 4805TIP3    H135830   5.981   2.850   1.872  2.6793 -0.1016 -1.1547
 4805TIP3    H235831   5.977   2.775   2.004 -0.4551  1.0409 -0.5098
 4806TIP3   OH235832   1.679   3.982   3.578  0.4345 -0.0996 -0.0879
 4806TIP3    H135833   1.765   3.974   3.537  0.3080  1.1366 -0.6664
 4806TIP3    H235834   1.630   4.040   3.519 -0.2002  0.6563  1.1405
 4807TIP3   OH235835   4.304   1.917  15.492  0.6589 -0.1376  0.0892
 4807TIP3    H135836   4.392   1.915  15.531  0.6107  0.9078  0.2945
 4807TIP3    H235837   4.313   1.867  15.410  1.3975 -0.1974  0.1942
 4808TIP3   OH235838   0.384   2.420   1.837  0.3142 -0.3487 -0.1594
 4808TIP3    H135839   0.480   2.419   1.836  0.3743  0.7983 -2.5390
 4808TIP3    H235840   0.360   2.331   1.810  0.6588 -0.8308  1.0454
 4809TIP3   OH235841   3.692   0.813   3.384  0.3758 -0.5130 -0.3340
 4809TIP3    H135842   3.737   0.862   3.315  0.3258  0.9400  0.6160
 4809TIP3    H235843   3.726   0.850   3.466 -0.5195 -1.2961  0.4197
 4810TIP3   OH235844   2.955   5.522   3.071 -0.3712  0.1344 -0.1459
 4810TIP3    H135845   2.887   5.467   3.033  0.3010 -0.7032 -0.1559
 4810TIP3    H235846   2.938   5.609   3.035 -2.3472  0.2924  0.9941
 4811TIP3   OH235847   1.239   6.593  16.326 -0.1736 -0.0894  0.3905
 4811TIP3    H135848   1.222   6.500  16.316 -0.8774  0.0878 -0.1093
 4811TIP3    H235849   1.152   6.634  16.326  0.1890  0.7450 -1.1677
 4812TIP3   OH235850   5.910   6.011   1.470 -0.3032 -0.0235 -0.9746
 4812TIP3    H135851   5.939   5.931   1.513 -0.5450  0.6792  0.5518
 4812TIP3    H235852   5.972   6.024   1.398  0.1870 -1.1561 -0.7724
 4813TIP3   OH235853   0.887   4.709  12.540  0.4994  0.1513 -0.4235
 4813TIP3    H135854   0.886   4.616  12.560 -2.5097 -0.0966 -1.2741
 4813TIP3    H235855   0.901   4.714  12.445 -1.7272  0.3520 -0.7977
 4814TIP3   OH235856   0.687   2.006   0.963 -0.3581 -0.2477  0.1733
 4814TIP3    H135857   0.742   2.037   1.035  1.0538  0.0593 -0.9849
 4814TIP3    H235858   0.746   1.956   0.907 -1.3533 -0.2573 -0.9180
 4815TIP3   OH235859   5.391   1.688   2.856  0.3871 -0.0617  0.0316
 4815TIP3    H135860   5.407   1.638   2.776  2.1453 -1.6254  1.2897
 4815TIP3    H235861   5.309   1.651   2.891 -0.8758  1.2223 -1.4050
 4816TIP3   OH235862   5.185   3.361   2.413 -0.3780  0.0772  0.3115
 4816TIP3    H135863   5.100   3.387   2.379  0.0869  1.7406  0.3504
 4816TIP3    H235864   5.184   3.386   2.505  0.8955  2.2137 -0.1726
 4817TIP3   OH235865   3.736   5.714  13.203  0.3693 -0.4976 -0.5146
 4817TIP3    H135866   3.720   5.714  13.109  2.3150 -0.9032 -0.8768
 4817TIP3    H235867   3.668   5.657  13.239 -0.7250  0.0991 -1.5905
 4818TIP3   OH235868   0.763   3.125   4.890  0.0673  0.3295 -0.3941
 4818TIP3    H135869   0.843   3.127   4.942 -0.1914  0.4139  0.0101
 4818TIP3    H235870   0.775   3.054   4.828  0.4050  0.2645 -0.2520
 4819TIP3   OH235871   5.782   0.876   1.196 -0.1715 -0.4526 -0.1187
 4819TIP3    H135872   5.717   0.824   1.149  0.1952  1.3296 -2.8492
 4819TIP3    H235873   5.853   0.888   1.133 -1.1657  5.0534 -0.7212
 4820TIP3   OH235874   3.382   6.003   0.586  0.4542  0.0934 -0.3249
 4820TIP3    H135875   3.375   6.047   0.501  0.4230 -0.4403 -0.6017
 4820TIP3    H235876   3.312   6.042   0.638  0.1329  0.0517 -0.7145
 4821TIP3   OH235877   4.839   3.777  12.395 -0.2101  0.5010 -0.2304
 4821TIP3    H135878   4.843   3.708  12.329  1.3386 -0.6063  0.9533
 4821TIP3    H235879   4.745   3.787  12.413 -0.4695 -1.6201 -0.1352
 4822TIP3   OH235880   3.753   1.363   1.982 -0.3585 -0.0251 -0.5491
 4822TIP3    H135881   3.765   1.410   2.065  1.9631 -2.6158  0.7597
 4822TIP3    H235882   3.765   1.430   1.915  0.0792  1.7362  1.1863
 4823TIP3   OH235883   1.133   0.499  12.123 -0.1916  0.1398  0.4046
 4823TIP3    H135884   1.215   0.490  12.171 -0.4311 -0.2423  0.7413
 4823TIP3    H235885   1.157   0.483  12.031 -0.2707 -2.1922  0.7480
 4824TIP3   OH235886   3.975   0.156  16.418 -0.7963  0.7514  0.4469
 4824TIP3    H135887   4.063   0.133  16.390 -0.4558 -0.0824  2.0758
 4824TIP3    H235888   3.922   0.078  16.398 -1.1987  1.2748 -0.5915
 4825TIP3   OH235889   5.360   2.726  15.901  0.5856 -0.3412  0.2607
 4825TIP3    H135890   5.388   2.643  15.941  2.7353  0.6519  0.9722
 4825TIP3    H235891   5.287   2.755  15.956  1.5455 -0.4891  1.6812
 4826TIP3   OH235892   3.221   2.112  10.844 -0.0787  0.1117  0.0944
 4826TIP3    H135893   3.293   2.174  10.834  1.3533 -1.4855 -0.0640
 4826TIP3    H235894   3.159   2.136  10.775  0.4669  1.2956 -0.0121
 4827TIP3   OH235895   3.960   1.902   3.313 -0.3176 -0.3615 -0.0463
 4827TIP3    H135896   3.977   1.857   3.230  1.4365 -0.1459  0.1699
 4827TIP3    H235897   3.987   1.993   3.297 -1.3148  0.0263  0.3455
 4828TIP3   OH235898   0.573   5.993   4.476  0.0461 -0.0182 -0.3101
 4828TIP3    H135899   0.480   5.980   4.496 -0.2088  0.9237 -0.8500
 4828TIP3    H235900   0.609   5.904   4.472 -0.7460 -0.3818  0.2801
 4829TIP3   OH235901   2.563   5.787   1.314 -0.3738  0.1893 -0.1021
 4829TIP3    H135902   2.553   5.692   1.302 -2.5024  0.5746 -2.2695
 4829TIP3    H235903   2.493   5.825   1.261  1.0328  3.0390 -0.1101
 4830TIP3   OH235904   0.425   4.196   2.608  0.3229 -0.4723 -0.2592
 4830TIP3    H135905   0.394   4.286   2.617  0.1748 -0.7303  2.4405
 4830TIP3    H235906   0.518   4.205   2.586 -0.1869  0.2861 -2.3319
 4831TIP3   OH235907   0.869   5.394  11.621 -0.3111  0.0695  0.1101
 4831TIP3    H135908   0.913   5.320  11.579 -2.2228 -2.3356  2.0209
 4831TIP3    H235909   0.820   5.437  11.551  0.6890 -0.5699 -1.0141
 4832TIP3   OH235910   0.082   4.457  11.158 -0.3664 -0.3525  1.1994
 4832TIP3    H135911  -0.005   4.435  11.191  0.4455 -1.6218  2.6519
 4832TIP3    H235912   0.089   4.408  11.076 -1.0400 -0.1933  1.0426
 4833TIP3   OH235913   0.730   4.236   1.243  0.5116  0.3980  0.3060
 4833TIP3    H135914   0.651   4.229   1.296  0.6033  1.4935  0.6036
 4833TIP3    H235915   0.698   4.262   1.156  0.5860  1.7811  0.6633
 4834TIP3   OH235916   1.144   6.007  11.018 -0.1417  0.5108 -0.1913
 4834TIP3    H135917   1.168   5.940  10.954 -0.0040  1.1870 -0.8601
 4834TIP3    H235918   1.167   6.090  10.977  1.2500  0.9222  1.3019
 4835TIP3   OH235919   1.190   3.194   5.221 -0.1171 -0.1110  0.0259
 4835TIP3    H135920   1.173   3.189   5.315  1.5098  1.5621  0.4618
 4835TIP3    H235921   1.243   3.273   5.210  0.4124 -0.7076 -2.2034
 4836TIP3   OH235922   1.708   0.503  10.855 -0.0397  0.7377  0.0248
 4836TIP3    H135923   1.727   0.568  10.788  1.8671  0.0006 -0.2259
 4836TIP3    H235924   1.613   0.492  10.852 -0.2666  2.5538 -0.7862
 4837TIP3   OH235925   6.252   6.349   4.815  0.1732 -0.5925  0.5070
 4837TIP3    H135926   6.175   6.292   4.813  0.1545 -0.6015 -2.0540
 4837TIP3    H235927   6.217   6.436   4.796  0.4995 -0.0672  2.1231
 4838TIP3   OH235928   1.565   2.525   1.100 -0.6857  0.0352 -0.0489
 4838TIP3    H135929   1.565   2.608   1.052  0.0785  0.1969  0.2159
 4838TIP3    H235930   1.477   2.491   1.089 -0.1686 -0.6698 -2.8564
 4839TIP3   OH235931   3.792   3.232  13.719 -1.1172 -0.2373  0.3156
 4839TIP3    H135932   3.705   3.271  13.731 -1.0424 -0.2174  0.8127
 4839TIP3    H235933   3.811   3.245  13.626 -0.0346  3.1371  0.8849
 4840TIP3   OH235934   4.068   6.642   1.324  0.3138 -0.1138 -0.3574
 4840TIP3    H135935   3.984   6.600   1.304  1.2593 -1.8341 -0.8978
 4840TIP3    H235936   4.069   6.720   1.269  0.3127 -1.6625 -2.7192
 4841TIP3   OH235937   2.932   1.672  15.530  0.1414  0.2097 -0.2967
 4841TIP3    H135938   2.950   1.664  15.624 -0.1171 -0.5043 -0.3049
 4841TIP3    H235939   2.941   1.766  15.513 -0.4427  0.4396  0.5688
 4842TIP3   OH235940   2.288   0.687  15.256  0.2079  0.6020 -0.6715
 4842TIP3    H135941   2.216   0.680  15.193 -0.4174 -2.2897  0.2052
 4842TIP3    H235942   2.250   0.658  15.339  2.1289 -0.0354  0.0465
 4843TIP3   OH235943   6.451   3.300   2.344 -0.1774  0.0951  0.1069
 4843TIP3    H135944   6.402   3.336   2.418  0.0807 -0.3446  0.4979
 4843TIP3    H235945   6.431   3.359   2.271 -1.3253 -0.0951  0.2453
 4844TIP3   OH235946   1.395   2.862   3.897  0.9541  0.0139  0.0620
 4844TIP3    H135947   1.445   2.920   3.840  2.0020 -0.0551  0.8811
 4844TIP3    H235948   1.448   2.783   3.904 -0.6821 -1.3097 -1.4448
 4845TIP3   OH235949   5.596   0.816  12.565  0.0590 -0.2712 -0.2861
 4845TIP3    H135950   5.517   0.845  12.609 -0.2463 -0.4457 -0.7110
 4845TIP3    H235951   5.631   0.747  12.621  2.4173  2.7443  2.3480
 4846TIP3   OH235952   5.217   1.919   3.822 -0.6551  0.0065  0.3649
 4846TIP3    H135953   5.222   1.943   3.915 -1.2655 -0.6267  0.5661
 4846TIP3    H235954   5.203   1.825   3.823  2.2305 -0.5435 -0.4069
 4847TIP3   OH235955   3.414   6.696   4.724 -0.1307 -0.3487  0.1387
 4847TIP3    H135956   3.327   6.716   4.759  0.4335  1.3846  0.6348
 4847TIP3    H235957   3.414   6.733   4.636  0.4729  0.6844  0.5607
 4848TIP3   OH235958   2.743   4.575  13.985 -0.0815  0.3520  0.0359
 4848TIP3    H135959   2.695   4.554  13.905 -0.8379 -1.8959  0.9958
 4848TIP3    H235960   2.809   4.639  13.958 -0.2057 -0.4512 -2.4066
 4849TIP3   OH235961   1.917   5.074   1.876  0.4535 -0.4071  0.2222
 4849TIP3    H135962   1.825   5.070   1.903  0.2607  1.3393 -0.0496
 4849TIP3    H235963   1.932   5.167   1.855  2.3044 -0.6375  0.3525
 4850TIP3   OH235964   6.759   1.979   4.891 -0.2910  0.7886  0.2202
 4850TIP3    H135965   6.696   1.944   4.828  1.2378 -1.4624 -0.1634
 4850TIP3    H235966   6.844   1.962   4.851  0.7201 -0.3378  2.6749
 4851TIP3   OH235967   0.362   0.620   5.602 -0.1145  0.0875  0.1269
 4851TIP3    H135968   0.294   0.554   5.618 -0.8039  0.5719 -0.7678
 4851TIP3    H235969   0.444   0.570   5.605 -0.5372 -0.6044  0.6227
 4852TIP3   OH235970   2.684   0.136   2.514  0.0669  0.6018 -0.0365
 4852TIP3    H135971   2.640   0.213   2.550 -1.2755 -0.1248 -0.0471
 4852TIP3    H235972   2.714   0.088   2.591  1.1015  1.2086 -0.0331
 4853TIP3   OH235973   1.801   2.956   4.308  0.4751  0.2579  0.3249
 4853TIP3    H135974   1.889   2.993   4.305  0.4486  0.5918  2.4929
 4853TIP3    H235975   1.762   2.993   4.387 -0.4130 -2.4479  1.2607
 4854TIP3   OH235976   4.857   5.047  11.455  0.1751 -0.6733  0.5033
 4854TIP3    H135977   4.807   4.990  11.513  1.1249  0.2591  2.3504
 4854TIP3    H235978   4.814   5.133  11.463  0.5557 -0.4484  0.1541
 4855TIP3   OH235979   5.709   4.064   5.205  0.0704  0.1446  0.0320
 4855TIP3    H135980   5.743   4.117   5.133  1.1302  1.0165  1.1385
 4855TIP3    H235981   5.777   4.068   5.272 -1.1442 -0.1626  1.3222
 4856TIP3   OH235982   2.144   4.284   2.619  0.0923  0.0887 -0.5168
 4856TIP3    H135983   2.211   4.274   2.687 -1.6251 -0.9669  1.1039
 4856TIP3    H235984   2.189   4.331   2.549  1.5708  2.7432  1.9448
 4857TIP3   OH235985   3.622   5.829  13.791 -0.0520  0.1463 -0.2888
 4857TIP3    H135986   3.661   5.794  13.871  0.0862 -2.7707 -1.4948
 4857TIP3    H235987   3.692   5.881  13.751  0.6541 -0.2782  0.3608
 4858TIP3   OH235988   1.035   6.362  11.505 -0.4291 -0.0161  0.0849
 4858TIP3    H135989   0.974   6.305  11.458 -0.8414 -1.6233  2.3989
 4858TIP3    H235990   0.980   6.407  11.570  0.3544  0.9435  0.1009
 4859TIP3   OH235991   2.071   3.379   3.330  0.0730  0.3321 -0.1627
 4859TIP3    H135992   2.001   3.411   3.387  1.3251  2.1702  0.4549
 4859TIP3    H235993   2.032   3.375   3.243 -0.9720  0.6881  0.2790
 4860TIP3   OH235994   4.161   0.395   4.478 -0.1346 -0.1475 -0.2608
 4860TIP3    H135995   4.096   0.441   4.531  1.7283  2.9504 -0.4047
 4860TIP3    H235996   4.232   0.375   4.539  0.9816  1.2681 -1.0470
 4861TIP3   OH235997   1.918   6.675  15.372  0.0528 -0.2038 -0.1649
 4861TIP3    H135998   1.977   6.606  15.343  1.0680  0.6337 -0.1730
 4861TIP3    H235999   1.839   6.630  15.401  0.0367 -1.2578 -1.7313
 4862TIP3   OH236000   1.805   5.586   5.542  0.3233  1.0941  0.4150
 4862TIP3    H136001   1.799   5.551   5.454  0.1514  1.8401  0.1246
 4862TIP3    H236002   1.758   5.523   5.597 -0.0863  0.9385 -0.1144
 4863TIP3   OH236003   1.046   3.147  11.995 -0.3614  0.2280  0.5074
 4863TIP3    H136004   1.083   3.092  12.064 -1.0234  0.5607  1.1374
 4863TIP3    H236005   1.074   3.236  12.017 -0.0948  0.2721  0.0197
 4864TIP3   OH236006   6.283   2.589   2.244  0.1971 -0.1467  0.0680
 4864TIP3    H136007   6.245   2.638   2.171  0.1863 -0.7103 -0.3066
 4864TIP3    H236008   6.232   2.508   2.248  0.0924 -0.0458  0.8079
 4865TIP3   OH236009   5.698   0.710  15.705  0.0011 -0.1440 -0.3264
 4865TIP3    H136010   5.610   0.730  15.674 -1.2464 -1.1374  2.2645
 4865TIP3    H236011   5.690   0.624  15.747  1.4140  1.0403  2.6896
 4866TIP3   OH236012   1.483   4.350   0.106 -0.4607 -0.0389 -0.0871
 4866TIP3    H136013   1.414   4.284   0.114 -2.4070  1.7711 -1.0029
 4866TIP3    H236014   1.487   4.370   0.012  0.9768  0.2734  0.0113
 4867TIP3   OH236015   2.677   1.712  10.648 -0.5201  0.5427 -0.2460
 4867TIP3    H136016   2.588   1.749  10.648 -0.4048  0.9019  1.3707
 4867TIP3    H236017   2.666   1.623  10.681 -0.2717  0.6344  0.0889
 4868TIP3   OH236018   4.983   0.153  17.194  0.0633  0.4549  0.1594
 4868TIP3    H136019   5.077   0.163  17.178  0.7027 -3.0140  0.7466
 4868TIP3    H236020   4.948   0.123  17.110 -0.1771  0.0905  0.3895
 4869TIP3   OH236021   1.711   6.491  16.094  0.1400 -0.2543  0.2059
 4869TIP3    H136022   1.793   6.494  16.144  0.0053 -1.6805  0.5765
 4869TIP3    H236023   1.670   6.576  16.109  1.7739  0.6979 -0.4008
 4870TIP3   OH236024   6.614   6.480  13.632  0.3253 -0.2389  0.6993
 4870TIP3    H136025   6.640   6.477  13.540  0.0735 -1.5377  0.6581
 4870TIP3    H236026   6.663   6.409  13.673 -2.2488 -2.0610  0.8340
 4871TIP3   OH236027   2.867   4.896   0.706  0.2675 -0.5623 -0.7080
 4871TIP3    H136028   2.935   4.962   0.692  0.3759 -0.8761 -1.6813
 4871TIP3    H236029   2.799   4.916   0.642 -0.0317 -0.9603 -0.5242
 4872TIP3   OH236030   4.096   1.033   3.348 -0.1188  0.2757  0.4780
 4872TIP3    H136031   4.172   1.042   3.290  0.7115 -0.4174  1.4307
 4872TIP3    H236032   4.127   1.060   3.434 -1.0785  0.3910  0.8074
 4873TIP3   OH236033   1.712   3.927  12.170  0.8269  0.0755 -0.8515
 4873TIP3    H136034   1.779   3.860  12.185  0.0530 -0.9979 -1.9711
 4873TIP3    H236035   1.758   3.997  12.124  1.6034  0.2484  0.1515
 4874TIP3   OH236036   1.103   3.654  15.869  0.1814 -0.7244 -0.0563
 4874TIP3    H136037   1.070   3.617  15.951 -0.5767  1.2001  0.5720
 4874TIP3    H236038   1.109   3.748  15.886 -3.0392  0.2638 -3.1258
 4875TIP3   OH236039   0.029   2.739  14.681  0.0762 -0.6757  0.5946
 4875TIP3    H136040   0.119   2.763  14.656  0.1236 -0.4081  1.0068
 4875TIP3    H236041   0.013   2.788  14.761 -0.4735 -0.6609  0.4772
 4876TIP3   OH236042   3.388   2.918  17.149  0.3000 -0.1309  0.5286
 4876TIP3    H136043   3.336   2.870  17.214  0.6533 -2.4951 -0.7988
 4876TIP3    H236044   3.477   2.919  17.185  0.2550 -0.3403  0.6464
 4877TIP3   OH236045   1.575   3.366  13.215 -0.0942  0.0195 -0.4741
 4877TIP3    H136046   1.642   3.423  13.254 -0.7186  0.9408 -0.6992
 4877TIP3    H236047   1.557   3.404  13.129  0.1846 -1.1184 -1.0514
 4878TIP3   OH236048   2.256   1.577  12.501  0.2636  0.2358 -0.5381
 4878TIP3    H136049   2.350   1.597  12.505  0.0656  1.0170  0.3680
 4878TIP3    H236050   2.250   1.507  12.436  1.5062 -0.0080 -0.4202
 4879TIP3   OH236051   4.304   0.480   1.632  0.3787  0.3291  0.3876
 4879TIP3    H136052   4.281   0.484   1.539 -0.7628  0.6687  0.6752
 4879TIP3    H236053   4.399   0.495   1.633  0.2851  1.1485 -0.6631
 4880TIP3   OH236054   4.025   1.361  16.077 -0.3391  0.2101  0.0653
 4880TIP3    H136055   3.954   1.299  16.093 -0.5341  1.0060  2.9751
 4880TIP3    H236056   4.105   1.309  16.088 -0.5035  0.1658  1.1643
 4881TIP3   OH236057   5.729   4.486   3.850  0.0602 -0.0799  0.0990
 4881TIP3    H136058   5.782   4.488   3.770  1.3591  0.5050  0.9412
 4881TIP3    H236059   5.653   4.540   3.829  0.7636  0.7102 -0.5245
 4882TIP3   OH236060   4.519   4.786  14.590  0.0897  0.3821 -0.1980
 4882TIP3    H136061   4.439   4.785  14.538 -2.0491 -2.1362  2.7657
 4882TIP3    H236062   4.566   4.707  14.563 -0.4695 -0.3081  0.7562
 4883TIP3   OH236063   4.259   1.550   1.878  0.4286 -0.0057 -0.7053
 4883TIP3    H136064   4.287   1.594   1.958  0.4524 -0.3640 -0.5153
 4883TIP3    H236065   4.310   1.591   1.809  2.3250 -1.4424 -0.2364
 4884TIP3   OH236066   6.379   6.734  16.719  0.1300  0.0371 -0.5587
 4884TIP3    H136067   6.342   6.793  16.785  0.4955  0.9514 -1.1476
 4884TIP3    H236068   6.303   6.706  16.667 -0.1862 -0.8416  0.3513
 4885TIP3   OH236069   3.695   2.318  16.769 -0.0307 -0.7219  0.0828
 4885TIP3    H136070   3.763   2.347  16.709 -0.6058 -0.0888 -0.2652
 4885TIP3    H236071   3.619   2.372  16.749 -0.0187  0.0337  1.8811
 4886TIP3   OH236072   1.402   4.216  14.225 -0.1635  0.2898 -0.1482
 4886TIP3    H136073   1.334   4.237  14.161  0.3174  0.3713 -0.6464
 4886TIP3    H236074   1.428   4.126  14.203  0.6099  0.6272 -0.6279
 4887TIP3   OH236075   5.981   3.756  11.260 -0.2461  0.1043 -0.1643
 4887TIP3    H136076   6.070   3.787  11.241 -0.2185 -0.8972 -1.8673
 4887TIP3    H236077   5.925   3.831  11.239 -0.1170 -0.5770 -3.5490
 4888TIP3   OH236078   4.892   3.229   0.032  0.5500  0.3190 -0.5637
 4888TIP3    H136079   4.850   3.198  -0.048  3.5798 -2.8705 -1.1658
 4888TIP3    H236080   4.974   3.269   0.003  0.2350  2.1064  0.8093
 4889TIP3   OH236081   4.369   5.451  16.140 -0.0643 -0.5066 -0.0837
 4889TIP3    H136082   4.411   5.487  16.062 -0.1522 -0.6235 -0.1857
 4889TIP3    H236083   4.330   5.526  16.184  1.2174 -0.2099  0.6177
 4890TIP3   OH236084   3.118   2.904  13.097 -0.0630  0.6892  0.0261
 4890TIP3    H136085   3.025   2.912  13.119  0.5022 -0.4727  3.3881
 4890TIP3    H236086   3.162   2.961  13.159  1.5739  0.5830 -0.9766
 4891TIP3   OH236087   4.976   2.080   0.668 -0.2168  0.3240 -0.7678
 4891TIP3    H136088   4.888   2.043   0.667  0.2230 -0.7493 -1.3466
 4891TIP3    H236089   5.001   2.084   0.576  0.5587  0.0716 -0.5708
 4892TIP3   OH236090   2.743   3.909  11.760 -0.3052  0.3603  0.4077
 4892TIP3    H136091   2.706   3.977  11.704  1.4631  0.5158 -0.6339
 4892TIP3    H236092   2.760   3.953  11.844 -0.8477  0.7143  0.3366
 4893TIP3   OH236093   0.887   4.883  12.931 -0.1469 -0.3471 -0.0798
 4893TIP3    H136094   0.917   4.792  12.924  1.3420  0.1854 -1.0776
 4893TIP3    H236095   0.949   4.924  12.991 -0.1929  0.2643 -0.4448
 4894TIP3   OH236096   0.066   3.073   1.641 -0.1024  0.3424 -0.2764
 4894TIP3    H136097  -0.004   3.071   1.577  0.0848 -0.9421 -0.4687
 4894TIP3    H236098   0.062   2.988   1.684  0.6181  0.6783  0.5018
 4895TIP3   OH236099   5.139   1.518  15.485  0.1080  0.3337  0.4271
 4895TIP3    H136100   5.104   1.607  15.483  0.1376  0.3450 -1.4663
 4895TIP3    H236101   5.234   1.530  15.487  0.1444  0.3797 -0.8963
 4896TIP3   OH236102   0.394   0.158   3.838 -0.5422  0.0244 -0.0059
 4896TIP3    H136103   0.414   0.215   3.764  0.6623 -0.8568 -0.3895
 4896TIP3    H236104   0.462   0.179   3.903  1.6671 -2.7617 -1.1835
 4897TIP3   OH236105   6.359   3.744   4.534  0.2629 -0.3209 -0.5501
 4897TIP3    H136106   6.294   3.674   4.543  1.3487 -1.2415  0.3696
 4897TIP3    H236107   6.370   3.777   4.623  0.6991  0.1615 -0.7811
 4898TIP3   OH236108   3.893   2.013  12.651 -0.4623  0.0531 -0.4865
 4898TIP3    H136109   3.801   2.016  12.679 -0.9457 -2.8369 -1.4216
 4898TIP3    H236110   3.901   1.929  12.605  3.0918 -0.6722  1.1201
 4899TIP3   OH236111   1.351   2.833  16.377  0.2057  0.6365  0.3289
 4899TIP3    H136112   1.356   2.792  16.463  0.5277 -2.2596 -0.9719
 4899TIP3    H236113   1.283   2.784  16.331 -0.2573  2.4034 -0.9665
 4900TIP3   OH236114   6.003   1.452   4.294 -0.2485 -0.1072  0.0908
 4900TIP3    H136115   6.030   1.527   4.347  0.7131  0.8494 -1.6768
 4900TIP3    H236116   6.001   1.379   4.356  1.9087  0.7346  1.2666
 4901TIP3   OH236117   6.606   3.538  14.220  0.1329  0.5203  0.1061
 4901TIP3    H136118   6.690   3.533  14.176 -0.0245  1.4727 -0.3316
 4901TIP3    H236119   6.617   3.487  14.300  0.9988  0.3167 -0.1405
 4902TIP3   OH236120   1.725   1.281  13.102  0.4745 -0.4081 -0.6488
 4902TIP3    H136121   1.748   1.281  13.010 -0.8513 -0.8357 -0.9960
 4902TIP3    H236122   1.631   1.262  13.104  0.1830  0.9503  0.7081
 4903TIP3   OH236123   5.574   4.099   0.683  0.0204  0.1295 -0.0069
 4903TIP3    H136124   5.551   4.041   0.610  0.3021 -0.8987  0.7096
 4903TIP3    H236125   5.542   4.054   0.761  1.2811  0.3745  0.6743
 4904TIP3   OH236126   3.108   2.099  13.758 -0.0778 -0.8957  0.3513
 4904TIP3    H136127   3.059   2.171  13.797 -0.1939 -0.1516 -1.0850
 4904TIP3    H236128   3.113   2.033  13.827 -2.6822 -0.8199  0.7027
 4905TIP3   OH236129   1.914   0.140   3.082  0.0232  0.2463  0.2832
 4905TIP3    H136130   1.922   0.176   3.170 -0.0726  0.6803  0.1174
 4905TIP3    H236131   2.003   0.116   3.057  0.3254  1.6750 -0.1405
 4906TIP3   OH236132   6.761   5.911   0.617  0.6025  0.2478 -0.0545
 4906TIP3    H136133   6.686   5.881   0.668  0.0583  1.1108 -0.3359
 4906TIP3    H236134   6.831   5.849   0.639 -0.7615 -1.9226 -1.4159
 4907TIP3   OH236135   6.441   3.712   2.208  0.3362  0.1546  0.4115
 4907TIP3    H136136   6.536   3.707   2.195  0.3595 -1.2725  0.8871
 4907TIP3    H236137   6.408   3.630   2.170 -0.6236  0.3472  0.8129
 4908TIP3   OH236138   1.540   5.137   1.070 -0.6104 -0.0915  0.2433
 4908TIP3    H136139   1.578   5.118   0.984 -0.1523 -1.3359  0.7007
 4908TIP3    H236140   1.452   5.101   1.066 -0.4268 -0.5731  0.4429
 4909TIP3   OH236141   5.835   0.797   4.980 -0.4041 -0.4214 -0.0638
 4909TIP3    H136142   5.813   0.705   4.988 -1.2228 -0.3672 -1.3495
 4909TIP3    H236143   5.900   0.813   5.048 -0.9913 -1.6961  0.8203
 4910TIP3   OH236144   6.245   0.200  11.348  0.1769  0.2176 -0.3979
 4910TIP3    H136145   6.175   0.134  11.356 -1.3039  1.9190  1.7014
 4910TIP3    H236146   6.323   0.156  11.382 -0.9303 -0.3152  1.6272
 4911TIP3   OH236147   2.138   2.674  14.367 -0.2303  0.2770  0.6301
 4911TIP3    H136148   2.086   2.722  14.432  0.2992 -0.7929  1.8732
 4911TIP3    H236149   2.223   2.718  14.368 -0.1373  0.0904  0.8526
 4912TIP3   OH236150   6.729   6.236  11.344  0.0412 -0.6560 -0.5466
 4912TIP3    H136151   6.727   6.316  11.291 -0.5180 -0.1179  0.2590
 4912TIP3    H236152   6.703   6.166  11.283 -0.4028 -0.0824 -1.0276
 4913TIP3   OH236153   3.456   4.990   3.605  0.4061  0.1029 -0.0954
 4913TIP3    H136154   3.399   4.992   3.528 -0.2938 -1.2972  0.3452
 4913TIP3    H236155   3.516   4.917   3.589 -0.2190 -0.6848  0.9723
 4914TIP3   OH236156   3.473   1.083   2.598 -0.5598 -0.1274 -0.0316
 4914TIP3    H136157   3.506   0.995   2.579 -0.2256  0.0866 -0.4637
 4914TIP3    H236158   3.385   1.069   2.633  0.2488 -0.7603  1.8785
 4915TIP3   OH236159   1.869   3.453   5.158  0.2834 -0.4716  0.1866
 4915TIP3    H136160   1.876   3.433   5.252  1.8633 -1.1800 -0.0530
 4915TIP3    H236161   1.938   3.401   5.117 -0.9572 -0.8596 -1.4971
 4916TIP3   OH236162   5.106   2.813   0.333 -0.2237 -0.4159 -0.2021
 4916TIP3    H136163   5.061   2.882   0.283 -0.2652  0.9661  1.6547
 4916TIP3    H236164   5.143   2.858   0.408  1.1086 -2.1861  0.2691
 4917TIP3   OH236165   0.078   4.152   2.607  0.0500  0.4283 -0.5282
 4917TIP3    H136166   0.107   4.061   2.605 -2.6242 -0.5621  0.9954
 4917TIP3    H236167   0.112   4.189   2.526  1.9288 -1.6373 -0.8108
 4918TIP3   OH236168   1.233   5.096   1.718 -0.2692  0.0612  0.6648
 4918TIP3    H136169   1.194   5.126   1.800  0.0439  1.3889  0.3646
 4918TIP3    H236170   1.267   5.176   1.677  1.0004 -0.7775 -0.0097
 4919TIP3   OH236171   1.326   0.449  14.908 -0.4384 -0.0813 -0.4307
 4919TIP3    H136172   1.354   0.491  14.828 -1.0401  1.7195  0.2431
 4919TIP3    H236173   1.289   0.520  14.961 -0.3431 -1.2506  1.3117
 4920TIP3   OH236174   0.815   5.331  15.351 -0.4210 -0.0608  0.2700
 4920TIP3    H136175   0.894   5.347  15.299 -0.4949  0.6856  0.3735
 4920TIP3    H236176   0.833   5.372  15.435 -0.5792 -0.6551  0.6012
 4921TIP3   OH236177   2.001   0.041   1.890 -0.4083  0.1930  0.0717
 4921TIP3    H136178   2.088   0.038   1.928 -0.3139  0.7768 -0.0987
 4921TIP3    H236179   2.005   0.110   1.823 -0.8904 -0.0328 -0.2026
 4922TIP3   OH236180   0.580   2.377   3.831 -0.3816 -0.1534 -0.5555
 4922TIP3    H136181   0.531   2.330   3.900  1.3204  0.2627  1.0278
 4922TIP3    H236182   0.627   2.308   3.784  0.0905 -0.2893  0.0962
 4923TIP3   OH236183   6.090   6.103   1.243 -0.1626  0.7740 -0.2304
 4923TIP3    H136184   6.052   6.146   1.166  0.3302 -0.3015 -1.1013
 4923TIP3    H236185   6.168   6.058   1.210 -0.9318 -1.2380  0.4882
 4924TIP3   OH236186   6.050   3.232  11.021  0.5613 -0.1562  0.4039
 4924TIP3    H136187   6.134   3.197  11.050  1.0704  0.4208 -0.3478
 4924TIP3    H236188   6.071   3.315  10.979 -0.4614  0.3244  0.7888
 4925TIP3   OH236189   3.258   6.387  11.667 -0.3129 -0.5108  0.9754
 4925TIP3    H136190   3.343   6.431  11.666 -1.1844  1.3511  2.0286
 4925TIP3    H236191   3.272   6.308  11.719  1.1037 -1.0664 -0.1909
 4926TIP3   OH236192   4.696   1.297   0.941 -0.6470 -0.3131 -0.4866
 4926TIP3    H136193   4.768   1.360   0.933 -0.7539 -0.1025  0.1556
 4926TIP3    H236194   4.717   1.247   1.020  0.1032 -1.9590 -1.6821
 4927TIP3   OH236195   5.765   4.596   2.816 -0.0295  0.1126 -0.3317
 4927TIP3    H136196   5.810   4.576   2.734 -0.4235 -0.1726 -0.4803
 4927TIP3    H236197   5.697   4.658   2.792 -0.2381 -0.0817 -0.2463
 4928TIP3   OH236198   0.906   6.637  12.223 -0.3927 -0.0184  0.2238
 4928TIP3    H136199   0.819   6.639  12.261  0.1398  0.8701  1.4773
 4928TIP3    H236200   0.965   6.657  12.296  0.6926  1.5649 -0.9874
 4929TIP3   OH236201   5.651   1.943  13.184  0.2389  0.4942 -0.1868
 4929TIP3    H136202   5.672   1.984  13.100  1.6523  0.2720  0.0276
 4929TIP3    H236203   5.569   1.897  13.169  1.2418 -0.8394 -1.9320
 4930TIP3   OH236204   4.710   2.807   0.364  0.7585 -0.0106  0.0681
 4930TIP3    H136205   4.751   2.747   0.427 -3.2391 -2.1928  0.9161
 4930TIP3    H236206   4.724   2.766   0.279  0.5006 -0.6522  0.3305
 4931TIP3   OH236207   1.147   3.687   4.514 -0.2620  0.2267 -0.3612
 4931TIP3    H136208   1.093   3.710   4.589  0.6134  2.6351 -0.3896
 4931TIP3    H236209   1.094   3.710   4.437  0.0402  0.7673 -0.4141
 4932TIP3   OH236210   0.034   2.816  16.690 -0.0598 -0.0874  0.0680
 4932TIP3    H136211   0.039   2.890  16.631 -1.6710 -0.4816 -0.6080
 4932TIP3    H236212   0.077   2.745  16.643 -0.5697 -0.1730 -0.2773
 4933TIP3   OH236213   6.426   3.530  12.020 -0.8241  0.1783 -0.0806
 4933TIP3    H136214   6.496   3.466  12.035 -2.6834 -1.8440  0.3944
 4933TIP3    H236215   6.414   3.572  12.105  0.6374  1.5199 -0.4746
 4934TIP3   OH236216   6.603   3.338   3.093  0.4252 -0.3703 -0.4203
 4934TIP3    H136217   6.552   3.408   3.053 -0.6183 -0.3660  0.8332
 4934TIP3    H236218   6.583   3.344   3.186  1.8507 -1.1158 -0.0316
 4935TIP3   OH236219   0.473   1.764  12.519 -0.2431 -0.1296 -0.0954
 4935TIP3    H136220   0.538   1.804  12.461  0.7330 -0.8082  0.5115
 4935TIP3    H236221   0.405   1.831  12.528  0.7143  0.8803 -0.1536
 4936TIP3   OH236222   5.596   0.117  13.660 -0.1221 -0.4999 -0.2316
 4936TIP3    H136223   5.662   0.169  13.613  1.5685 -0.7372  1.7402
 4936TIP3    H236224   5.646   0.069  13.726 -2.1777 -1.4772  0.7052
 4937TIP3   OH236225   5.503   6.560   4.949 -0.0499  0.5456 -0.2237
 4937TIP3    H136226   5.537   6.575   4.861 -0.7774 -1.2546 -0.8526
 4937TIP3    H236227   5.409   6.550   4.937 -0.1105 -0.0791  0.7014
 4938TIP3   OH236228   6.159   0.212   1.296  0.0762  0.5662  0.3470
 4938TIP3    H136229   6.101   0.199   1.221 -1.3787  0.2458  1.4736
 4938TIP3    H236230   6.104   0.193   1.372  2.4483 -3.1086  1.4331
 4939TIP3   OH236231   6.024   5.320  11.306  0.0107  0.3670  0.3309
 4939TIP3    H136232   6.002   5.271  11.386  1.4923 -1.6229 -0.3816
 4939TIP3    H236233   6.012   5.256  11.236 -0.1356  1.7318 -0.9112
 4940TIP3   OH236234   4.871   5.660   2.589 -0.0174  0.4205  0.0630
 4940TIP3    H136235   4.931   5.727   2.621 -0.4611  0.4696  0.8243
 4940TIP3    H236236   4.794   5.668   2.645 -0.7583  0.3829 -0.9133
 4941TIP3   OH236237   3.552   2.978   1.503 -0.3132 -0.5599 -0.2579
 4941TIP3    H136238   3.470   2.955   1.545 -0.5122  1.3969  0.5574
 4941TIP3    H236239   3.562   3.072   1.521  3.3111 -1.1550  1.8875
 4942TIP3   OH236240   3.049   5.175   3.827  0.8164 -0.5195  0.8356
 4942TIP3    H136241   3.114   5.160   3.759  0.0655  0.5512 -0.1808
 4942TIP3    H236242   2.986   5.103   3.817  0.4484 -0.1062  0.0385
 4943TIP3   OH236243   3.842   5.304  11.341  0.4369 -0.2029  0.4686
 4943TIP3    H136244   3.769   5.260  11.385 -0.0520 -0.0239 -0.1560
 4943TIP3    H236245   3.846   5.265  11.254  2.6628 -1.9821  1.2634
 4944TIP3   OH236246   1.925   0.766   0.050 -0.2039 -0.1632 -0.0182
 4944TIP3    H136247   1.854   0.703   0.042 -0.5983  0.0767  1.2604
 4944TIP3    H236248   1.995   0.731  -0.005 -0.7763 -1.1969 -0.1106
 4945TIP3   OH236249   0.504   2.638  12.034 -0.1520 -0.1362  0.1569
 4945TIP3    H136250   0.503   2.704  12.103  2.1619 -0.9696  1.1011
 4945TIP3    H236251   0.425   2.587  12.048 -0.7684  0.9857  0.8927
 4946TIP3   OH236252   5.451   4.098   3.802 -0.0413 -0.0087 -0.2355
 4946TIP3    H136253   5.477   4.136   3.719 -1.7022 -0.5796 -1.0746
 4946TIP3    H236254   5.376   4.042   3.780  2.8085 -4.7380  0.6212
 4947TIP3   OH236255   4.097   2.544  15.261  0.4344 -0.2604  0.0075
 4947TIP3    H136256   4.081   2.537  15.355  0.9276 -1.8317  0.0186
 4947TIP3    H236257   4.155   2.470  15.242  0.5877  0.2158 -1.4825
 4948TIP3   OH236258   4.282   2.862  14.694 -0.2202  0.0561 -0.4193
 4948TIP3    H136259   4.336   2.884  14.770  2.5635 -1.3439 -1.8559
 4948TIP3    H236260   4.283   2.941  14.640 -0.2268  0.2873 -0.0821
 4949TIP3   OH236261   1.153   4.980   4.227  0.4092  0.1837 -0.2409
 4949TIP3    H136262   1.120   5.052   4.281  1.2852 -0.1658  0.8149
 4949TIP3    H236263   1.161   4.907   4.288 -0.2101 -0.7429 -1.2397
 4950TIP3   OH236264   5.060   6.056  10.769 -0.4065  0.8001  0.1943
 4950TIP3    H136265   4.979   6.065  10.819 -0.6664 -1.0172  0.1653
 4950TIP3    H236266   5.114   5.998  10.822 -0.3558 -0.4939 -1.1975
 4951TIP3   OH236267   2.062   4.751  12.786  0.1146 -0.3270  0.1305
 4951TIP3    H136268   1.991   4.745  12.721 -0.0318 -0.0692  0.2669
 4951TIP3    H236269   2.058   4.667  12.833 -1.5622  0.5402  1.6477
 4952TIP3   OH236270   6.526   1.299   0.942 -0.4352 -0.0455 -0.0728
 4952TIP3    H136271   6.530   1.349   1.024 -0.0883  0.1992 -0.2365
 4952TIP3    H236272   6.433   1.278   0.930 -0.6092  0.7350 -0.1137
 4953TIP3   OH236273   0.219   2.881  13.275 -0.3465  0.1415  0.1340
 4953TIP3    H136274   0.161   2.882  13.351 -0.2676 -1.3024  0.2388
 4953TIP3    H236275   0.227   2.973  13.250 -0.6683  0.6039  1.6356
 4954TIP3   OH236276   5.790   2.823  12.397  0.0655 -0.7821 -0.1681
 4954TIP3    H136277   5.754   2.911  12.390  1.0938 -0.3168  0.2305
 4954TIP3    H236278   5.788   2.789  12.307 -2.2963 -1.1931 -0.0416
 4955TIP3   OH236279   0.898   4.037  16.154 -0.1692  0.1438 -0.0940
 4955TIP3    H136280   0.944   4.113  16.118  0.0394  0.3899  0.6917
 4955TIP3    H236281   0.926   4.032  16.245 -0.0100 -1.0043 -0.1875
 4956TIP3   OH236282   4.782   0.174  12.179 -0.0509  0.2558  0.3568
 4956TIP3    H136283   4.741   0.090  12.159  1.3209  0.1454 -2.6143
 4956TIP3    H236284   4.709   0.234  12.192 -1.1232 -0.7226 -0.8248
 4957TIP3   OH236285   4.019   1.208  10.441 -0.3458 -0.2782 -0.4779
 4957TIP3    H136286   3.949   1.150  10.410 -0.5272  0.1277 -0.8409
 4957TIP3    H236287   4.016   1.283  10.382 -0.3876  0.3009  0.2390
 4958TIP3   OH236288   2.157   0.556   2.339  0.6592  0.0109  0.4721
 4958TIP3    H136289   2.121   0.473   2.307 -0.2255  0.3399  0.5725
 4958TIP3    H236290   2.169   0.608   2.259 -1.4305  0.7850  0.5800
 4959TIP3   OH236291   0.681   5.551   0.190 -0.2830  0.7275 -0.3186
 4959TIP3    H136292   0.716   5.640   0.196  0.2484  0.5994 -1.4514
 4959TIP3    H236293   0.735   5.508   0.125 -0.8825 -0.2723 -0.1689
 4960TIP3   OH236294   3.598   2.200   4.951  0.3555 -0.2818  0.0520
 4960TIP3    H136295   3.570   2.113   4.923 -0.3993  0.0024 -0.0820
 4960TIP3    H236296   3.564   2.259   4.883  0.7662  0.1303  0.2028
 4961TIP3   OH236297   5.303   6.512  12.870 -0.3469 -0.6240  0.2167
 4961TIP3    H136298   5.347   6.495  12.787  0.2929 -0.6779  0.5653
 4961TIP3    H236299   5.373   6.512  12.936 -0.8199 -0.3846  0.7307
 4962TIP3   OH236300   4.369   6.722   0.125  0.0270 -0.4233  0.0855
 4962TIP3    H136301   4.421   6.712   0.205  0.5222 -0.3503 -0.2312
 4962TIP3    H236302   4.386   6.812   0.096  0.0068 -0.5181 -0.2202
 4963TIP3   OH236303   1.506   5.758   1.249  0.4139  0.5256 -0.3067
 4963TIP3    H136304   1.502   5.776   1.155  0.4799  1.4694 -0.1408
 4963TIP3    H236305   1.599   5.752   1.268  0.3986 -1.6495 -0.6306
 4964TIP3   OH236306   5.409   2.035  11.861 -0.6597  0.4144 -0.1525
 4964TIP3    H136307   5.428   2.038  11.767  2.3361  0.8781  0.3439
 4964TIP3    H236308   5.397   1.943  11.880  0.5194  0.1062 -0.7498
 4965TIP3   OH236309   1.966   4.185   0.683  0.0060 -0.0092  0.2479
 4965TIP3    H136310   1.930   4.270   0.658 -0.3707 -0.2384 -0.0042
 4965TIP3    H236311   2.034   4.205   0.748  0.7882  0.5699 -0.7383
 4966TIP3   OH236312   5.717   6.412  12.276 -0.5386  0.1473  0.2159
 4966TIP3    H136313   5.798   6.397  12.325 -0.2205 -1.1360 -0.6436
 4966TIP3    H236314   5.705   6.332  12.225 -1.6800  0.8285 -0.6276
 4967TIP3   OH236315   5.391   1.887  13.126 -0.2827  0.2238  0.3563
 4967TIP3    H136316   5.421   1.927  13.044 -0.6967  0.1408  0.1603
 4967TIP3    H236317   5.331   1.818  13.098 -1.3600  0.9763  0.7551
 4968TIP3   OH236318   3.940   3.447  13.850  0.0203  0.0775  0.7254
 4968TIP3    H136319   3.870   3.502  13.886 -0.8260 -0.8669  0.5721
 4968TIP3    H236320   3.895   3.371  13.815  1.2524 -1.3693  2.1046
 4969TIP3   OH236321   4.810   1.155  14.989 -0.2646  0.1603 -0.0808
 4969TIP3    H136322   4.895   1.113  15.001 -0.6803 -0.6578  0.1599
 4969TIP3    H236323   4.790   1.143  14.896  0.7509  2.1230 -0.6072
 4970TIP3   OH236324   0.823   3.343  15.386  0.0676 -0.2335 -0.3829
 4970TIP3    H136325   0.831   3.422  15.332 -0.0460 -0.8360 -1.2973
 4970TIP3    H236326   0.914   3.315  15.399  0.1671  0.5555  0.7289
 4971TIP3   OH236327   5.755   5.544  15.292 -0.4206  0.3798 -0.2375
 4971TIP3    H136328   5.692   5.570  15.360  1.2290 -1.4690  2.1834
 4971TIP3    H236329   5.745   5.450  15.284  0.9388  0.2636 -0.9611
 4972TIP3   OH236330   2.250   5.656  16.681  0.0224 -0.3359 -0.5595
 4972TIP3    H136331   2.237   5.744  16.717 -0.1810 -0.9888  1.0336
 4972TIP3    H236332   2.334   5.661  16.635 -0.6594  1.0587 -1.7215
 4973TIP3   OH236333   5.615   5.395  14.512 -0.6273  0.1020  0.1549
 4973TIP3    H136334   5.604   5.480  14.554 -0.3615 -0.7882  2.1504
 4973TIP3    H236335   5.655   5.340  14.579  0.4754 -1.2492 -1.5130
 4974TIP3   OH236336   3.613   0.176   2.399 -0.3519  0.0017  0.1732
 4974TIP3    H136337   3.590   0.189   2.307 -0.9920 -0.6625  0.2262
 4974TIP3    H236338   3.536   0.133   2.437  0.0138  0.0227  0.9565
 4975TIP3   OH236339   1.095   2.219   1.808  0.0699  0.1477  0.2429
 4975TIP3    H136340   1.061   2.269   1.881 -0.9348  1.0378 -0.8022
 4975TIP3    H236341   1.108   2.283   1.738  1.7458 -0.5513 -0.1364
 4976TIP3   OH236342   0.780   0.966   1.852  0.2103 -0.0022 -0.1508
 4976TIP3    H136343   0.709   0.967   1.788  0.2641  1.9629 -0.2447
 4976TIP3    H236344   0.736   0.976   1.937  0.2256 -1.3711  0.0380
 4977TIP3   OH236345   3.535   5.931  12.501 -0.1715 -0.0236 -0.3518
 4977TIP3    H136346   3.534   5.999  12.433  0.7775 -1.6381 -2.0580
 4977TIP3    H236347   3.595   5.964  12.568  1.8486  0.0125 -2.0883
 4978TIP3   OH236348   2.878   1.056  15.004  0.0134 -0.4537  0.8860
 4978TIP3    H136349   2.944   1.039  15.071  0.5616 -0.2756  0.4030
 4978TIP3    H236350   2.928   1.093  14.931 -0.7141  0.2867  0.7556
 4979TIP3   OH236351   1.576   0.791  11.747  0.1783 -0.4923  0.6306
 4979TIP3    H136352   1.537   0.708  11.719  0.7622 -0.8835  0.9651
 4979TIP3    H236353   1.670   0.778  11.736  0.3426 -0.2381  1.6546
 4980TIP3   OH236354   3.262   6.046  10.855  0.2249 -0.2003  0.1026
 4980TIP3    H136355   3.268   6.003  10.769  0.3708  1.1236 -0.5664
 4980TIP3    H236356   3.353   6.050  10.885  0.2064 -0.3811  0.1863
 4981TIP3   OH236357   6.044   1.748   2.968 -0.5193  0.4714 -0.1466
 4981TIP3    H136358   6.043   1.656   2.941 -1.1792  0.0488  1.2388
 4981TIP3    H236359   5.964   1.785   2.931 -0.9078  0.1491  0.3518
 4982TIP3   OH236360   0.213   1.032  14.256  0.1799 -0.4439 -0.0724
 4982TIP3    H136361   0.139   1.014  14.199  0.0581 -0.2122  0.0117
 4982TIP3    H236362   0.249   1.115  14.223 -0.8951  0.5838  1.1996
 4983TIP3   OH236363   6.238   1.461   0.731  0.3577  0.0065 -0.2041
 4983TIP3    H136364   6.263   1.399   0.662  1.1550 -1.4945  1.3434
 4983TIP3    H236365   6.151   1.493   0.706  0.2169 -1.2479 -1.3920
 4984TIP3   OH236366   6.111   0.203   0.759  0.5813  0.2596  0.2498
 4984TIP3    H136367   6.174   0.267   0.726 -0.3029 -0.4396 -3.1802
 4984TIP3    H236368   6.101   0.140   0.688  0.9903 -3.5190  3.2408
 4985TIP3   OH236369   0.786   6.469  14.239 -1.0353 -0.7662 -0.1498
 4985TIP3    H136370   0.744   6.548  14.273 -3.5803 -1.6189 -1.0749
 4985TIP3    H236371   0.714   6.417  14.203  0.6824 -3.0478 -0.5195
 4986TIP3   OH236372   5.163   6.509   5.671  0.4660 -0.2278  0.4063
 4986TIP3    H136373   5.165   6.595   5.714 -0.0876 -0.1324  0.2402
 4986TIP3    H236374   5.166   6.529   5.577 -0.0086 -0.3787  0.3590
 4987TIP3   OH236375   5.563   5.972   0.288 -0.1317  0.0211 -0.3179
 4987TIP3    H136376   5.540   5.940   0.200  0.0793 -0.1790 -0.2987
 4987TIP3    H236377   5.513   5.916   0.347  1.6977 -1.5766 -0.1898
 4988TIP3   OH236378   3.617   4.692   4.028  0.1482  0.2943 -0.2847
 4988TIP3    H136379   3.565   4.751   3.973 -1.7905 -1.3274 -0.2855
 4988TIP3    H236380   3.607   4.728   4.116  0.9186  1.2605 -0.5652
 4989TIP3   OH236381   5.767   3.663   3.943  0.2041 -0.5885  0.1719
 4989TIP3    H136382   5.778   3.600   4.015  0.5354 -0.2624  0.4129
 4989TIP3    H236383   5.673   3.663   3.925 -0.1377  0.5123  1.6966
 4990TIP3   OH236384   0.404   1.224  15.004  0.1414  0.7192 -0.2366
 4990TIP3    H136385   0.432   1.315  15.002  0.0427  0.7581  0.0791
 4990TIP3    H236386   0.400   1.198  14.912  2.3925  0.3440 -0.2779
 4991TIP3   OH236387   6.316   6.723   2.235 -0.3380 -0.0016 -0.0897
 4991TIP3    H136388   6.408   6.698   2.240  0.2341  1.6792 -1.4197
 4991TIP3    H236389   6.275   6.678   2.309  1.9939  1.0576  2.0042
 4992TIP3   OH236390   6.494   3.014   2.814  0.2540 -1.1650  0.1604
 4992TIP3    H136391   6.498   2.939   2.754  0.5320  0.1976 -1.5954
 4992TIP3    H236392   6.561   2.995   2.880  2.4754 -1.0963 -1.9552
 4993TIP3   OH236393   5.680   3.723   0.511  0.2332  0.0444 -0.1696
 4993TIP3    H136394   5.730   3.792   0.466 -0.2743  0.1034 -0.6510
 4993TIP3    H236395   5.596   3.721   0.465  0.3824 -1.1653 -0.4114
 4994TIP3   OH236396   2.470   4.647   3.842  0.7041 -0.1005 -0.3700
 4994TIP3    H136397   2.565   4.635   3.828  0.4672 -1.3936 -1.0773
 4994TIP3    H236398   2.448   4.723   3.788  1.7090  1.7083  1.6138
 4995TIP3   OH236399   1.632   0.451  11.156  0.2672  0.3599 -0.3764
 4995TIP3    H136400   1.678   0.370  11.137  2.1376  1.3175 -0.2234
 4995TIP3    H236401   1.663   0.513  11.090 -1.3482  0.8929 -0.6787
 4996TIP3   OH236402   5.705   5.505   0.684  0.0960 -0.0346 -0.0083
 4996TIP3    H136403   5.723   5.422   0.729  1.1079 -0.0280 -0.3813
 4996TIP3    H236404   5.705   5.571   0.754 -1.7218 -0.4575  0.4361
 4997TIP3   OH236405   3.950   1.353  15.689 -0.2672 -0.7142  0.0042
 4997TIP3    H136406   4.018   1.379  15.751  1.6798 -1.9934 -1.4847
 4997TIP3    H236407   3.934   1.261  15.707  0.3303 -1.1049 -1.3650
 4998TIP3   OH236408   4.915   2.908  11.855 -0.5578  0.1168  0.1513
 4998TIP3    H136409   4.879   2.989  11.890 -0.0607  0.6005 -0.4342
 4998TIP3    H236410   4.942   2.930  11.766 -1.2667 -0.9284 -0.3456
 4999TIP3   OH236411   5.721   1.914   2.538  0.2701 -0.1117 -0.0149
 4999TIP3    H136412   5.628   1.895   2.527 -0.1107  1.8554 -0.6653
 4999TIP3    H236413   5.724   2.005   2.569  1.9068 -1.0142  2.8073
 5000TIP3   OH236414   4.630   4.648   3.581  0.9787  0.0265  0.4048
 5000TIP3    H136415   4.688   4.588   3.534  0.6411 -0.8286  1.0592
 5000TIP3    H236416   4.642   4.732   3.537  1.3400 -0.5483 -0.6376
 5001TIP3   OH236417   1.765   0.564  11.418  0.1405 -0.5221  0.1260
 5001TIP3    H136418   1.842   0.507  11.423  0.9930  0.4953 -0.8577
 5001TIP3    H236419   1.705   0.516  11.361  1.5125  0.2059 -2.0585
 5002TIP3   OH236420   0.667   4.902  15.316 -0.8916  0.6272 -0.0849
 5002TIP3    H136421   0.678   4.930  15.225 -1.4133  1.5561  0.1259
 5002TIP3    H236422   0.666   4.983  15.366 -0.6920  0.1284  0.7528
 5003TIP3   OH236423   0.177   4.019   3.213  0.4363 -0.0339 -0.2331
 5003TIP3    H136424   0.087   4.025   3.179  0.8170  1.5116 -1.0745
 5003TIP3    H236425   0.166   4.004   3.307 -0.6734 -1.2003 -0.5074
 5004TIP3   OH236426   1.344   6.567   1.472  0.4910 -0.3875  0.0356
 5004TIP3    H136427   1.417   6.508   1.452 -0.4460 -0.9580 -2.0455
 5004TIP3    H236428   1.385   6.643   1.513  1.9268 -1.7458  1.2178
 5005TIP3   OH236429   0.265   3.295   0.794 -0.2789  0.2716  0.0455
 5005TIP3    H136430   0.293   3.237   0.864 -3.7564 -1.4938  0.1892
 5005TIP3    H236431   0.193   3.346   0.831 -0.5336  1.1280 -1.5139
 5006TIP3   OH236432   1.377   1.939   2.049  0.1248  0.0823 -0.5898
 5006TIP3    H136433   1.459   1.913   2.092  0.2042  0.1857 -0.6759
 5006TIP3    H236434   1.338   1.856   2.021 -0.7205 -0.1154  1.0759
 5007TIP3   OH236435   3.060   3.448  15.459  0.1882 -0.2657 -0.5556
 5007TIP3    H136436   3.148   3.450  15.421  0.1491 -1.9758 -0.7976
 5007TIP3    H236437   3.073   3.415  15.548 -0.2677 -1.2275 -0.8340
 5008TIP3   OH236438   5.231   2.540   4.105  0.7584  0.3118 -0.1305
 5008TIP3    H136439   5.258   2.618   4.057  2.5878 -0.7145 -0.8459
 5008TIP3    H236440   5.280   2.544   4.187 -0.9632  1.1039  0.9152
 5009TIP3   OH236441   4.308   5.106  12.902  0.0770  0.1761 -0.6569
 5009TIP3    H136442   4.213   5.106  12.898 -0.0880  1.9699  1.1609
 5009TIP3    H236443   4.332   5.198  12.893  1.8047 -0.4158 -2.8646
 5010TIP3   OH236444   2.612   4.605   0.687 -0.3670  0.0157 -0.5238
 5010TIP3    H136445   2.598   4.639   0.598 -2.3792 -1.6747 -0.9278
 5010TIP3    H236446   2.706   4.617   0.702 -0.1164  1.1176 -2.5356
 5011TIP3   OH236447   4.318   6.563  14.304  0.5602 -0.4084 -0.1736
 5011TIP3    H136448   4.360   6.498  14.361  1.2467  0.5993  0.4933
 5011TIP3    H236449   4.325   6.645  14.352  1.6789  0.5929 -1.9341
 5012TIP3   OH236450   1.370   4.459  12.827 -0.1778  0.5293 -0.5953
 5012TIP3    H136451   1.349   4.509  12.748 -0.3702 -1.9397 -2.2378
 5012TIP3    H236452   1.457   4.490  12.852 -0.3640  1.7934 -1.4264
 5013TIP3   OH236453   1.508   2.304  16.111 -0.2533 -0.0549  0.0495
 5013TIP3    H136454   1.443   2.290  16.042  1.0458  1.1793 -1.5069
 5013TIP3    H236455   1.562   2.224  16.110  1.7663  1.1899 -2.7358
 5014TIP3   OH236456   4.166   3.571   1.590  0.0145 -0.4851  0.1199
 5014TIP3    H136457   4.199   3.482   1.603  0.1595 -0.2768  1.2960
 5014TIP3    H236458   4.077   3.560   1.559  0.6938 -1.0476 -1.7969
 5015TIP3   OH236459   1.230   6.406  15.418 -0.0083 -0.1952  0.4495
 5015TIP3    H136460   1.188   6.438  15.498 -0.3113  1.1041 -0.2003
 5015TIP3    H236461   1.181   6.326  15.396 -1.8165  0.9730  0.0133
 5016TIP3   OH236462   4.539   5.558  11.778  0.1671 -0.3666  0.2452
 5016TIP3    H136463   4.547   5.531  11.687  1.2601 -2.3358  0.8575
 5016TIP3    H236464   4.625   5.594  11.800 -0.6585  1.9321  0.0277
 5017TIP3   OH236465   6.512   5.584   2.679  0.4056  0.0399  0.4721
 5017TIP3    H136466   6.601   5.550   2.666 -0.0898 -1.4230  0.7268
 5017TIP3    H236467   6.515   5.627   2.764  1.1079  0.8383  0.0547
 5018TIP3   OH236468   6.324   3.664   3.565 -0.4708  0.0742 -0.7051
 5018TIP3    H136469   6.326   3.578   3.606  0.9646  1.0484  1.4779
 5018TIP3    H236470   6.239   3.669   3.522 -1.9154 -1.2675  1.7997
 5019TIP3   OH236471   1.574   4.172  12.676  0.4195 -0.0413  0.4238
 5019TIP3    H136472   1.616   4.250  12.712  1.3064 -1.2041  1.9774
 5019TIP3    H236473   1.629   4.147  12.602  0.8301  0.1029  0.6773
 5020TIP3   OH236474   6.067   0.663  15.030  0.3770 -0.2054  0.0857
 5020TIP3    H136475   6.149   0.656  15.080 -0.6271  0.8129  1.9619
 5020TIP3    H236476   6.094   0.697  14.944  1.7980  1.3015  1.0757
 5021TIP3   OH236477   4.969   2.065  13.413 -0.2811 -0.4853  0.4655
 5021TIP3    H136478   4.976   2.030  13.324 -1.6912 -1.2634  0.6318
 5021TIP3    H236479   4.959   2.159  13.401 -0.3679 -0.5727 -0.2037
 5022TIP3   OH236480   1.991   5.524   6.224 -0.3023  0.2929  0.0094
 5022TIP3    H136481   2.042   5.605   6.227 -0.5313  0.4228  0.5567
 5022TIP3    H236482   1.931   5.531   6.298 -0.1415 -0.4927  0.2265
 5023TIP3   OH236483   6.724   2.241   4.075  0.3198 -0.3746  0.6129
 5023TIP3    H136484   6.702   2.183   4.148  0.0305 -3.6455 -1.8380
 5023TIP3    H236485   6.818   2.231   4.064 -0.0237 -2.4106 -1.2273
 5024TIP3   OH236486   1.537   3.599   1.314  0.0139 -0.9401 -0.1164
 5024TIP3    H136487   1.601   3.626   1.381 -1.0190 -0.5995  0.7528
 5024TIP3    H236488   1.588   3.595   1.233  0.8057  0.8976  0.2411
 5025TIP3   OH236489   0.599   0.313   4.013  0.4406 -0.2661  0.2726
 5025TIP3    H136490   0.643   0.363   3.944 -0.2162 -0.9920 -0.7156
 5025TIP3    H236491   0.581   0.376   4.082 -0.0371  0.7758 -0.7798
 5026TIP3   OH236492   4.513   0.340   3.035 -0.3029 -0.1337  0.4206
 5026TIP3    H136493   4.499   0.271   3.100  1.7700 -0.6428  0.3958
 5026TIP3    H236494   4.607   0.341   3.021 -0.4703  1.5141 -0.9232
 5027TIP3   OH236495   3.548   0.011  13.326 -0.4183  0.1691  0.1361
 5027TIP3    H136496   3.513  -0.020  13.242  0.9477 -2.0093  0.3034
 5027TIP3    H236497   3.629   0.056  13.303 -0.6525  0.6189  0.1891
 5028TIP3   OH236498   1.500   1.109   4.888 -0.5541 -0.5268 -0.1261
 5028TIP3    H136499   1.482   1.017   4.904  1.0479 -0.6118  1.4125
 5028TIP3    H236500   1.594   1.119   4.903 -0.5651  1.2301 -0.9292
 5029TIP3   OH236501   2.586   4.960  16.140  0.4390  0.1811 -0.3280
 5029TIP3    H136502   2.526   4.885  16.138  0.2654  0.2781  0.6422
 5029TIP3    H236503   2.532   5.035  16.119  0.5602  0.0774 -1.0427
 5030TIP3   OH236504   1.457   3.951  11.353  0.0833 -0.5523  0.0518
 5030TIP3    H136505   1.506   4.010  11.296  1.2081 -2.1160 -0.6943
 5030TIP3    H236506   1.367   3.982  11.349  0.6459  1.1444 -0.2220
 5031TIP3   OH236507   6.305   0.701  15.144  0.1240  0.5949 -0.6502
 5031TIP3    H136508   6.339   0.671  15.228 -0.9054 -0.6777 -0.6523
 5031TIP3    H236509   6.329   0.793  15.139 -0.0360  0.7612  1.1595
 5032TIP3   OH236510   5.557   5.470   1.573  0.3973 -0.2049  0.4780
 5032TIP3    H136511   5.475   5.484   1.620 -0.3689 -0.5797 -0.6954
 5032TIP3    H236512   5.622   5.456   1.641 -0.4434  0.4722  1.4394
 5033TIP3   OH236513   0.942   4.177  15.599 -0.9810  0.0284  0.1940
 5033TIP3    H136514   0.890   4.210  15.672  1.2637  0.3632  1.7521
 5033TIP3    H236515   1.024   4.226  15.604 -0.1131 -1.1490 -1.5315
 5034TIP3   OH236516   3.259   1.092  12.331  0.1487 -0.5888  0.1237
 5034TIP3    H136517   3.227   1.180  12.311  1.6494  0.0247  0.2722
 5034TIP3    H236518   3.274   1.051  12.245 -0.0451 -0.5050  0.0512
 5035TIP3   OH236519   4.905   0.431   4.300 -0.4133  0.5203 -0.1535
 5035TIP3    H136520   4.837   0.412   4.235  0.1373  1.6237 -1.1039
 5035TIP3    H236521   4.959   0.352   4.302 -0.9857  0.1181 -0.3343
 5036TIP3   OH236522   2.366   3.952  14.574 -0.0659 -0.6590 -0.0827
 5036TIP3    H136523   2.398   3.908  14.652 -2.9950 -1.8293  0.5740
 5036TIP3    H236524   2.407   3.905  14.501  1.1154 -0.8417  0.6608
 5037TIP3   OH236525   6.614   5.084  16.491 -0.1646 -0.7436 -0.0347
 5037TIP3    H136526   6.568   5.009  16.453  0.6972 -2.3437  1.8958
 5037TIP3    H236527   6.668   5.118  16.419 -1.6187 -1.0545 -1.3232
 5038TIP3   OH236528   2.786   6.373   2.491 -0.1076 -0.1259 -0.0717
 5038TIP3    H136529   2.719   6.396   2.426 -1.1784 -0.7919  0.7616
 5038TIP3    H236530   2.860   6.431   2.471 -1.1086  0.9730 -0.7025
 5039TIP3   OH236531   5.850   0.855  15.031 -0.2541  0.0344  0.1750
 5039TIP3    H136532   5.834   0.893  15.117 -1.1415  0.8212 -0.3266
 5039TIP3    H236533   5.932   0.807  15.041 -1.4164 -1.7334  2.0632
 5040TIP3   OH236534   5.142   1.606   4.156 -0.4027 -0.2266 -0.3466
 5040TIP3    H136535   5.199   1.539   4.196 -2.3034 -1.6993  0.0463
 5040TIP3    H236536   5.164   1.603   4.063  0.6996 -0.1751 -0.1111
 5041TIP3   OH236537   1.620   1.602   5.703 -0.5486 -0.4797 -0.1335
 5041TIP3    H136538   1.619   1.679   5.647 -3.6715  0.0982  0.5131
 5041TIP3    H236539   1.576   1.534   5.652 -0.3933 -0.9735  0.3683
 5042TIP3   OH236540   3.969   3.387  14.637  0.3710  0.0197 -0.5135
 5042TIP3    H136541   3.930   3.339  14.709  2.5871 -0.3253  0.5515
 5042TIP3    H236542   3.908   3.459  14.619 -1.1382 -0.9887  0.4042
 5043TIP3   OH236543   4.845   6.284   4.223  0.1857  0.1810  0.4337
 5043TIP3    H136544   4.755   6.262   4.201  0.2411  0.9749 -0.7102
 5043TIP3    H236545   4.898   6.241   4.155  0.5922  0.4529  0.5713
 5044TIP3   OH236546   3.651   0.267   5.111  0.3196 -0.5873  0.1117
 5044TIP3    H136547   3.628   0.182   5.074 -1.7445 -0.2904  0.5748
 5044TIP3    H236548   3.647   0.327   5.037 -0.5488 -0.5273  0.1987
 5045TIP3   OH236549   0.259   3.586   4.769 -0.1325 -0.5679 -0.2926
 5045TIP3    H136550   0.241   3.493   4.758 -1.5419 -0.4382  0.6124
 5045TIP3    H236551   0.180   3.621   4.813  0.5756  0.9405 -0.1444
 5046TIP3   OH236552   0.580   5.875  16.283  0.2736  0.2167  0.3312
 5046TIP3    H136553   0.656   5.924  16.253  0.9899  0.5822  2.5371
 5046TIP3    H236554   0.604   5.783  16.270  0.6862  0.3538  0.1207
 5047TIP3   OH236555   1.513   3.088   1.376 -0.5115 -0.3169  0.2152
 5047TIP3    H136556   1.479   3.157   1.319 -0.7204  0.0534  0.7886
 5047TIP3    H236557   1.478   3.007   1.338 -0.2997 -0.1109 -0.4322
 5048TIP3   OH236558   3.165   6.640  12.471  0.1066  0.1189 -0.1644
 5048TIP3    H136559   3.255   6.612  12.454  0.2847  0.8166 -0.3841
 5048TIP3    H236560   3.168   6.680  12.558 -0.3584 -1.4473  0.6048
 5049TIP3   OH236561   0.066   1.491  14.409 -0.5778  0.1030 -0.0711
 5049TIP3    H136562  -0.029   1.495  14.422 -0.4810  1.3655  0.4053
 5049TIP3    H236563   0.088   1.400  14.426 -1.8344 -0.4670 -1.2222
 5050TIP3   OH236564   5.769   6.555   4.452  0.4080  0.0016 -0.3465
 5050TIP3    H136565   5.772   6.463   4.427  0.9844  0.7919 -3.6490
 5050TIP3    H236566   5.740   6.601   4.373  2.3445  2.8778  0.4431
 5051TIP3   OH236567   0.612   5.049   0.666  0.0694  0.1088 -0.0907
 5051TIP3    H136568   0.580   4.974   0.717 -0.3633  1.0782  1.1073
 5051TIP3    H236569   0.699   5.022   0.638 -0.7036 -1.5020 -1.1031
 5052TIP3   OH236570   2.482   2.267   2.243 -0.2169 -0.3402 -0.2666
 5052TIP3    H136571   2.476   2.336   2.309 -0.7232 -0.5057 -0.1316
 5052TIP3    H236572   2.575   2.259   2.223 -0.2597  1.3728 -1.3308
 5053TIP3   OH236573   6.252   4.457   1.275 -0.2018 -0.6623 -0.2316
 5053TIP3    H136574   6.193   4.395   1.232 -0.1498  0.1493 -1.4960
 5053TIP3    H236575   6.340   4.431   1.247 -0.2594  0.7763 -1.8814
 5054TIP3   OH236576   5.628   1.017  12.910  0.0908 -0.0821 -0.4720
 5054TIP3    H136577   5.582   0.964  12.845 -0.2197 -0.4201  0.0063
 5054TIP3    H236578   5.579   1.099  12.914 -1.8179 -1.1915  1.5062
 5055TIP3   OH236579   4.637   0.337   1.066 -0.2981  0.2752 -0.1513
 5055TIP3    H136580   4.584   0.258   1.078 -0.0898  0.1169 -0.2562
 5055TIP3    H236581   4.574   0.408   1.064 -0.4382  0.1925  0.7182
 5056TIP3   OH236582   6.261   2.422   3.522 -0.0144 -0.0822  0.4087
 5056TIP3    H136583   6.200   2.463   3.459  1.1347 -0.1008 -0.7541
 5056TIP3    H236584   6.341   2.474   3.514  0.8076 -1.3297  0.3907
 5057TIP3   OH236585   6.715   2.392  11.673  0.2992 -0.0441 -0.0478
 5057TIP3    H136586   6.664   2.453  11.726  0.2236 -0.8879  0.8698
 5057TIP3    H236587   6.650   2.349  11.617 -0.0616 -1.2177  1.2156
 5058TIP3   OH236588   6.619   3.974   5.851  0.6572 -0.1598 -0.2345
 5058TIP3    H136589   6.651   4.034   5.783  1.8271 -1.2284 -0.6677
 5058TIP3    H236590   6.684   3.980   5.921  1.6094 -1.9734 -0.9043
 5059TIP3   OH236591   1.151   3.392   1.655 -0.4119 -0.5373 -0.3737
 5059TIP3    H136592   1.092   3.389   1.730 -1.3522  2.8666 -0.8376
 5059TIP3    H236593   1.239   3.386   1.692 -0.8739  0.7398  0.9778
 5060TIP3   OH236594   5.723   0.538   2.766  0.4988  0.7999 -0.2185
 5060TIP3    H136595   5.737   0.604   2.834 -0.4526  2.2160 -1.3335
 5060TIP3    H236596   5.797   0.549   2.706  0.7048  0.3643 -0.0501
 5061TIP3   OH236597   2.260   5.020   4.334  0.2358  0.1785 -0.1049
 5061TIP3    H136598   2.288   5.078   4.405 -1.1996 -0.5926  1.1541
 5061TIP3    H236599   2.213   5.078   4.273 -2.1881  0.2741  1.6960
 5062TIP3   OH236600   0.606   6.377   1.105  0.3198  0.4310 -0.6429
 5062TIP3    H136601   0.700   6.393   1.091  0.5382 -1.0586 -1.1027
 5062TIP3    H236602   0.572   6.459   1.140  1.6542  1.2373 -1.1758
 5063TIP3   OH236603   2.692   4.715   5.512 -0.1220 -0.1555  0.2214
 5063TIP3    H136604   2.596   4.713   5.503 -0.3259 -2.1247  1.9295
 5063TIP3    H236605   2.718   4.624   5.500  1.3588  0.0967  1.3202
 5064TIP3   OH236606   1.627   3.819   5.473  0.0726  0.5053  0.9241
 5064TIP3    H136607   1.537   3.785   5.481 -0.4127  1.7191  0.8372
 5064TIP3    H236608   1.630   3.891   5.536  0.3104  1.8301 -0.5357
 5065TIP3   OH236609   0.800   1.636  14.842  0.4505 -0.1243  0.1027
 5065TIP3    H136610   0.893   1.653  14.830  0.1162  1.8822  0.0388
 5065TIP3    H236611   0.771   1.701  14.906 -0.8124 -1.0442  0.5086
 5066TIP3   OH236612   1.595   1.835  13.062 -0.5354  0.2341 -0.1087
 5066TIP3    H136613   1.609   1.741  13.069 -0.1350  0.2445 -0.6608
 5066TIP3    H236614   1.538   1.857  13.135  0.3366 -0.2340  0.7342
 5067TIP3   OH236615   2.940   1.629   6.446  0.0221  0.2253  0.2595
 5067TIP3    H136616   2.900   1.577   6.515  0.3016  1.8290  1.6978
 5067TIP3    H236617   2.865   1.665   6.397 -0.2167  0.2897  0.6670
 5068TIP3   OH236618   5.235   4.964  14.710  0.3638 -0.2019 -0.2449
 5068TIP3    H136619   5.143   4.989  14.706  0.1182 -1.0364 -0.0007
 5068TIP3    H236620   5.241   4.884  14.658  0.9752 -0.0865 -0.3642
 5069TIP3   OH236621   6.313   4.776  16.758 -0.1557  0.0293  0.0983
 5069TIP3    H136622   6.325   4.681  16.758 -1.3249 -0.1310 -0.1917
 5069TIP3    H236623   6.401   4.811  16.748  0.2184 -1.0305 -0.4662
 5070TIP3   OH236624   4.392   5.303   5.014  0.2313  0.4272  0.4088
 5070TIP3    H136625   4.454   5.260   5.074  0.1849 -0.5166 -0.1904
 5070TIP3    H236626   4.326   5.235   4.996  1.0584  0.1594 -1.8863
 5071TIP3   OH236627   4.611   5.264  15.874 -0.4640 -0.4050  0.2354
 5071TIP3    H136628   4.607   5.341  15.930  3.0509 -0.4964  0.8334
 5071TIP3    H236629   4.663   5.201  15.923 -0.0947 -1.7760 -1.7713
 5072TIP3   OH236630   2.235   1.068  11.821  0.4235  0.4801 -0.2438
 5072TIP3    H136631   2.307   1.128  11.802  0.3907  0.5474 -0.1571
 5072TIP3    H236632   2.278   0.990  11.855  0.4253  0.7532  0.4085
 5073TIP3   OH236633   6.695   4.186   1.479 -0.2644 -0.1916 -0.7989
 5073TIP3    H136634   6.746   4.142   1.548 -1.8578  0.8979  1.1778
 5073TIP3    H236635   6.622   4.126   1.463 -1.1271  0.5554  0.1656
 5074TIP3   OH236636   6.547   2.554   0.132  0.4549  0.2939 -0.3439
 5074TIP3    H136637   6.494   2.476   0.117  0.3849  0.3181 -0.2275
 5074TIP3    H236638   6.554   2.560   0.228 -2.1250  2.1453 -0.1775
 5075TIP3   OH236639   6.276   3.253  14.067 -0.4981 -0.1332  0.7309
 5075TIP3    H136640   6.233   3.329  14.106 -2.5164 -2.2339  2.8840
 5075TIP3    H236641   6.362   3.250  14.109 -0.1570  1.2097  0.1920
 5076TIP3   OH236642   3.898   3.361  11.921  0.0172 -0.6426 -0.3544
 5076TIP3    H136643   3.848   3.300  11.867  1.8308 -2.0473 -0.5266
 5076TIP3    H236644   3.838   3.385  11.991 -1.4052 -1.0543 -1.3892
 5077TIP3   OH236645   6.516   5.660  13.543  0.4508  0.2467 -0.2375
 5077TIP3    H136646   6.582   5.677  13.610  0.2472 -0.7957  0.2508
 5077TIP3    H236647   6.565   5.625  13.469  0.2628 -3.5242  1.2008
 5078TIP3   OH236648   0.555   3.288  15.423 -0.3017 -0.2777 -0.4170
 5078TIP3    H136649   0.629   3.341  15.394 -1.4422  1.7378  0.1484
 5078TIP3    H236650   0.594   3.215  15.471  1.3361  0.0071 -1.2594
 5079TIP3   OH236651   6.153   2.836   0.541 -0.4209 -0.0054  0.0881
 5079TIP3    H136652   6.085   2.797   0.595  1.5485 -1.7426  1.4656
 5079TIP3    H236653   6.229   2.844   0.599  1.0136  0.4743 -1.7375
 5080TIP3   OH236654   5.081   3.831   2.655 -0.6647 -0.9304  0.1997
 5080TIP3    H136655   5.058   3.890   2.583  2.1797  2.2748  1.6605
 5080TIP3    H236656   5.120   3.887   2.722  0.1359 -4.2056  2.7767
 5081TIP3   OH236657   5.205   6.177  16.897  0.0833 -0.1506  0.0511
 5081TIP3    H136658   5.247   6.114  16.839 -0.4561 -2.1148  1.6896
 5081TIP3    H236659   5.208   6.137  16.984 -2.2887  1.0584  0.7976
 5082TIP3   OH236660   2.816   0.559   2.376 -0.5751 -0.1808 -0.1216
 5082TIP3    H136661   2.901   0.558   2.332 -0.1631  0.0695  0.6347
 5082TIP3    H236662   2.778   0.643   2.353 -0.0706  0.2348  0.5110
 5083TIP3   OH236663   0.226   4.991   4.175 -0.0612 -0.2534 -0.0518
 5083TIP3    H136664   0.283   5.011   4.249  0.4170  0.8966 -0.7058
 5083TIP3    H236665   0.268   4.916   4.132  0.2810 -0.2054  0.1906
 5084TIP3   OH236666   1.987   0.099   0.312  0.1290 -0.3676 -0.2534
 5084TIP3    H136667   2.060   0.137   0.360 -1.4393  1.3199  0.9398
 5084TIP3    H236668   1.981   0.150   0.231 -0.6394  0.5411  0.3565
 5085TIP3   OH236669   3.824   4.325  13.435 -0.4282 -0.5654 -0.1778
 5085TIP3    H136670   3.843   4.419  13.433 -1.1515 -0.3776  1.0359
 5085TIP3    H236671   3.874   4.291  13.509 -0.8377 -0.9704 -0.0781
 5086TIP3   OH236672   5.218   1.088  13.365  0.6000 -0.0331 -0.1595
 5086TIP3    H136673   5.298   1.043  13.391  2.1283  0.8593 -2.8943
 5086TIP3    H236674   5.249   1.170  13.324 -1.7617  0.8340 -0.3594
 5087TIP3   OH236675   1.178   3.095   3.532 -0.1074 -0.8060 -0.4854
 5087TIP3    H136676   1.193   3.150   3.608  0.7670  0.9157 -1.8271
 5087TIP3    H236677   1.146   3.012   3.568  1.2368 -0.4195  1.7873
 5088TIP3   OH236678   6.141   0.355  16.981  0.4418 -0.1621  0.3735
 5088TIP3    H136679   6.098   0.399  17.054 -0.4946  1.9210 -1.3203
 5088TIP3    H236680   6.088   0.378  16.904  0.9030 -2.9197 -0.9083
 5089TIP3   OH236681   0.706   2.495   5.374 -0.3657 -0.3078  0.5624
 5089TIP3    H136682   0.717   2.403   5.398  0.1142 -0.2486  0.5786
 5089TIP3    H236683   0.612   2.511   5.385 -0.3927 -0.6886  0.9526
 5090TIP3   OH236684   3.339   5.562  11.137  0.0478  0.1149  0.2150
 5090TIP3    H136685   3.402   5.508  11.186 -0.4169  0.2182  0.9432
 5090TIP3    H236686   3.377   5.650  11.138  0.8664 -0.1956 -1.0772
 5091TIP3   OH236687   4.890   6.114  15.911  0.4839 -0.5925  0.4787
 5091TIP3    H136688   4.918   6.024  15.895  2.5896 -0.0937  0.9802
 5091TIP3    H236689   4.957   6.150  15.971 -1.0052  0.9163  1.3291
 5092TIP3   OH236690   3.990   2.159  12.204  0.4280 -0.4004 -0.6784
 5092TIP3    H136691   3.990   2.248  12.239 -0.3284  0.7365 -3.3205
 5092TIP3    H236692   4.047   2.110  12.263 -1.3927  1.0698  2.5729
 5093TIP3   OH236693   2.419   6.356   5.541  0.2672  0.0320  0.0249
 5093TIP3    H136694   2.463   6.272   5.532  0.2561 -0.0629  0.8047
 5093TIP3    H236695   2.335   6.335   5.582 -1.7122 -0.1481 -3.6996
 5094TIP3   OH236696   6.180   2.679   6.231 -0.2001  0.1424  0.3280
 5094TIP3    H136697   6.199   2.772   6.242  0.3177  0.3262 -1.7211
 5094TIP3    H236698   6.265   2.636   6.245  0.1395  0.2518 -1.1744
 5095TIP3   OH236699   5.570   0.626  16.966 -0.5152  0.4602  0.1440
 5095TIP3    H136700   5.611   0.624  17.053 -0.3753  0.5723  0.0830
 5095TIP3    H236701   5.590   0.714  16.933  0.1735  0.1277 -0.3516
 5096TIP3   OH236702   2.434   6.231   0.611 -0.1442 -0.5243 -0.3430
 5096TIP3    H136703   2.395   6.186   0.686 -0.5080  1.7609  0.9235
 5096TIP3    H236704   2.360   6.257   0.557 -0.1281  0.4524  0.0837
 5097TIP3   OH236705   5.129   6.765   1.990  0.0297 -0.6840 -0.5493
 5097TIP3    H136706   5.076   6.818   1.930  0.3186  0.4063  0.1431
 5097TIP3    H236707   5.074   6.753   2.067  0.8785  0.7843  0.3374
 5098TIP3   OH236708   5.704   2.435   0.816  0.0136 -0.2159  0.3288
 5098TIP3    H136709   5.626   2.458   0.866 -0.0760  0.0251  0.0806
 5098TIP3    H236710   5.696   2.485   0.735  0.8867  0.5125  0.6740
 5099TIP3   OH236711   1.938   6.200  13.820 -0.4719  0.3775  0.1829
 5099TIP3    H136712   1.881   6.232  13.889 -1.8768 -1.5205 -0.0189
 5099TIP3    H236713   2.020   6.179  13.864 -0.3954  1.7156  0.7411
 5100TIP3   OH236714   4.151   2.331  16.103  0.1938 -0.3131  0.1918
 5100TIP3    H136715   4.214   2.279  16.053  0.0371  0.2257 -0.5936
 5100TIP3    H236716   4.091   2.366  16.037  1.4160  2.4540  0.3982
 5101TIP3   OH236717   0.115   0.453   1.057  0.6214  0.5894  0.0993
 5101TIP3    H136718   0.206   0.462   1.031  0.8243 -1.6216 -0.1209
 5101TIP3    H236719   0.110   0.368   1.102 -1.2997  0.7009  0.2089
 5102TIP3   OH236720   5.145   5.852  12.557  0.1339 -0.3488  0.4951
 5102TIP3    H136721   5.062   5.856  12.605  0.6073  1.0203  1.2616
 5102TIP3    H236722   5.139   5.924  12.494 -0.2034 -1.7133 -1.0931
 5103TIP3   OH236723   3.409   4.719   1.110 -0.0461 -0.5921 -0.1329
 5103TIP3    H136724   3.355   4.797   1.100 -0.7048 -1.1254 -0.8245
 5103TIP3    H236725   3.499   4.751   1.105 -0.3070  0.1448 -0.1960
 5104TIP3   OH236726   3.205   6.040  13.161 -0.6570 -0.1164  0.1928
 5104TIP3    H136727   3.260   6.096  13.106  0.6315 -0.4030  1.1687
 5104TIP3    H236728   3.170   5.974  13.101  1.5756 -1.0731 -0.1214
 5105TIP3   OH236729   1.957   1.472   3.437 -0.5274  0.1952  0.6088
 5105TIP3    H136730   1.866   1.443   3.444 -0.7137  1.0319  1.9021
 5105TIP3    H236731   1.985   1.442   3.350 -1.8043 -0.6973  0.4860
 5106TIP3   OH236732   6.632   5.023  12.046  0.2906  0.5796 -0.3776
 5106TIP3    H136733   6.681   5.101  12.020 -0.4367  0.6541 -1.6188
 5106TIP3    H236734   6.551   5.027  11.994 -1.4352  0.8855  2.1714
 5107TIP3   OH236735   4.131   2.071  13.753 -0.4134  0.0571  0.4929
 5107TIP3    H136736   4.210   2.054  13.702  0.7953 -0.3301  2.3813
 5107TIP3    H236737   4.077   2.125  13.696  0.1419 -1.6294 -1.7713
 5108TIP3   OH236738   0.049   6.670  16.998 -0.0509 -0.5981 -0.5397
 5108TIP3    H136739   0.138   6.692  16.971 -0.3254  0.0342 -0.9419
 5108TIP3    H236740   0.025   6.737  17.061  1.0408 -2.7371  2.4024
 5109TIP3   OH236741   2.945   2.405  17.107 -0.0090  0.3053  0.5948
 5109TIP3    H136742   2.978   2.323  17.071  0.5414  0.2345  1.2298
 5109TIP3    H236743   2.950   2.467  17.034  1.7259  0.3427  0.6883
 5110TIP3   OH236744   1.815   5.151  15.663 -0.2900  0.4405  0.2496
 5110TIP3    H136745   1.821   5.246  15.667  1.3215  0.4825 -1.5705
 5110TIP3    H236746   1.890   5.120  15.715 -0.4028  0.1741  0.2582
 5111TIP3   OH236747   2.133   2.708   2.518  0.1475  0.2366  0.3384
 5111TIP3    H136748   2.068   2.649   2.480 -0.0774  0.0048  1.0658
 5111TIP3    H236749   2.082   2.767   2.573  0.5081  0.2999  0.6066
 5112TIP3   OH236750   4.372   1.454  10.419 -0.6665 -0.9563 -0.3965
 5112TIP3    H136751   4.466   1.457  10.438 -0.3462  1.2652 -1.9256
 5112TIP3    H236752   4.351   1.361  10.412  1.5769 -1.4836 -0.7160
 5113TIP3   OH236753   5.892   4.069   5.751 -0.3922  0.0252 -0.3012
 5113TIP3    H136754   5.975   4.109   5.724 -0.1603 -0.0648  0.2502
 5113TIP3    H236755   5.835   4.144   5.770 -0.4473  0.0874 -0.7182
 5114TIP3   OH236756   2.500   0.322   3.324  0.0034  0.1359  0.4208
 5114TIP3    H136757   2.571   0.328   3.388 -0.6998 -2.3037  1.5645
 5114TIP3    H236758   2.455   0.240   3.346 -2.6347  1.1468 -0.8122
 5115TIP3   OH236759   2.090   3.080  13.535  0.2446  0.3161  0.2153
 5115TIP3    H136760   2.093   3.106  13.443 -0.1938 -0.7268 -0.1127
 5115TIP3    H236761   2.039   3.148  13.578  0.5043  0.8445 -0.2974
 5116TIP3   OH236762   5.766   4.805   0.714  0.1202  0.0426 -0.0051
 5116TIP3    H136763   5.780   4.740   0.645  1.1573  0.1397  0.1051
 5116TIP3    H236764   5.724   4.878   0.670 -1.4395 -0.8383 -0.0609
 5117TIP3   OH236765   3.756   6.655   0.206 -0.2480  0.0952 -0.0473
 5117TIP3    H136766   3.690   6.608   0.154  1.2174  0.2362 -2.1765
 5117TIP3    H236767   3.840   6.624   0.170  0.8746  0.0868  2.4089
 5118TIP3   OH236768   1.581   1.490  14.969 -0.0431 -0.2475  0.2837
 5118TIP3    H136769   1.521   1.534  14.910 -0.5985  0.1771  1.1530
 5118TIP3    H236770   1.546   1.506  15.057  1.3374  0.0276  0.8159
 5119TIP3   OH236771   2.800   1.750  14.365 -0.2261  0.1226  0.2727
 5119TIP3    H136772   2.781   1.699  14.286  1.6629 -0.8903  0.4283
 5119TIP3    H236773   2.719   1.745  14.416 -0.8623 -0.7515 -0.7637
 5120TIP3   OH236774   6.536   3.841  15.045 -0.0623  0.1230 -0.2519
 5120TIP3    H136775   6.590   3.850  15.123 -0.9216 -1.5901  0.6064
 5120TIP3    H236776   6.450   3.873  15.071 -0.7772 -1.8980  0.0725
 5121TIP3   OH236777   5.181   2.492  15.833  0.7934  0.4611  0.5462
 5121TIP3    H136778   5.175   2.587  15.847 -0.3260  0.6001 -0.6690
 5121TIP3    H236779   5.123   2.475  15.758  0.9133 -1.1953  0.7911
 5122TIP3   OH236780   3.592   0.200   0.505  0.0224  0.0435  0.1229
 5122TIP3    H136781   3.630   0.192   0.417  0.4087 -0.7370  0.3527
 5122TIP3    H236782   3.635   0.278   0.542  2.9658 -1.8693  1.0858
 5123TIP3   OH236783   1.448   2.890   4.581 -0.5016  0.3607  0.0588
 5123TIP3    H136784   1.409   2.941   4.511  1.2180  1.8919  0.1586
 5123TIP3    H236785   1.397   2.913   4.659 -1.2615  0.0351 -0.3303
 5124TIP3   OH236786   3.162   4.267   5.876 -0.7024 -0.2505  0.4183
 5124TIP3    H136787   3.250   4.249   5.908 -1.4301 -0.4252  2.4185
 5124TIP3    H236788   3.165   4.243   5.783  1.4118  0.0384  0.3646
 5125TIP3   OH236789   6.247   1.445  13.462 -0.1662 -0.3235  0.4142
 5125TIP3    H136790   6.307   1.375  13.439 -2.0158 -1.3362 -1.7433
 5125TIP3    H236791   6.214   1.477  13.378 -1.7475  0.9616  1.4626
 5126TIP3   OH236792   1.018   4.273  12.998  0.3324  0.6280  0.2762
 5126TIP3    H136793   0.999   4.193  13.047 -0.8889  1.0460  0.5026
 5126TIP3    H236794   1.014   4.247  12.907 -0.7256  0.5575  0.3324
 5127TIP3   OH236795   0.156   0.996   3.456  0.1518 -0.4467  0.7566
 5127TIP3    H136796   0.162   0.911   3.413 -0.0572  0.1962 -0.6137
 5127TIP3    H236797   0.182   1.059   3.388  1.2060  0.5248  2.0075
 5128TIP3   OH236798   3.395   3.220  14.267  0.1095  0.0625 -0.2002
 5128TIP3    H136799   3.351   3.135  14.266 -1.1810  0.6533  1.1599
 5128TIP3    H236800   3.448   3.219  14.347 -0.4943  0.7868  0.2216
 5129TIP3   OH236801   6.028   6.728  12.042  0.0773 -0.1207 -0.0242
 5129TIP3    H136802   6.093   6.717  12.112 -0.8238 -0.9709  0.7181
 5129TIP3    H236803   5.950   6.682  12.074 -0.7407  0.4532 -1.0998
 5130TIP3   OH236804   0.580   0.115   4.215 -0.2736  1.0073 -0.0418
 5130TIP3    H136805   0.520   0.162   4.156  0.2716  2.1398  0.2818
 5130TIP3    H236806   0.642   0.182   4.244 -0.2524  0.3698  1.4584
 5131TIP3   OH236807   6.040   5.636   1.466  0.3463 -0.0068 -0.1098
 5131TIP3    H136808   5.948   5.624   1.489  0.0651 -0.1477 -1.2066
 5131TIP3    H236809   6.061   5.725   1.494  0.0217 -0.1464  0.5926
 5132TIP3   OH236810   5.238   3.807   6.204  0.9451  0.4058  0.8035
 5132TIP3    H136811   5.177   3.747   6.248 -0.5190 -0.2334 -1.8721
 5132TIP3    H236812   5.186   3.885   6.186  1.9028  1.1844  1.3360
 5133TIP3   OH236813   3.762   4.893  11.516 -0.4071  0.1257 -0.4302
 5133TIP3    H136814   3.767   4.902  11.421  0.5213 -0.4659 -0.4515
 5133TIP3    H236815   3.780   4.980  11.550 -0.9494  0.3859 -0.7929
 5134TIP3   OH236816   1.012   2.097   2.912  0.9295  0.3896 -0.5982
 5134TIP3    H136817   1.098   2.103   2.871  1.3465 -0.8874  0.0394
 5134TIP3    H236818   0.959   2.046   2.850  0.4962  1.5025 -1.1704
 5135TIP3   OH236819   1.101   2.793  13.416 -0.2833 -0.2594  0.4559
 5135TIP3    H136820   1.165   2.769  13.348 -0.3549 -1.2146  0.7126
 5135TIP3    H236821   1.125   2.883  13.440 -0.1648  0.0538 -0.7279
 5136TIP3   OH236822   0.148   1.340   1.143 -0.0541 -0.0849 -0.3405
 5136TIP3    H136823   0.237   1.330   1.177 -0.5639 -0.9661  0.8035
 5136TIP3    H236824   0.091   1.311   1.214 -1.2373 -0.3439 -1.3447
 5137TIP3   OH236825   2.004   0.408  11.378  0.1620  0.0765 -0.1020
 5137TIP3    H136826   2.066   0.473  11.346  1.8934 -2.0315 -1.2834
 5137TIP3    H236827   2.030   0.327  11.335 -2.2833 -1.3020  0.8352
 5138TIP3   OH236828   5.877   3.562   0.996 -0.2607 -0.2813  0.2728
 5138TIP3    H136829   5.801   3.509   0.972  1.8376 -1.8302 -3.9301
 5138TIP3    H236830   5.932   3.504   1.049 -2.0569  1.0749  3.9674
 5139TIP3   OH236831   2.314   6.750  12.962  0.2757 -0.8884 -0.5594
 5139TIP3    H136832   2.373   6.821  12.991 -0.5788 -0.2094 -0.4437
 5139TIP3    H236833   2.267   6.788  12.887 -0.9728 -0.9339  0.1768
 5140TIP3   OH236834   5.907   2.514  11.705  0.1505  0.0123  0.1116
 5140TIP3    H136835   5.920   2.607  11.689  1.9451 -0.0818  0.7617
 5140TIP3    H236836   5.937   2.501  11.795  0.4653 -1.2783 -0.1545
 5141TIP3   OH236837   3.213   3.807   3.734  0.5169 -0.1614  0.6425
 5141TIP3    H136838   3.148   3.757   3.684  0.8548  1.9157 -2.0873
 5141TIP3    H236839   3.162   3.859   3.795 -0.6215  2.1189 -2.0801
 5142TIP3   OH236840   6.456   1.061  17.139 -0.0924 -0.1872 -0.2469
 5142TIP3    H136841   6.478   1.134  17.197 -2.3949 -0.5380  1.1831
 5142TIP3    H236842   6.481   0.983  17.188  1.2907 -0.4375 -1.2906
 5143TIP3   OH236843   1.274   5.064  16.250 -0.6454 -0.3837 -0.2994
 5143TIP3    H136844   1.196   5.106  16.286  0.0531  0.5883  0.1234
 5143TIP3    H236845   1.269   5.079  16.156 -0.2148  1.0197 -0.1194
 5144TIP3   OH236846   1.473   6.178   1.764 -0.2108  0.5952  0.0315
 5144TIP3    H136847   1.555   6.141   1.731 -0.5536 -0.4143  0.2751
 5144TIP3    H236848   1.481   6.272   1.748  0.4524  0.3656 -1.1469
 5145TIP3   OH236849   4.523   5.693   4.964 -0.1120 -0.2623 -0.7482
 5145TIP3    H136850   4.465   5.636   4.914  0.7513 -1.5741 -0.3147
 5145TIP3    H236851   4.531   5.650   5.049  0.7482  0.3782 -0.4922
 5146TIP3   OH236852   0.988   4.811  15.554  0.1239 -0.0978  0.2333
 5146TIP3    H136853   0.918   4.746  15.547 -0.0806 -0.1314  2.1247
 5146TIP3    H236854   1.030   4.793  15.638 -0.6367  2.8178  1.3734
 5147TIP3   OH236855   5.329   5.021  15.997  0.0146  0.0631 -0.6241
 5147TIP3    H136856   5.349   5.112  15.977 -0.1875  0.0262 -1.0180
 5147TIP3    H236857   5.309   4.982  15.911  0.6031 -0.4772 -0.5219
 5148TIP3   OH236858   2.601   1.756  14.553 -0.3302 -0.0670  0.2048
 5148TIP3    H136859   2.557   1.719  14.629 -0.4901 -0.1648  0.0654
 5148TIP3    H236860   2.666   1.816  14.589 -1.1071  0.6820  0.4002
 5149TIP3   OH236861   4.830   4.211  14.642  0.3422  0.1918  0.5234
 5149TIP3    H136862   4.746   4.190  14.603  0.0847  1.0002  0.6218
 5149TIP3    H236863   4.849   4.138  14.701 -0.2326 -0.0451  0.4125
 5150TIP3   OH236864   3.403   0.665   5.248  0.6902  1.0560 -0.1674
 5150TIP3    H136865   3.443   0.749   5.269  1.9977  0.2712  0.6640
 5150TIP3    H236866   3.473   0.614   5.209  0.0362  0.2062 -0.2610
 5151TIP3   OH236867   1.840   2.833  15.689 -0.7332 -0.1110 -0.2138
 5151TIP3    H136868   1.828   2.782  15.769 -0.3189 -0.1939 -0.2020
 5151TIP3    H236869   1.862   2.921  15.719  0.8375 -0.4774 -0.2220
 5152TIP3   OH236870   1.665   6.686  12.840  0.0209 -0.9307 -0.0784
 5152TIP3    H136871   1.702   6.673  12.928 -1.7423  0.5828  0.9605
 5152TIP3    H236872   1.595   6.620  12.835  0.7723 -1.6932 -0.7839
 5153TIP3   OH236873   0.890   0.960  16.919 -0.2823 -0.4377  0.0838
 5153TIP3    H136874   0.841   1.021  16.975  0.0851  0.4635 -0.5468
 5153TIP3    H236875   0.949   1.017  16.869 -0.6753 -1.2012 -1.2957
 5154TIP3   OH236876   6.041   0.519   0.846 -0.2050  0.1308 -0.5055
 5154TIP3    H136877   5.979   0.592   0.854  0.1867  0.4994 -0.7864
 5154TIP3    H236878   6.041   0.497   0.753  1.7692  1.6501 -0.9305
 5155TIP3   OH236879   6.635   5.554   4.337  0.5165 -0.4647 -0.3108
 5155TIP3    H136880   6.615   5.648   4.332 -0.6686 -0.6895  0.0180
 5155TIP3    H236881   6.611   5.520   4.251  1.4582 -0.3849 -0.6161
 5156TIP3   OH236882   4.670   3.019  16.644  0.6152 -0.0418  0.5323
 5156TIP3    H136883   4.621   3.037  16.564  1.2618  0.3506  0.2077
 5156TIP3    H236884   4.605   2.986  16.706  0.5479 -3.2193 -1.0602
 5157TIP3   OH236885   5.979   2.994  12.858 -0.6152 -0.3174 -0.0990
 5157TIP3    H136886   5.894   3.006  12.901 -2.0180 -1.9072 -2.1837
 5157TIP3    H236887   5.957   2.958  12.772  2.0904  1.1411 -1.5352
 5158TIP3   OH236888   0.357   5.263   4.224  0.2027 -0.3031  0.2523
 5158TIP3    H136889   0.343   5.267   4.129  0.8623 -1.2635  0.1008
 5158TIP3    H236890   0.452   5.272   4.234  0.0177  1.1889  0.9308
 5159TIP3   OH236891   4.121   5.918  11.305  0.3508 -0.1889  0.2133
 5159TIP3    H136892   4.186   5.985  11.327  1.4765  0.1746 -3.6146
 5159TIP3    H236893   4.045   5.967  11.275  0.6325 -0.5690 -1.1887
 5160TIP3   OH236894   1.723   0.603   3.932  0.1323  0.7570  0.4235
 5160TIP3    H136895   1.652   0.592   3.997  0.1020  0.1752  0.3020
 5160TIP3    H236896   1.679   0.593   3.848  0.1648  1.5671  0.3082
 5161TIP3   OH236897   4.366   3.132  13.341 -0.3795 -0.1085 -0.0742
 5161TIP3    H136898   4.356   3.227  13.329 -0.4103  0.1086  1.5521
 5161TIP3    H236899   4.446   3.111  13.292 -0.2162  0.7944 -0.2273
 5162TIP3   OH236900   4.293   0.815   4.156  0.2507 -0.3968  0.1692
 5162TIP3    H136901   4.328   0.764   4.083  2.1854 -0.5428  1.1471
 5162TIP3    H236902   4.361   0.879   4.177 -0.1432 -0.4835  1.9446
 5163TIP3   OH236903   3.866   2.301  17.017  0.4266  0.2035 -0.4374
 5163TIP3    H136904   3.816   2.332  17.093 -0.4914 -2.7603  0.2817
 5163TIP3    H236905   3.803   2.303  16.945  0.1376 -0.6569 -0.2167
 5164TIP3   OH236906   4.681   1.820   3.233 -0.0523  0.8760  0.2363
 5164TIP3    H136907   4.619   1.786   3.298  0.1485 -0.5922 -0.3036
 5164TIP3    H236908   4.644   1.794   3.148 -0.1219  2.4395 -0.2458
 5165TIP3   OH236909   2.161   2.629  12.095 -0.3066 -0.5823  0.1902
 5165TIP3    H136910   2.146   2.662  12.007  0.1894 -2.6467 -0.7398
 5165TIP3    H236911   2.096   2.560  12.106 -0.8486  0.1346  1.7586
 5166TIP3   OH236912   6.227   0.214   0.407 -0.5931 -0.3226  0.1610
 5166TIP3    H136913   6.225   0.154   0.482 -1.4448 -0.1531  0.2795
 5166TIP3    H236914   6.135   0.224   0.382 -0.4104  0.5105 -0.1972
 5167TIP3   OH236915   3.237   3.861  11.496 -0.3456 -0.5001 -0.0319
 5167TIP3    H136916   3.303   3.906  11.549  0.3395 -1.8567  0.3327
 5167TIP3    H236917   3.157   3.866  11.548 -0.4450  0.8030 -0.2857
 5168TIP3   OH236918   3.026   3.333   0.696  0.1411  0.3275 -0.0147
 5168TIP3    H136919   3.013   3.261   0.635 -0.8294 -2.3760  3.1157
 5168TIP3    H236920   3.120   3.339   0.708  0.3151  0.6060 -1.3412
 5169TIP3   OH236921   2.463   3.730  12.517 -0.1331 -0.3995 -0.2272
 5169TIP3    H136922   2.493   3.817  12.489 -1.2194 -0.3891 -1.4440
 5169TIP3    H236923   2.382   3.747  12.564  0.0149 -0.7052  0.1417
 5170TIP3   OH236924   2.888   1.238   6.447 -0.5644  0.1546  0.3476
 5170TIP3    H136925   2.862   1.152   6.414 -0.9653  0.5308 -0.3425
 5170TIP3    H236926   2.973   1.254   6.407 -1.5171  1.0683 -1.4081
 5171TIP3   OH236927   0.019   3.454  16.739 -0.2219 -0.2673  0.4664
 5171TIP3    H136928   0.090   3.507  16.776 -0.3112 -0.4958  0.9738
 5171TIP3    H236929   0.053   3.424  16.655  0.3377 -0.4966  0.7738
 5172TIP3   OH236930   2.259   4.950  15.424 -0.0997  0.0819  0.3563
 5172TIP3    H136931   2.259   4.991  15.511 -0.8742 -1.1523  0.9614
 5172TIP3    H236932   2.166   4.939  15.404  0.0902 -0.7331 -0.0949
 5173TIP3   OH236933   4.604   0.731   3.475 -0.1344 -0.8828  0.2614
 5173TIP3    H136934   4.672   0.794   3.454  1.2592 -2.0422  1.1232
 5173TIP3    H236935   4.648   0.646   3.475 -1.6382 -1.7106  0.5622
 5174TIP3   OH236936   1.150   1.456  16.454  0.0847  0.2620  0.4023
 5174TIP3    H136937   1.093   1.508  16.397 -1.0833  0.8069  1.9900
 5174TIP3    H236938   1.238   1.476  16.423 -0.4178  1.9095 -0.1112
 5175TIP3   OH236939   5.308   4.707  11.219  0.3911 -0.5278 -0.2479
 5175TIP3    H136940   5.255   4.771  11.171  0.6685  0.1455  0.3268
 5175TIP3    H236941   5.362   4.666  11.153 -0.3565 -0.7345 -0.7468
 5176TIP3   OH236942   1.782   5.502   0.245  0.6709  0.0595  0.1200
 5176TIP3    H136943   1.778   5.417   0.201 -0.7889  0.4435 -0.5692
 5176TIP3    H236944   1.776   5.481   0.338 -0.5343 -0.5677 -0.0793
 5177TIP3   OH236945   0.282   4.916   0.674  0.0163 -0.0484  0.3272
 5177TIP3    H136946   0.331   4.906   0.756 -1.1320  0.2759  1.0645
 5177TIP3    H236947   0.286   5.009   0.656  3.3356 -0.4385 -1.9657
 5178TIP3   OH236948   1.580   3.552   2.735  0.7016  0.2360 -0.5915
 5178TIP3    H136949   1.622   3.498   2.668  1.0225  0.5223 -0.6211
 5178TIP3    H236950   1.507   3.499   2.766 -0.2905  0.6253 -2.1287
 5179TIP3   OH236951   1.987   0.360  11.661  0.0367  0.0774  0.0530
 5179TIP3    H136952   2.041   0.432  11.694  0.9795 -1.1880  1.3825
 5179TIP3    H236953   1.986   0.373  11.566 -0.2359  2.1050  0.2758
 5180TIP3   OH236954   3.813   1.120  13.764 -0.1170 -0.4969  0.0574
 5180TIP3    H136955   3.735   1.171  13.742  1.2926  2.2069  0.8265
 5180TIP3    H236956   3.875   1.140  13.694  0.4491 -1.2459  0.3307
 5181TIP3   OH236957   0.602   0.114   0.575 -0.3762  0.4083 -0.0248
 5181TIP3    H136958   0.559   0.056   0.513  0.2456 -0.4195  0.2999
 5181TIP3    H236959   0.554   0.197   0.568 -1.8122 -0.3928  0.1237
 5182TIP3   OH236960   3.818   5.500  16.472  0.2048 -0.1931  0.4188
 5182TIP3    H136961   3.894   5.480  16.418 -0.2350 -1.8845  0.3555
 5182TIP3    H236962   3.750   5.525  16.410  0.1661 -0.5779  0.2997
 5183TIP3   OH236963   5.677   2.799  15.293  0.2625 -0.1893  0.0505
 5183TIP3    H136964   5.589   2.766  15.275 -0.6734  2.0004  0.2093
 5183TIP3    H236965   5.695   2.772  15.383 -0.5867 -0.0105  0.2831
 5184TIP3   OH236966   1.683   4.284  15.564 -0.0537  0.1053 -0.9578
 5184TIP3    H136967   1.772   4.314  15.546  0.4608 -0.6036  0.3242
 5184TIP3    H236968   1.674   4.204  15.512  0.2969 -0.1874 -0.5726
 5185TIP3   OH236969   5.944   4.341  15.086 -0.4378 -0.6265  0.2537
 5185TIP3    H136970   5.875   4.384  15.137  0.4037 -1.4739  2.2107
 5185TIP3    H236971   5.951   4.253  15.123  0.7024 -1.0555 -0.8900
 5186TIP3   OH236972   3.436   6.583  12.470  0.1555  1.2429  0.5396
 5186TIP3    H136973   3.479   6.593  12.384  0.2898  0.7421  0.5460
 5186TIP3    H236974   3.485   6.513  12.513 -0.8418  0.4542  0.4341
 5187TIP3   OH236975   2.573   6.411   2.320 -0.1383  0.3489  0.0854
 5187TIP3    H136976   2.478   6.418   2.311 -0.1103  0.3584 -0.2245
 5187TIP3    H236977   2.599   6.346   2.255  0.0791  0.4259  0.0927
 5188TIP3   OH236978   3.127   1.236  15.454  0.0309 -0.0321  0.4394
 5188TIP3    H136979   3.110   1.325  15.424  1.4009  0.9051  2.1939
 5188TIP3    H236980   3.041   1.200  15.474 -0.4527  2.0077  2.4898
 5189TIP3   OH236981   4.845   0.397  16.714  0.5253  0.3641  0.5078
 5189TIP3    H136982   4.785   0.433  16.647  0.2081 -0.1760  0.4962
 5189TIP3    H236983   4.932   0.423  16.684  0.4934 -0.9025 -0.7856
 5190TIP3   OH236984   2.745   1.931  14.752 -0.4623 -0.2654  0.2077
 5190TIP3    H136985   2.827   1.967  14.719 -0.4445  0.3935  0.9461
 5190TIP3    H236986   2.773   1.869  14.821 -0.5948  0.5664  1.0329
 5191TIP3   OH236987   5.958   5.714  15.209 -0.0182 -0.5222 -0.6648
 5191TIP3    H136988   6.002   5.657  15.147 -0.6875 -1.5780 -0.1998
 5191TIP3    H236989   5.892   5.659  15.250 -0.5848  0.5501 -0.0799
 5192TIP3   OH236990   0.040   1.894  12.233  0.4962 -0.0963  0.0920
 5192TIP3    H136991   0.055   1.976  12.186  1.6947 -1.0228 -1.2268
 5192TIP3    H236992  -0.047   1.865  12.204  0.2793  0.4520  0.1843
 5193TIP3   OH236993   3.044   2.083   3.760  0.7287  0.1230  0.0853
 5193TIP3    H136994   3.090   2.022   3.817 -0.2638  0.5913  1.4264
 5193TIP3    H236995   3.035   2.162   3.812  0.8555  0.9944 -1.1687
 5194TIP3   OH236996   1.143   5.138  15.648  0.4072 -0.5054  0.3735
 5194TIP3    H136997   1.128   5.221  15.603 -1.0258 -0.4830  0.8465
 5194TIP3    H236998   1.232   5.112  15.622  1.3324  1.7103  1.1184
 5195TIP3   OH236999   5.151   2.075  16.080 -0.6604  0.1078  0.5767
 5195TIP3    H137000   5.234   2.112  16.109 -1.3815  0.2390  2.6359
 5195TIP3    H237001   5.160   1.980  16.095 -0.5107 -0.0069 -0.2101
 5196TIP3   OH237002   0.362   5.487   4.448  0.0629 -0.0740  0.2084
 5196TIP3    H137003   0.286   5.506   4.393  2.0063 -0.0154 -2.7495
 5196TIP3    H237004   0.434   5.476   4.385  2.2214 -1.5799  2.7178
 5197TIP3   OH237005   1.127   6.413   5.856 -0.0559  0.0350  0.1247
 5197TIP3    H137006   1.175   6.331   5.843 -2.3425 -1.0537 -2.2899
 5197TIP3    H237007   1.090   6.405   5.944  2.4160  0.0378  1.2525
 5198TIP3   OH237008   6.587   6.411  16.125 -0.0289  0.6677 -0.1462
 5198TIP3    H137009   6.571   6.376  16.037  0.1767  0.1512  0.0250
 5198TIP3    H237010   6.523   6.482  16.134 -0.4717  0.3118 -0.4706
 5199TIP3   OH237011   3.153   5.296   4.735 -0.8300 -0.2833  1.0022
 5199TIP3    H137012   3.095   5.231   4.774 -0.6447 -0.4901  0.9371
 5199TIP3    H237013   3.125   5.303   4.644 -1.7128  0.7085  1.3298
 5200TIP3   OH237014   6.167   0.502  16.170 -0.0136  0.0297 -0.6336
 5200TIP3    H137015   6.242   0.453  16.136 -0.2474 -0.2657 -0.7390
 5200TIP3    H237016   6.204   0.583  16.204  0.1028  0.8624 -2.6343
 5201TIP3   OH237017   4.298   3.224  15.571  0.5060  0.0280 -0.0995
 5201TIP3    H137018   4.303   3.131  15.591 -0.8142  0.2319  1.3403
 5201TIP3    H237019   4.325   3.230  15.479  0.6702 -1.7419 -0.2058
 5202TIP3   OH237020   4.343   4.146  14.723  0.5999  0.2813  0.7261
 5202TIP3    H137021   4.356   4.161  14.629 -1.4788  0.3785  0.4176
 5202TIP3    H237022   4.337   4.051  14.732  0.0185  0.3044  0.6277
 5203TIP3   OH237023   4.273   2.593  14.960 -0.1530  0.0529  0.1895
 5203TIP3    H137024   4.247   2.505  14.985  1.8442  0.2820  3.7858
 5203TIP3    H237025   4.308   2.585  14.871 -0.7553 -2.5876  0.1400
 5204TIP3   OH237026   3.608   0.497  11.264 -0.5965 -0.1204 -0.2463
 5204TIP3    H137027   3.626   0.590  11.277 -2.5837  0.1865  0.8144
 5204TIP3    H237028   3.635   0.479  11.174  3.8506  0.3536  0.7777
 5205TIP3   OH237029   6.036   5.672   5.333 -0.5288  0.4207  0.0253
 5205TIP3    H137030   6.036   5.642   5.242  0.7938  0.6628 -0.0702
 5205TIP3    H237031   5.946   5.699   5.349 -1.3829 -1.9622 -0.4112
 5206TIP3   OH237032   4.817   3.034  14.394  0.2849  0.3271  0.8071
 5206TIP3    H137033   4.796   2.998  14.480  0.4617 -1.3555  0.1837
 5206TIP3    H237034   4.891   2.981  14.364 -0.7689 -0.1730 -1.0366
 5207TIP3   OH237035   5.006   2.987  12.895  0.3775 -0.6698  0.2883
 5207TIP3    H137036   4.984   2.984  12.802 -0.7472 -2.1008  0.5530
 5207TIP3    H237037   5.099   3.010  12.898  0.1676  0.4859 -1.1192
 5208TIP3   OH237038   0.741   1.088  13.263  0.2861 -0.3055  0.0006
 5208TIP3    H137039   0.771   1.084  13.353 -0.6646 -1.5084  0.3050
 5208TIP3    H237040   0.681   1.013  13.255 -0.8031  0.6519 -1.1969
 5209TIP3   OH237041   3.683   0.813  11.770 -0.0216  0.4036  0.6459
 5209TIP3    H137042   3.716   0.774  11.852 -0.1771  3.0232  2.0735
 5209TIP3    H237043   3.620   0.879  11.799 -1.0871  0.5043 -1.7078
 5210TIP3   OH237044   2.667   5.397  16.849  0.1784  0.5358 -0.4452
 5210TIP3    H137045   2.607   5.472  16.855  0.3335  0.5672  0.9813
 5210TIP3    H237046   2.640   5.351  16.769 -0.6728  1.4650 -0.7079
 5211TIP3   OH237047   1.190   1.471   3.055  0.6187  0.4516 -0.7188
 5211TIP3    H137048   1.257   1.412   3.090 -0.0839  0.2285  0.2972
 5211TIP3    H237049   1.118   1.413   3.031 -0.7674  0.9639  1.8681
 5212TIP3   OH237050   0.974   6.331   5.135 -0.0913 -0.4023  0.1283
 5212TIP3    H137051   1.038   6.352   5.067 -0.4106 -1.9627 -0.7158
 5212TIP3    H237052   0.891   6.364   5.101  0.0336  0.4010  0.5919
 5213TIP3   OH237053   3.154   1.903   0.812 -0.5522  0.1487 -0.8499
 5213TIP3    H137054   3.242   1.926   0.781 -1.1376  1.6451 -1.4784
 5213TIP3    H237055   3.128   1.977   0.867 -1.1286 -0.6345 -0.0456
 5214TIP3   OH237056   1.517   1.765   5.203  0.2858  0.0084  0.3003
 5214TIP3    H137057   1.453   1.713   5.251 -0.7779 -0.3945 -1.4801
 5214TIP3    H237058   1.582   1.701   5.173  0.1595  0.0363 -0.0347
 5215TIP3   OH237059   0.843   2.480   2.916 -0.0800  0.3949  0.1917
 5215TIP3    H137060   0.778   2.481   2.986 -1.7062 -0.9766 -1.2212
 5215TIP3    H237061   0.795   2.451   2.839  2.3252 -1.2171 -0.7996
 5216TIP3   OH237062   0.930   1.841   5.672  0.1805 -0.2470  0.0611
 5216TIP3    H137063   0.883   1.817   5.752  0.5275  0.2454  0.4132
 5216TIP3    H237064   0.862   1.874   5.613 -0.0057 -0.1593  0.3251
 5217TIP3   OH237065   1.834   4.895  11.272  0.5920  0.0605  0.5727
 5217TIP3    H137066   1.817   4.805  11.244  1.0043 -0.3607  1.6068
 5217TIP3    H237067   1.913   4.920  11.224  0.3596 -0.0599  0.1266
 5218TIP3   OH237068   0.011   1.600  13.341  0.3389 -0.6713  0.1814
 5218TIP3    H137069   0.022   1.695  13.336 -1.3725 -0.3016  2.2160
 5218TIP3    H237070   0.099   1.566  13.326  0.9053  1.1734 -1.1092
 5219TIP3   OH237071   0.168   3.317   0.536  0.5660  0.5749  0.1661
 5219TIP3    H137072   0.082   3.293   0.571  0.1770 -1.5344 -1.9248
 5219TIP3    H237073   0.231   3.281   0.598  0.0666  3.3416  2.4666
 5220TIP3   OH237074   1.703   4.609   2.102  0.0398  0.1071  0.5885
 5220TIP3    H137075   1.672   4.596   2.013 -1.9417 -0.5064  1.3135
 5220TIP3    H237076   1.775   4.547   2.112  0.7809  0.7142 -0.7865
 5221TIP3   OH237077   0.516   2.036   5.576 -0.3311 -0.5210  0.2514
 5221TIP3    H137078   0.452   2.104   5.592 -0.1703 -0.4201  0.4625
 5221TIP3    H237079   0.507   2.016   5.483 -2.1907 -2.0377  0.6859
 5222TIP3   OH237080   1.304   1.875  14.508  0.6329  0.1938 -0.1396
 5222TIP3    H137081   1.258   1.805  14.553 -0.3078  1.2355  0.5628
 5222TIP3    H237082   1.397   1.860  14.528  0.3030  0.1688  1.5084
 5223TIP3   OH237083   1.576   1.269   5.977  0.6150  0.9759 -0.5642
 5223TIP3    H137084   1.526   1.190   5.997  0.6883  0.7761 -1.1475
 5223TIP3    H237085   1.581   1.316   6.060 -1.2052  1.3841 -0.6421
 5224TIP3   OH237086   6.118   5.668  16.262  0.0398  0.4512 -0.5106
 5224TIP3    H137087   6.127   5.732  16.191 -1.3704  0.8254 -0.3858
 5224TIP3    H237088   6.143   5.585  16.223 -0.9861  0.6032 -1.5436
 5225TIP3   OH237089   2.108   0.335   6.299 -0.2380 -0.2674  0.2340
 5225TIP3    H137090   2.059   0.313   6.220  0.7191 -0.5265 -0.2928
 5225TIP3    H237091   2.044   0.381   6.354 -1.0629 -0.5732 -0.4483
 5226TIP3   OH237092   4.774   2.968   1.501  0.2409 -0.1778  0.3313
 5226TIP3    H137093   4.747   2.877   1.489 -0.0286 -0.1191  0.4727
 5226TIP3    H237094   4.789   2.976   1.595 -3.1281  0.8033  0.9400
 5227TIP3   OH237095   3.501   2.801   1.291 -0.0596 -0.2316  0.3119
 5227TIP3    H137096   3.489   2.854   1.370  1.4962  0.1516  0.3213
 5227TIP3    H237097   3.490   2.863   1.218  0.8810 -0.0560  0.3038
 5228TIP3   OH237098   4.633   0.327   4.850  0.5134  0.1696  0.1920
 5228TIP3    H137099   4.590   0.264   4.909  0.3550  0.5705  0.5049
 5228TIP3    H237100   4.647   0.405   4.903 -3.0670  1.9871 -1.1922
 5229TIP3   OH237101   2.069   6.349  17.194 -0.4226  0.7670 -0.0215
 5229TIP3    H137102   2.030   6.431  17.161 -1.2648  0.5213  0.3184
 5229TIP3    H237103   2.100   6.304  17.116  0.5343  1.6446 -0.1684
 5230TIP3   OH237104   2.136   1.112  11.025 -0.4345  0.2229 -0.2306
 5230TIP3    H137105   2.073   1.135  10.957 -1.7638  0.7062  1.1008
 5230TIP3    H237106   2.142   1.016  11.021 -0.1146  0.2751 -1.3205
 5231TIP3   OH237107   6.684   5.907   4.647  0.2283 -0.5310 -0.4498
 5231TIP3    H137108   6.762   5.963   4.647  0.3384 -0.6732  0.4191
 5231TIP3    H237109   6.709   5.832   4.594  0.8429 -0.7761  0.1713
 5232TIP3   OH237110   2.975   0.139   5.638 -0.1219 -0.4037  0.4264
 5232TIP3    H137111   2.903   0.077   5.650 -0.6412 -0.3457 -1.9118
 5232TIP3    H237112   2.942   0.221   5.674 -0.8003 -0.6335  0.3451
 5233TIP3   OH237113   0.971   4.999  11.646  0.3892 -0.1185 -0.4325
 5233TIP3    H137114   0.927   5.032  11.568  1.9232  0.8410 -0.9327
 5233TIP3    H237115   1.056   5.044  11.647  0.8805 -0.9951  1.1443
 5234TIP3   OH237116   3.107   6.374  12.581 -0.4024 -0.3083  0.1654
 5234TIP3    H137117   3.122   6.458  12.538 -0.2026  0.9520  2.5047
 5234TIP3    H237118   3.187   6.325  12.565 -0.5208 -0.0851 -1.2451
 5235TIP3   OH237119   0.542   3.818  12.369  0.1049 -0.5580 -0.6191
 5235TIP3    H137120   0.511   3.729  12.355  0.5379 -0.5808 -1.5035
 5235TIP3    H237121   0.497   3.847  12.448 -1.6766 -0.8100 -1.4853
 5236TIP3   OH237122   0.589   0.219   1.617  0.1357  0.1519  0.3191
 5236TIP3    H137123   0.559   0.274   1.546  0.7540  0.6382  0.4262
 5236TIP3    H237124   0.563   0.130   1.592 -2.1613  0.6242  0.8204
 5237TIP3   OH237125   0.357   6.268   4.424  0.6773  0.1425  0.3966
 5237TIP3    H137126   0.292   6.199   4.436  0.6630  0.2686  1.0803
 5237TIP3    H237127   0.362   6.280   4.329  0.3397 -0.4707  0.2984
 5238TIP3   OH237128   4.672   0.934   5.792 -0.6644  0.4353  0.3096
 5238TIP3    H137129   4.699   0.983   5.869  0.4989 -0.1706  0.3148
 5238TIP3    H237130   4.738   0.865   5.783 -1.5674 -0.3732 -0.4069
 5239TIP3   OH237131   3.141   5.476  17.134 -0.6786 -0.7638 -0.5599
 5239TIP3    H137132   3.214   5.523  17.094  0.0732 -1.8728 -0.5223
 5239TIP3    H237133   3.069   5.485  17.070 -0.4804  0.2004 -0.6628
 5240TIP3   OH237134   0.636   1.468   2.487  0.7741 -0.1067  0.1901
 5240TIP3    H137135   0.561   1.455   2.545  0.3284 -1.0360 -0.5571
 5240TIP3    H237136   0.671   1.554   2.511 -0.6565  0.4379  0.4108
 5241TIP3   OH237137   5.614   0.869  16.801 -0.3513 -0.3922 -0.7124
 5241TIP3    H137138   5.563   0.950  16.791  2.5280  1.7302  0.4681
 5241TIP3    H237139   5.608   0.827  16.715 -0.5828  1.9437 -1.9283
 5242TIP3   OH237140   4.094   1.274   5.256 -0.2309 -0.2133  0.0968
 5242TIP3    H137141   4.086   1.321   5.339  0.6450 -0.3696  0.2853
 5242TIP3    H237142   4.021   1.305   5.203  0.5789  1.7436  0.0327
 5243TIP3   OH237143   2.882   3.401  16.588  0.3258 -0.1666  0.1985
 5243TIP3    H137144   2.795   3.441  16.582  1.6355  2.6770 -2.1928
 5243TIP3    H237145   2.881   3.331  16.524  0.4511  1.4468 -1.6530
 5244TIP3   OH237146   1.211   4.023   6.022 -0.2731  0.2789 -0.1352
 5244TIP3    H137147   1.289   4.057   6.067 -0.3179  0.9719 -0.5611
 5244TIP3    H237148   1.139   4.072   6.060 -0.4657 -0.1089  0.0037
 5245TIP3   OH237149   3.229   0.015   4.536  0.0637 -0.2162 -0.5920
 5245TIP3    H137150   3.193   0.006   4.624  2.8775  1.7708  0.9364
 5245TIP3    H237151   3.206  -0.066   4.491 -2.2396 -0.9085  1.6352
 5246TIP3   OH237152   2.868   5.034   4.511 -0.4304 -0.0668  0.0494
 5246TIP3    H137153   2.779   5.005   4.491 -1.0759 -0.0624  2.6206
 5246TIP3    H237154   2.903   4.965   4.567  0.5797  0.7413  0.4220
 5247TIP3   OH237155   4.129   2.831  16.805 -0.0929 -0.0043 -0.2940
 5247TIP3    H137156   4.202   2.770  16.813 -1.0884 -1.5375 -2.0641
 5247TIP3    H237157   4.092   2.837  16.894  1.7979  0.3980  0.5059
 5248TIP3   OH237158   1.958   2.143  11.647  0.4615  0.1257  0.7579
 5248TIP3    H137159   1.956   2.099  11.562  1.2655 -1.4170  1.4789
 5248TIP3    H237160   1.867   2.146  11.675  0.2722 -0.0653  0.1819
 5249TIP3   OH237161   6.400   2.299  11.607 -1.0063 -0.2961 -0.0703
 5249TIP3    H137162   6.346   2.285  11.685 -0.8751 -2.8111 -0.3387
 5249TIP3    H237163   6.343   2.344  11.545 -1.3377  1.0710  1.1989
 5250TIP3   OH237164   5.586   6.499  15.686 -0.0909 -0.4578 -0.6243
 5250TIP3    H137165   5.499   6.532  15.712 -0.0079  0.4354 -1.4344
 5250TIP3    H237166   5.647   6.566  15.717 -0.0009  0.7803 -3.2139
 5251TIP3   OH237167   4.740   2.554  17.148 -0.1286 -0.2901  0.0243
 5251TIP3    H137168   4.801   2.547  17.074  0.8383  0.2148  0.7475
 5251TIP3    H237169   4.674   2.618  17.118  0.2234 -0.1300 -0.4227
 5252TIP3   OH237170   0.383   6.503   6.474  0.0088 -0.1762 -0.0321
 5252TIP3    H137171   0.376   6.596   6.494 -0.0750 -0.4084  1.0712
 5252TIP3    H237172   0.476   6.490   6.454 -0.3054  0.5058 -2.2067
 5253TIP3   OH237173   2.825   1.694  13.828 -0.2759 -0.1674 -0.1981
 5253TIP3    H137174   2.887   1.667  13.895  1.0001  2.6350 -0.0887
 5253TIP3    H237175   2.740   1.696  13.873  0.1678 -0.6151  0.6698
 5254TIP3   OH237176   0.162   4.651  17.067  0.3429  0.4106 -0.2876
 5254TIP3    H137177   0.257   4.658  17.055  0.2569 -0.1915 -1.5527
 5254TIP3    H237178   0.134   4.595  16.994 -1.0402  0.9655 -0.1926
 5255TIP3   OH237179   4.907   4.877   1.725 -0.3220  0.2839 -0.1886
 5255TIP3    H137180   4.888   4.826   1.646 -0.8640 -0.3330  0.3325
 5255TIP3    H237181   4.823   4.882   1.771 -0.1933  1.3278 -0.0358
 5256TIP3   OH237182   2.437   1.511   4.323 -0.7578 -0.1095  0.4430
 5256TIP3    H137183   2.383   1.502   4.245 -1.5207  0.1955  0.9287
 5256TIP3    H237184   2.381   1.554   4.387 -0.2751 -0.7007  1.2937
 5257TIP3   OH237185   3.644   5.395  11.965  0.1315  0.3369  0.2987
 5257TIP3    H137186   3.633   5.462  11.897  0.4765  0.2063  0.1100
 5257TIP3    H237187   3.700   5.329  11.924  0.4399  0.3133  0.7500
 5258TIP3   OH237188   3.993   5.321   4.811 -0.0697  0.2273 -0.4113
 5258TIP3    H137189   3.921   5.271   4.772 -0.6952  2.1222 -1.8766
 5258TIP3    H237190   3.967   5.332   4.903 -0.1474 -1.6393 -0.1795
 5259TIP3   OH237191   0.913   5.955  12.228  1.1392  0.2269 -0.1127
 5259TIP3    H137192   0.866   5.959  12.145 -0.2766 -0.5528  0.6034
 5259TIP3    H237193   0.855   5.904  12.286  1.8929  1.0750  1.4661
 5260TIP3   OH237194   1.851   6.564  14.859 -0.4440 -0.6773  0.0167
 5260TIP3    H137195   1.924   6.626  14.859 -0.0944 -1.0785  0.8752
 5260TIP3    H237196   1.778   6.614  14.896 -0.3031 -0.6233  0.2218
 5261TIP3   OH237197   5.845   5.344   4.235 -0.7830 -0.0256  0.8073
 5261TIP3    H137198   5.806   5.413   4.181  0.1651  0.2562  0.4541
 5261TIP3    H237199   5.823   5.263   4.189 -0.2267  0.1919  0.1269
 5262TIP3   OH237200   5.519   3.781   2.212 -0.3840  0.0974  0.0810
 5262TIP3    H137201   5.515   3.747   2.122  0.8687  1.2791 -0.4606
 5262TIP3    H237202   5.428   3.778   2.242 -1.1575  1.3259 -1.8911
 5263TIP3   OH237203   4.612   5.855  16.852  0.7596 -0.0088 -0.1564
 5263TIP3    H137204   4.619   5.937  16.901  0.3805 -0.0531 -0.0284
 5263TIP3    H237205   4.583   5.882  16.765 -1.6661 -0.1896  0.5357
 5264TIP3   OH237206   4.567   3.108  14.303 -0.1857  0.2142 -0.0455
 5264TIP3    H137207   4.542   3.016  14.297 -1.6909  0.7176 -2.3304
 5264TIP3    H237208   4.656   3.105  14.340 -0.0152 -2.1600 -0.4637
 5265TIP3   OH237209   5.655   5.882  15.665  0.0909 -0.1117  0.4425
 5265TIP3    H137210   5.748   5.861  15.655  0.3439  1.2067 -0.2182
 5265TIP3    H237211   5.649   5.917  15.754  0.1129 -0.7121  0.6857
 5266TIP3   OH237212   3.435   5.732   6.652  0.0997  0.3329  0.2062
 5266TIP3    H137213   3.481   5.769   6.577  1.5418 -1.6222  0.0535
 5266TIP3    H237214   3.352   5.701   6.617  0.5993 -0.2120 -0.5169
 5267TIP3   OH237215   5.048   2.863   3.548  0.1916  0.4137 -0.1042
 5267TIP3    H137216   5.039   2.800   3.620  1.6536 -1.3896 -1.3841
 5267TIP3    H237217   5.141   2.886   3.548  0.3309 -0.0160 -1.6575
 5268TIP3   OH237218   4.514   2.009  14.098  0.6701 -0.4129 -0.4656
 5268TIP3    H137219   4.547   1.949  14.031 -0.9280  0.6399 -2.3231
 5268TIP3    H237220   4.441   1.962  14.139 -0.7362  0.2253 -2.0835
 5269TIP3   OH237221   2.448   5.238   5.170 -0.3114  0.3152 -0.1498
 5269TIP3    H137222   2.352   5.247   5.174 -0.2639  0.6799  0.3585
 5269TIP3    H237223   2.470   5.193   5.252 -0.1870 -1.1722 -0.9769
 5270TIP3   OH237224   0.465   6.547  12.189  0.0553  0.2776 -0.0096
 5270TIP3    H137225   0.528   6.554  12.261 -0.6880 -1.0168  0.8089
 5270TIP3    H237226   0.397   6.489  12.223 -1.0270  0.7684 -1.2703
 5271TIP3   OH237227   6.629   6.681  12.875 -0.0126  0.6984  0.2911
 5271TIP3    H137228   6.540   6.680  12.911  0.1320 -0.6213  0.6720
 5271TIP3    H237229   6.686   6.668  12.950  0.2760 -2.3882 -0.3280
 5272TIP3   OH237230   5.268   5.514  16.634 -0.4161 -0.7244 -0.3726
 5272TIP3    H137231   5.358   5.512  16.601 -0.4477 -1.2648 -0.4331
 5272TIP3    H237232   5.246   5.422  16.650 -0.5421 -0.5225  0.7632
 5273TIP3   OH237233   0.356   4.056  16.306  0.2213 -0.0343  0.0878
 5273TIP3    H137234   0.317   4.009  16.380 -1.8719  0.9626 -0.2948
 5273TIP3    H237235   0.450   4.040  16.314 -0.2048 -2.4877  1.1661
 5274TIP3   OH237236   0.266   4.376  14.415  0.6164 -0.3324 -0.1952
 5274TIP3    H137237   0.293   4.465  14.393 -0.8912  0.3402  0.5217
 5274TIP3    H237238   0.338   4.341  14.467  1.2773  0.4369 -0.5808
 5275TIP3   OH237239   3.255   6.486   4.541 -0.0634 -0.0567  0.6878
 5275TIP3    H137240   3.222   6.429   4.471 -1.4774  0.2616  1.0477
 5275TIP3    H237241   3.311   6.429   4.594  1.9442 -0.0275 -1.2794
 5276TIP3   OH237242   3.768   5.359  14.632  0.3829 -0.0805 -0.5083
 5276TIP3    H137243   3.829   5.342  14.704  0.6583 -0.2193 -0.7713
 5276TIP3    H237244   3.753   5.273  14.592  0.3637  0.0220 -0.7231
 5277TIP3   OH237245   3.816   2.883   1.446 -0.3379  0.0206  0.5803
 5277TIP3    H137246   3.733   2.924   1.422 -0.2505 -0.1653 -0.0554
 5277TIP3    H237247   3.883   2.939   1.407 -0.2032 -0.4446  0.1302
 5278TIP3   OH237248   0.500   2.976  13.956 -0.4350 -0.0541 -0.0829
 5278TIP3    H137249   0.578   2.930  13.927 -0.8879 -0.4559 -0.6799
 5278TIP3    H237250   0.478   3.036  13.884 -0.1917  0.6831  0.4395
 5279TIP3   OH237251   4.285   2.560   3.759 -0.1013 -0.5381 -0.0094
 5279TIP3    H137252   4.356   2.534   3.818 -0.1604  0.2247  0.4097
 5279TIP3    H237253   4.209   2.569   3.816 -0.3199 -0.4378 -0.3143
 5280TIP3   OH237254   4.754   0.934  14.405 -0.4167  0.4451  0.0271
 5280TIP3    H137255   4.658   0.932  14.405 -0.4517 -0.4614 -1.9807
 5280TIP3    H237256   4.777   0.968  14.318  1.0730 -0.7189 -0.0745
 5281TIP3   OH237257   0.630   1.991  11.340 -0.0858 -1.1434 -0.2660
 5281TIP3    H137258   0.545   2.032  11.354 -0.5773 -2.5031  1.0027
 5281TIP3    H237259   0.610   1.909  11.295  0.5783 -1.3048 -0.2776
 5282TIP3   OH237260   1.610   1.155   0.868 -0.0922  0.1007 -0.1309
 5282TIP3    H137261   1.618   1.099   0.946 -2.0706  0.1070  0.1137
 5282TIP3    H237262   1.650   1.104   0.798 -2.3993 -1.9870 -0.0467
 5283TIP3   OH237263   3.160   5.702  15.916  0.3795  0.8944 -0.0212
 5283TIP3    H137264   3.146   5.646  15.840 -1.3480  1.3833 -0.1290
 5283TIP3    H237265   3.142   5.791  15.884  0.1706  1.1658  0.8142
 5284TIP3   OH237266   4.078   0.791  13.768 -0.1867 -0.3373 -0.4030
 5284TIP3    H137267   4.013   0.802  13.698 -0.6729 -1.2307 -0.1090
 5284TIP3    H237268   4.097   0.881  13.797 -0.2358  0.0202 -1.4417
 5285TIP3   OH237269   4.904   4.154  16.825 -0.2707 -0.3771  0.4899
 5285TIP3    H137270   4.870   4.218  16.888  1.6416  0.9847  0.2513
 5285TIP3    H237271   4.869   4.070  16.854 -1.5055  0.5600  1.8291
 5286TIP3   OH237272   3.028   5.472   5.201 -0.3550 -0.0772  0.1440
 5286TIP3    H137273   3.055   5.421   5.277 -1.8340 -0.5577  0.3730
 5286TIP3    H237274   3.070   5.557   5.212 -0.3984 -0.2138  1.4035
 5287TIP3   OH237275   5.680   0.037  12.587  0.4239 -0.1868 -0.2802
 5287TIP3    H137276   5.663   0.041  12.681  0.4666 -0.8476 -0.2360
 5287TIP3    H237277   5.636  -0.043  12.558 -1.4005  1.0961 -1.2243
 5288TIP3   OH237278   6.042   6.373   5.072 -0.1395 -0.5464 -0.1500
 5288TIP3    H137279   6.064   6.358   5.164 -3.5118  0.0364  0.8788
 5288TIP3    H237280   6.066   6.464   5.055  1.8422 -1.0648 -0.3634
 5289TIP3   OH237281   5.167   2.786  16.639 -0.5950  0.2661  0.0135
 5289TIP3    H137282   5.181   2.724  16.711  1.0100 -0.7814 -1.1616
 5289TIP3    H237283   5.105   2.742  16.581  1.4614 -0.8733 -1.4447
 5290TIP3   OH237284   6.554   0.215  11.133  0.1094  0.1863  0.0816
 5290TIP3    H137285   6.508   0.132  11.124 -0.7315  0.6235  0.2141
 5290TIP3    H237286   6.643   0.191  11.156  0.2520 -0.7149 -1.2902
 5291TIP3   OH237287   5.395   0.899  12.778  0.4144 -0.1230 -0.0755
 5291TIP3    H137288   5.340   0.959  12.829  0.4967 -1.7724  2.0818
 5291TIP3    H237289   5.358   0.812  12.794  1.2556 -0.8561 -1.8366
 5292TIP3   OH237290   4.646   2.170  14.897  0.2157  0.2007  0.0111
 5292TIP3    H137291   4.623   2.261  14.916  0.1213  0.0469  0.6404
 5292TIP3    H237292   4.586   2.118  14.950 -0.4569 -0.2561 -1.1408
 5293TIP3   OH237293   5.435   1.844  14.582  0.1718  0.1175  0.2025
 5293TIP3    H137294   5.436   1.935  14.553  1.8357  0.5330  1.4203
 5293TIP3    H237295   5.358   1.837  14.639 -0.3956  0.5431 -0.4966
 5294TIP3   OH237296   4.087   0.728   3.319  0.0531 -0.2795  0.1169
 5294TIP3    H137297   4.088   0.818   3.351 -0.0866  0.0183 -0.6943
 5294TIP3    H237298   4.135   0.732   3.236 -3.3387 -0.1191 -2.0349
 5295TIP3   OH237299   2.690   3.382  12.226  0.0056  0.2570 -0.2621
 5295TIP3    H137300   2.708   3.410  12.136 -0.5025  0.5852 -0.2686
 5295TIP3    H237301   2.604   3.419  12.246 -0.9878 -1.8017 -0.4706
 5296TIP3   OH237302   4.979   2.088  12.293 -0.0772 -0.4225 -0.3245
 5296TIP3    H137303   4.946   2.010  12.248 -2.8287 -0.8925  2.1667
 5296TIP3    H237304   4.900   2.138  12.314  1.4272  1.8413  0.2877
 5297TIP3   OH237305   1.695   1.435   2.073 -0.2001  0.0212  0.6925
 5297TIP3    H137306   1.767   1.495   2.057 -0.6073  0.2476 -0.3493
 5297TIP3    H237307   1.621   1.473   2.027  0.2883 -2.8919 -3.0275
 5298TIP3   OH237308   5.181   2.701  14.883 -0.4662  0.0769 -0.1158
 5298TIP3    H137309   5.102   2.735  14.841 -1.1750  0.4492  1.4449
 5298TIP3    H237310   5.215   2.775  14.934  1.3423  0.1562 -1.3467
 5299TIP3   OH237311   4.260   2.357  12.811  0.4925  0.1732 -0.9065
 5299TIP3    H137312   4.321   2.284  12.808  0.9837  0.5238 -0.0372
 5299TIP3    H237313   4.265   2.397  12.724  0.8443 -0.3313 -1.1188
 5300TIP3   OH237314   3.109   0.095  16.241  0.2053 -0.1973  0.2880
 5300TIP3    H137315   3.191   0.074  16.196 -0.6495 -0.7125 -1.1059
 5300TIP3    H237316   3.118   0.056  16.328  2.0804  1.1836  0.7910
 5301TIP3   OH237317   0.381   5.050  11.501  0.0986  0.3489 -0.4876
 5301TIP3    H137318   0.286   5.045  11.491  0.3442 -1.7584 -2.4658
 5301TIP3    H237319   0.410   5.107  11.429  0.2444  2.7990  1.3850
 5302TIP3   OH237320   1.927   4.236  16.517 -0.2728  0.4622 -0.2058
 5302TIP3    H137321   1.968   4.260  16.434 -0.9964  0.0669 -0.6982
 5302TIP3    H237322   1.998   4.206  16.573 -0.0907 -2.4025 -1.8050
 5303TIP3   OH237323   2.077   1.868   3.207  0.1700  0.6503 -0.6655
 5303TIP3    H137324   2.134   1.941   3.182  0.2280  1.1388  0.8145
 5303TIP3    H237325   1.989   1.905   3.205  0.2717  1.0487  0.9493
 5304TIP3   OH237326   1.397   4.670   3.584  0.0940  0.4580 -0.2671
 5304TIP3    H137327   1.391   4.632   3.672  0.5111 -1.9854 -1.1994
 5304TIP3    H237328   1.307   4.691   3.560 -0.1887 -0.1853  0.2164
 5305TIP3   OH237329   4.511   3.473   4.969  0.2340 -0.0300 -0.1836
 5305TIP3    H137330   4.603   3.448   4.957 -0.0519 -2.3619  1.8024
 5305TIP3    H237331   4.512   3.530   5.046 -0.0666 -0.8496  0.4359
 5306TIP3   OH237332   6.025   3.623  17.208 -0.3151  0.1568 -0.0177
 5306TIP3    H137333   6.099   3.676  17.239  0.2879 -1.9439  2.4803
 5306TIP3    H237334   5.955   3.641  17.270 -0.5099 -1.0046  0.1070
 5307TIP3   OH237335   2.563   5.703  14.957 -0.1393  0.2437 -0.0604
 5307TIP3    H137336   2.507   5.645  15.009  0.4939  0.1022  0.4673
 5307TIP3    H237337   2.629   5.734  15.018  1.0303 -0.4561 -0.9311
 5308TIP3   OH237338   4.032   4.901  16.740  0.3611 -0.1277  0.4783
 5308TIP3    H137339   4.027   4.813  16.703 -1.5969  1.1342 -2.6782
 5308TIP3    H237340   3.946   4.916  16.779  1.0228  0.0829  1.9352
 5309TIP3   OH237341   4.900   0.003   6.097  0.3691  0.2399  0.2120
 5309TIP3    H137342   4.960  -0.020   6.169  2.2364  2.0003 -0.6647
 5309TIP3    H237343   4.820   0.031   6.141  1.6169  1.6806  1.6955
 5310TIP3   OH237344   3.763   0.158   0.280  0.4296  0.1178  0.0274
 5310TIP3    H137345   3.769   0.067   0.249  1.7241  0.8988 -2.2459
 5310TIP3    H237346   3.842   0.171   0.331  0.6789  0.2060 -0.3771
 5311TIP3   OH237347   1.043   6.582  15.694 -0.2334 -0.1897 -0.6197
 5311TIP3    H137348   0.962   6.622  15.724 -1.0471 -1.4878 -1.0172
 5311TIP3    H237349   1.066   6.631  15.615 -0.6052  0.2156 -0.4770
 5312TIP3   OH237350   5.141   5.898   5.090 -0.3373 -0.3775 -0.7509
 5312TIP3    H137351   5.104   5.956   5.022  0.4761  1.4593  0.2827
 5312TIP3    H237352   5.236   5.906   5.078 -0.1583  0.5811  1.0250
 5313TIP3   OH237353   6.596   4.907   3.102  0.4848  0.9704  0.4430
 5313TIP3    H137354   6.651   4.985   3.108 -0.4837  1.6822  0.3055
 5313TIP3    H237355   6.560   4.895   3.190  0.5487  0.7367  0.4394
 5314TIP3   OH237356   0.808   6.577   0.583 -0.7211  0.2912  0.1255
 5314TIP3    H137357   0.785   6.614   0.668 -3.2278 -0.6979 -0.0498
 5314TIP3    H237358   0.767   6.491   0.581  0.8711 -0.5190 -1.3880
 5315TIP3   OH237359   0.443   0.128   2.887 -0.1615 -0.5692 -0.2724
 5315TIP3    H137360   0.527   0.165   2.863 -0.0781 -0.1404  0.6332
 5315TIP3    H237361   0.464   0.063   2.954 -0.6813  0.8176  1.3064
 5316TIP3   OH237362   1.886   5.544  13.540  0.4834  0.1514  0.5813
 5316TIP3    H137363   1.937   5.471  13.505 -0.8519 -0.8614  0.6666
 5316TIP3    H237364   1.853   5.590  13.463 -0.8676 -0.9442  0.4613
 5317TIP3   OH237365   1.295   2.783   2.190  0.5670  0.4491  0.3876
 5317TIP3    H137366   1.280   2.827   2.274  0.2400 -0.8896  1.0570
 5317TIP3    H237367   1.377   2.820   2.158 -0.0046  1.9901  0.6013
 5318TIP3   OH237368   1.857   5.928   3.050 -0.1112  0.3469  0.4637
 5318TIP3    H137369   1.925   5.943   2.984 -0.9148 -2.9229 -1.2706
 5318TIP3    H237370   1.906   5.905   3.129  0.8472  0.0017 -0.2038
 5319TIP3   OH237371   2.053   3.842   3.014 -0.2694  0.0117 -0.1512
 5319TIP3    H137372   2.066   3.823   2.921 -0.1631 -0.3688 -0.0636
 5319TIP3    H237373   2.141   3.831   3.052 -0.7894 -2.5858  0.4585
 5320TIP3   OH237374   2.956   3.446  11.772  0.5007  0.0079 -0.7345
 5320TIP3    H137375   3.031   3.414  11.721  1.3707 -2.4500  1.8095
 5320TIP3    H237376   2.990   3.521  11.820  1.5173 -1.3182  0.6846
 5321TIP3   OH237377   6.370   5.060   5.663  0.4738  0.2784 -0.0020
 5321TIP3    H137378   6.297   5.111   5.626 -0.0182 -1.2801 -1.2580
 5321TIP3    H237379   6.361   5.071   5.757  1.1076  3.4737 -0.1958
 5322TIP3   OH237380   4.039   5.566  15.756  0.7282  0.5458 -0.6383
 5322TIP3    H137381   3.968   5.509  15.786  1.2607  0.3275  0.2406
 5322TIP3    H237382   4.053   5.627  15.828  1.7952  0.2491 -0.5718
 5323TIP3   OH237383   2.273   2.103   0.068 -0.3418  0.2275  0.1517
 5323TIP3    H137384   2.204   2.135   0.011 -1.5659 -1.3085  0.6885
 5323TIP3    H237385   2.287   2.174   0.132  0.1561  1.4283 -1.2272
 5324TIP3   OH237386   1.548   4.404  16.742 -0.3625  0.2800 -0.3169
 5324TIP3    H137387   1.620   4.466  16.730 -0.0102 -0.2748 -1.0992
 5324TIP3    H237388   1.585   4.319  16.722 -1.0496 -0.0993 -0.0155
 5325TIP3   OH237389   1.738   2.775  15.949  1.0233  0.3003 -0.0154
 5325TIP3    H137390   1.725   2.863  15.984 -0.4712 -0.1288  0.5898
 5325TIP3    H237391   1.784   2.728  16.019  0.8394  0.3052  0.1093
 5326TIP3   OH237392   1.316   4.358  12.372  0.2391 -0.8902 -0.2370
 5326TIP3    H137393   1.293   4.319  12.456  1.3190  0.5533  0.7861
 5326TIP3    H237394   1.234   4.396  12.341 -0.7338 -3.4457 -1.0535
 5327TIP3   OH237395   2.174   5.719  11.379  0.5804 -0.2058  0.2008
 5327TIP3    H137396   2.135   5.806  11.380  0.3402 -0.3122  0.1248
 5327TIP3    H237397   2.103   5.661  11.350  1.4308 -0.0680 -2.4709
 5328TIP3   OH237398   1.238   3.166   1.910 -0.4174 -0.2912 -0.4260
 5328TIP3    H137399   1.282   3.223   1.973 -0.6531  0.5582 -1.0179
 5328TIP3    H237400   1.299   3.161   1.836  0.2070 -1.9093  0.1555
 5329TIP3   OH237401   6.452   5.519  12.976  0.0534 -0.0864 -0.0200
 5329TIP3    H137402   6.508   5.442  12.980  1.5250  0.9622  0.8715
 5329TIP3    H237403   6.449   5.543  12.884  1.7785  0.2697 -0.0234
 5330TIP3   OH237404   4.737   1.150   4.958 -0.1125  0.0844  0.2764
 5330TIP3    H137405   4.751   1.066   4.913 -0.8015 -0.5349  1.1830
 5330TIP3    H237406   4.723   1.126   5.050  0.3537  1.2552  0.6734
 5331TIP3   OH237407   1.792   3.900  14.641  0.3454  0.6234 -0.0872
 5331TIP3    H137408   1.750   3.815  14.638  0.8095  0.3158  1.4238
 5331TIP3    H237409   1.725   3.961  14.607 -1.1408  0.0743  1.6981
 5332TIP3   OH237410   5.848   1.610  14.536 -0.0827  0.2308  0.3298
 5332TIP3    H137411   5.854   1.603  14.441  0.3843  0.8054  0.3124
 5332TIP3    H237412   5.755   1.599  14.555 -0.1118 -0.4519 -0.1392
 5333TIP3   OH237413   4.165   5.126  11.258 -0.2860  0.2839  0.1675
 5333TIP3    H137414   4.212   5.151  11.179 -2.7011  2.0015 -0.8524
 5333TIP3    H237415   4.151   5.031  11.249  0.8136  0.1829 -0.6731
 5334TIP3   OH237416   2.536   1.294  13.584  0.6176  0.4728 -0.0937
 5334TIP3    H137417   2.508   1.292  13.493  0.1061 -0.8698  0.0756
 5334TIP3    H237418   2.495   1.218  13.624  5.1109 -2.2512  0.0169
 5335TIP3   OH237419   2.649   0.374  16.794  0.5719 -0.5863 -0.4388
 5335TIP3    H137420   2.642   0.442  16.727  0.9973 -0.1546 -0.0552
 5335TIP3    H237421   2.739   0.382  16.827  0.7224 -1.5366 -0.6010
 5336TIP3   OH237422   1.144   3.817   0.359  0.2469  0.2143  0.3282
 5336TIP3    H137423   1.089   3.769   0.297  0.5332  0.7672 -0.3601
 5336TIP3    H237424   1.098   3.900   0.373 -0.6319 -0.5026  2.0902
 5337TIP3   OH237425   1.777   5.978   1.197 -0.3656  0.1521 -0.6609
 5337TIP3    H137426   1.720   6.039   1.244 -0.3043 -1.0576  1.1073
 5337TIP3    H237427   1.752   5.892   1.231  1.6136 -0.5258 -0.7955
 5338TIP3   OH237428   5.425   1.473  14.366  0.2886  0.0709 -0.6975
 5338TIP3    H137429   5.499   1.502  14.420  0.4076  1.5623 -1.6118
 5338TIP3    H237430   5.460   1.398  14.317  0.9367  0.2531 -0.5323
 5339TIP3   OH237431   1.377   3.690   5.515 -0.2122  0.2838  0.3374
 5339TIP3    H137432   1.364   3.648   5.600  1.2606 -2.0475 -0.4726
 5339TIP3    H237433   1.331   3.634   5.453  1.8676 -0.2666 -0.8057
 5340TIP3   OH237434   2.370   1.941   1.826 -0.0801 -0.1102  0.3007
 5340TIP3    H137435   2.292   1.896   1.795 -0.6627  1.4875 -0.6630
 5340TIP3    H237436   2.442   1.898   1.780 -0.5423 -0.5439 -0.0313
 5341TIP3   OH237437   6.199   5.960  12.071 -0.1091  0.0612 -0.3118
 5341TIP3    H137438   6.261   5.927  12.136 -0.8000  0.0234  0.3528
 5341TIP3    H237439   6.147   5.883  12.047 -0.8869  0.3854  0.2855
 5342TIP3   OH237440   1.168   4.777  11.016 -0.0907  0.1398  0.1463
 5342TIP3    H137441   1.249   4.789  10.966  0.5455 -2.9564  0.2564
 5342TIP3    H237442   1.102   4.756  10.950 -0.4814  1.1813  0.1922
 5343TIP3   OH237443   3.687   5.221  15.983  0.4367  0.3261 -0.0210
 5343TIP3    H137444   3.597   5.221  15.950  0.9508 -0.7242 -1.5512
 5343TIP3    H237445   3.701   5.132  16.016  0.1341  1.1862  2.6585
 5344TIP3   OH237446   0.257   5.841   0.398 -0.4391  0.2912  0.3933
 5344TIP3    H137447   0.274   5.812   0.487 -1.3011 -0.0474  0.4570
 5344TIP3    H237448   0.335   5.892   0.374  0.7408 -1.3328  0.5948
 5345TIP3   OH237449   3.262   2.481  13.744  0.1763  0.3492 -0.4445
 5345TIP3    H137450   3.321   2.410  13.770  0.2480  0.3836 -0.5130
 5345TIP3    H237451   3.189   2.438  13.702 -0.3879  0.2191  0.6319
 5346TIP3   OH237452   2.880   3.937   1.058  0.7182 -0.0508 -0.0969
 5346TIP3    H137453   2.812   3.879   1.024  0.0101  0.6772  0.0226
 5346TIP3    H237454   2.840   3.977   1.136  1.1328  0.6771 -0.2445
 5347TIP3   OH237455   6.704   0.860   2.163  0.4492  0.2185 -0.0436
 5347TIP3    H137456   6.616   0.890   2.186  0.3455 -1.1305  1.5073
 5347TIP3    H237457   6.755   0.941   2.152 -0.7160  0.9970  0.0979
 5348TIP3   OH237458   3.074   0.669  16.097 -0.0770 -0.7422 -0.7196
 5348TIP3    H137459   3.077   0.662  16.192 -0.3886 -1.6999 -0.7767
 5348TIP3    H237460   3.090   0.762  16.079  1.0866 -0.7423  0.2143
 5349TIP3   OH237461   4.875   1.139  16.001 -0.1782 -0.1002 -0.0279
 5349TIP3    H137462   4.798   1.178  15.960 -1.5753 -1.5656  1.0945
 5349TIP3    H237463   4.894   1.197  16.075 -1.9217 -1.1235  1.3150
 5350TIP3   OH237464   5.057   3.411  13.634  0.2902  0.1198 -0.2257
 5350TIP3    H137465   4.988   3.393  13.571 -0.2664  0.5633  0.2519
 5350TIP3    H237466   5.138   3.412  13.582  0.1134 -1.6280 -0.6120
 5351TIP3   OH237467   0.106   1.766  11.403 -0.1389 -0.3449 -0.0779
 5351TIP3    H137468   0.168   1.707  11.360 -1.0058 -0.6900 -0.9077
 5351TIP3    H237469   0.145   1.783  11.488  0.4247 -1.6689 -0.0332
 5352TIP3   OH237470   1.347   0.862   3.830 -0.4627 -0.1013  0.4122
 5352TIP3    H137471   1.329   0.950   3.795 -0.3084  1.1250  3.1798
 5352TIP3    H237472   1.436   0.868   3.865 -0.8600 -0.9865  1.6281
 5353TIP3   OH237473   0.199   4.547   1.462  0.3408  0.2800 -0.1227
 5353TIP3    H137474   0.265   4.609   1.493 -0.7891  1.6830 -0.3696
 5353TIP3    H237475   0.167   4.505   1.542  1.5209 -0.4361 -0.0074
 5354TIP3   OH237476   6.684   1.618   1.415  0.1492 -0.3079  0.5551
 5354TIP3    H137477   6.770   1.660   1.411  0.4466 -0.9693 -0.5812
 5354TIP3    H237478   6.636   1.666   1.482  0.4075  1.9371 -0.7503
 5355TIP3   OH237479   0.152   4.881  11.926  0.5513  0.2041  0.4486
 5355TIP3    H137480   0.225   4.918  11.875 -3.1310  3.8428 -3.0088
 5355TIP3    H237481   0.144   4.939  12.002 -0.0282  1.3218 -0.4292
 5356TIP3   OH237482   4.080   1.868  14.717 -0.1181  0.1463  0.5300
 5356TIP3    H137483   4.004   1.810  14.710 -0.7891  1.1061 -0.4744
 5356TIP3    H237484   4.151   1.821  14.673 -0.4233 -0.2496  0.4567
 5357TIP3   OH237485   2.189   6.438  14.650 -0.2530 -0.0123 -0.6129
 5357TIP3    H137486   2.099   6.422  14.680 -0.3312  0.3915 -0.6350
 5357TIP3    H237487   2.239   6.456  14.730 -0.6017  1.7586 -0.7620
 5358TIP3   OH237488   1.064   4.197  14.187 -0.0498 -0.1419  0.2222
 5358TIP3    H137489   1.081   4.175  14.096  0.2215  1.3385 -0.1108
 5358TIP3    H237490   1.082   4.291  14.193 -1.8636  0.1872  1.3651
 5359TIP3   OH237491   6.647   4.606  11.027  0.0360  0.2679 -0.8846
 5359TIP3    H137492   6.587   4.664  10.979  1.5630  0.3511 -2.8511
 5359TIP3    H237493   6.725   4.604  10.972  0.3257 -3.0730 -0.5027
 5360TIP3   OH237494   1.812   2.826   3.038  0.6137  0.2068 -0.1223
 5360TIP3    H137495   1.746   2.759   3.060 -0.6483  2.0564  2.1312
 5360TIP3    H237496   1.880   2.777   2.991 -1.6870 -2.0543 -1.3743
 5361TIP3   OH237497   5.174   5.333   4.837  0.1514 -0.8306  1.0266
 5361TIP3    H137498   5.235   5.316   4.765  0.4603  1.6287  0.6283
 5361TIP3    H237499   5.089   5.344   4.795 -0.1198 -1.7740  1.3140
 5362TIP3   OH237500   4.717   0.044   5.227 -0.3350  0.3398 -0.0178
 5362TIP3    H137501   4.678  -0.036   5.263  0.8793  0.4318  1.6002
 5362TIP3    H237502   4.791   0.063   5.285 -0.0726  2.1697 -0.8884
 5363TIP3   OH237503   1.932   0.458  12.320  0.3658 -0.0232 -0.6866
 5363TIP3    H137504   2.015   0.449  12.274  1.1703  1.1927  0.4506
 5363TIP3    H237505   1.903   0.547  12.300 -1.1815 -0.7329 -1.8383
 5364TIP3   OH237506   5.551   5.073   1.351  0.4543 -0.8491 -0.3097
 5364TIP3    H137507   5.534   5.005   1.416  2.1705 -1.9199 -0.9372
 5364TIP3    H237508   5.609   5.135   1.396 -0.6045 -0.0646  0.0496
 5365TIP3   OH237509   4.599   3.923   2.558 -0.3393 -0.1530 -0.3909
 5365TIP3    H137510   4.627   3.942   2.469 -0.0126 -0.1274 -0.2819
 5365TIP3    H237511   4.511   3.961   2.564  0.2310  1.1798 -0.2292
 5366TIP3   OH237512   2.456   3.169   3.200 -0.9622 -0.0355 -0.1318
 5366TIP3    H137513   2.520   3.123   3.253  1.1631  0.0204 -2.4480
 5366TIP3    H237514   2.423   3.239   3.256  1.1237  0.0170  1.1137
 5367TIP3   OH237515   6.193   2.931   2.164  0.4264 -0.2222  0.2473
 5367TIP3    H137516   6.259   2.974   2.220 -0.7392  0.0687  1.4379
 5367TIP3    H237517   6.197   2.980   2.082  1.8776 -0.3798  0.2005
 5368TIP3   OH237518   1.779   0.651  10.652  0.6139  0.4429 -0.3432
 5368TIP3    H137519   1.846   0.620  10.591  1.1407  0.9428 -0.0322
 5368TIP3    H237520   1.724   0.710  10.601  0.7611  0.4803 -0.4570
 5369TIP3   OH237521   6.368   3.473  16.222 -0.2406  0.0513 -0.7070
 5369TIP3    H137522   6.351   3.559  16.261  2.7737  0.5316 -0.2452
 5369TIP3    H237523   6.352   3.411  16.294 -1.5391  0.2700 -0.7821
 5370TIP3   OH237524   2.863   6.671   3.894  0.2980 -0.5722 -0.3979
 5370TIP3    H137525   2.951   6.693   3.927 -0.0538 -1.6430  1.3771
 5370TIP3    H237526   2.804   6.699   3.964 -0.4893 -2.8279 -0.0772
 5371TIP3   OH237527   1.792   2.415   1.928 -0.0402  0.8615 -0.1898
 5371TIP3    H137528   1.757   2.388   1.843  1.6334 -0.4805 -0.4935
 5371TIP3    H237529   1.759   2.349   1.989  0.1826  0.8358 -0.0983
 5372TIP3   OH237530   0.031   6.275  15.568  0.5540  0.2953  0.1753
 5372TIP3    H137531   0.014   6.213  15.497 -0.0605 -0.7254  1.1689
 5372TIP3    H237532  -0.021   6.352  15.546  0.5375  0.0726 -0.5906
 5373TIP3   OH237533   1.918   2.144  15.534  0.6539 -0.0915  0.1366
 5373TIP3    H137534   1.851   2.099  15.586 -0.5674  2.0389  0.5401
 5373TIP3    H237535   1.868   2.196  15.471  1.8777  2.0543  0.8465
 5374TIP3   OH237536   3.845   0.061   5.180 -0.2061 -0.5506  0.4404
 5374TIP3    H137537   3.768   0.051   5.124  1.0196 -0.7819 -1.2997
 5374TIP3    H237538   3.892  -0.022   5.171 -0.2538 -0.8105  2.3140
 5375TIP3   OH237539   2.250   0.469   4.295 -0.2971  0.2056 -0.3221
 5375TIP3    H137540   2.289   0.548   4.332 -0.3439 -0.3133  0.8960
 5375TIP3    H237541   2.159   0.492   4.280  0.2862  1.2381 -2.6264
 5376TIP3   OH237542   3.408   6.743  11.953 -0.3587  0.0884 -0.6013
 5376TIP3    H137543   3.329   6.747  12.006  0.0256  0.6229 -0.0523
 5376TIP3    H237544   3.437   6.834  11.945  2.2400 -0.2812  2.3999
 5377TIP3   OH237545   4.044   2.779  15.949  0.1443  0.5412  0.1087
 5377TIP3    H137546   4.073   2.720  15.879 -1.6375  0.3092 -0.4901
 5377TIP3    H237547   4.081   2.741  16.029 -0.0547 -0.7808 -0.4005
 5378TIP3   OH237548   5.296   0.864   2.196 -0.3734 -0.0504  0.2373
 5378TIP3    H137549   5.216   0.903   2.162  0.1845  0.0070 -1.0586
 5378TIP3    H237550   5.324   0.801   2.129 -0.0579 -1.0751  1.2839
 5379TIP3   OH237551   5.847   6.020  11.679 -0.4534 -0.0728  0.0789
 5379TIP3    H137552   5.928   6.065  11.655 -1.1433  0.7169 -0.8656
 5379TIP3    H237553   5.788   6.090  11.705 -0.6088 -0.7066  1.4920
 5380TIP3   OH237554   2.338   0.377   5.029  0.2154  0.0207  0.5791
 5380TIP3    H137555   2.373   0.460   5.062  1.3325  0.3733 -1.3900
 5380TIP3    H237556   2.413   0.318   5.027  0.5807  0.4544 -2.6212
 5381TIP3   OH237557   2.934   1.167  16.520 -0.0685  0.0800  0.1345
 5381TIP3    H137558   2.976   1.247  16.551  0.5217  0.2549 -1.0839
 5381TIP3    H237559   2.985   1.096  16.559 -0.7963  0.2474  1.4985
 5382TIP3   OH237560   3.503   3.991   2.685  0.4987  0.4099  0.3064
 5382TIP3    H137561   3.523   4.060   2.748 -1.7861  1.0309  0.4544
 5382TIP3    H237562   3.588   3.958   2.656  1.6591  3.1546  0.3526
 5383TIP3   OH237563   1.414   5.106  16.690 -0.3389  0.3091 -0.0086
 5383TIP3    H137564   1.432   5.097  16.784 -1.1076 -0.9038  0.0483
 5383TIP3    H237565   1.326   5.070  16.679  0.0027 -0.1905 -1.2919
 5384TIP3   OH237566   4.413   1.022   5.892 -0.3865 -0.4962  0.5745
 5384TIP3    H137567   4.499   1.019   5.850 -0.8292 -1.7486 -0.2815
 5384TIP3    H237568   4.411   0.945   5.948 -1.6785 -1.6190 -0.9335
 5385TIP3   OH237569   3.486   4.742   1.967  0.0337  0.1368  0.2643
 5385TIP3    H137570   3.535   4.667   2.001  0.3692  0.6329  0.8972
 5385TIP3    H237571   3.530   4.818   2.004 -1.0984  0.6050  0.6880
 5386TIP3   OH237572   1.078   2.245   0.387 -0.3212 -0.4557 -0.1328
 5386TIP3    H137573   0.994   2.286   0.408  0.3574  0.3343  1.1584
 5386TIP3    H237574   1.128   2.315   0.344 -0.8747 -1.3977 -2.4343
 5387TIP3   OH237575   0.994   4.114  10.649  0.5147 -0.3587 -0.4098
 5387TIP3    H137576   1.031   4.169  10.579 -1.2757 -0.1266 -1.2391
 5387TIP3    H237577   0.985   4.027  10.609 -1.1281 -0.0750 -0.7572
 5388TIP3   OH237578   3.999   2.916  15.271  0.0922  0.0710  0.4694
 5388TIP3    H137579   3.955   2.967  15.340  0.6299 -1.7903  2.2796
 5388TIP3    H237580   3.928   2.867  15.229 -0.1536  0.7255  0.1018
 5389TIP3   OH237581   0.971   5.420  10.913 -0.2995 -0.1888  0.5125
 5389TIP3    H137582   1.001   5.502  10.872 -0.4838  0.5459  1.8045
 5389TIP3    H237583   0.906   5.386  10.852  0.0161  0.4480 -0.2043
 5390TIP3   OH237584   4.262   0.657   2.056 -0.2723  0.1156  1.0211
 5390TIP3    H137585   4.311   0.590   2.008 -0.5708 -1.1360  2.3912
 5390TIP3    H237586   4.221   0.711   1.988  0.3861 -0.7749 -0.1151
 5391TIP3   OH237587   6.445   3.163  15.529 -0.4850  0.8777 -0.6198
 5391TIP3    H137588   6.525   3.214  15.536  0.1406  0.3507 -2.9875
 5391TIP3    H237589   6.398   3.202  15.455  0.0277 -1.8759 -2.5375
 5392TIP3   OH237590   2.282   2.195   3.375 -0.3562 -0.7018  0.1953
 5392TIP3    H137591   2.264   2.239   3.458  1.2794  1.3620 -0.4303
 5392TIP3    H237592   2.371   2.223   3.353 -0.3904 -1.9843 -1.7820
 5393TIP3   OH237593   1.456   3.971   0.832 -0.8193  0.1251 -0.3259
 5393TIP3    H137594   1.510   3.915   0.888 -1.3553 -3.2775 -2.8815
 5393TIP3    H237595   1.511   4.047   0.816  1.2037 -0.9103  1.0777
 5394TIP3   OH237596   1.502   3.203   5.850 -0.6556  0.4736  0.0735
 5394TIP3    H137597   1.530   3.162   5.932 -1.3649  1.1683  0.6776
 5394TIP3    H237598   1.477   3.292   5.875 -0.6555  0.7727 -0.9449
 5395TIP3   OH237599   3.040   6.492   2.391  0.2940 -0.2975  0.3776
 5395TIP3    H137600   3.055   6.489   2.297 -0.1286  0.0516  0.2954
 5395TIP3    H237601   3.077   6.411   2.424  1.0185 -0.1289 -0.0071
 5396TIP3   OH237602   6.003   5.039   4.871 -0.4704 -0.5480  0.4547
 5396TIP3    H137603   5.934   4.974   4.885  0.8975 -2.2882 -0.3627
 5396TIP3    H237604   6.057   5.032   4.950 -1.5115  1.2728  1.3908
 5397TIP3   OH237605   4.755   5.034  15.734  0.1306  0.5023  0.1416
 5397TIP3    H137606   4.738   4.975  15.807 -1.5226 -0.1985 -0.7686
 5397TIP3    H237607   4.723   5.119  15.765  1.5650  0.7441  1.0615
 5398TIP3   OH237608   0.938   0.567  12.806 -0.0325 -0.1519 -0.4857
 5398TIP3    H137609   0.917   0.475  12.792  1.4782 -0.7847  1.0256
 5398TIP3    H237610   0.891   0.591  12.886  0.8582 -0.1035  0.0392
 5399TIP3   OH237611   0.254   0.210   1.329  0.5452  0.1153  0.6025
 5399TIP3    H137612   0.175   0.229   1.279  1.2168 -1.2550 -1.0761
 5399TIP3    H237613   0.280   0.295   1.365  1.4057  1.8630 -3.5213
 5400TIP3   OH237614   2.556   2.917  13.563 -0.4982  0.0734  0.3618
 5400TIP3    H137615   2.564   2.994  13.508  0.8314 -0.1551  0.1934
 5400TIP3    H237616   2.485   2.937  13.624 -0.3022  1.3404  0.1917
 5401TIP3   OH237617   3.878   0.013   1.933  0.0382  0.5453 -0.3350
 5401TIP3    H137618   3.861   0.066   2.010 -0.0552 -0.6094  0.4766
 5401TIP3    H237619   3.792  -0.014   1.902  0.0772  0.9737 -0.8261
 5402TIP3   OH237620   1.909   1.022  12.902  0.6375  0.7752 -0.5255
 5402TIP3    H137621   1.916   1.117  12.889 -1.1651  0.6954 -2.7840
 5402TIP3    H237622   1.931   1.009  12.994  1.2172  3.3383 -0.2135
 5403TIP3   OH237623   1.892   4.207  12.343 -0.2789  0.1852 -0.7996
 5403TIP3    H137624   1.872   4.258  12.265  1.0440 -1.0541 -2.0107
 5403TIP3    H237625   1.969   4.155  12.319 -1.3744 -2.1818  0.4103
 5404TIP3   OH237626   0.817   6.501   5.684 -0.0503 -0.5930  0.5173
 5404TIP3    H137627   0.897   6.464   5.720 -0.2707 -0.3949  1.2267
 5404TIP3    H237628   0.827   6.493   5.589  0.0793 -2.1044  0.6367
 5405TIP3   OH237629   5.022   0.073  15.119  0.1271 -0.0341  0.0374
 5405TIP3    H137630   5.043   0.159  15.156 -0.9181 -0.1416  0.9332
 5405TIP3    H237631   4.928   0.077  15.101  0.1097 -0.9132 -0.1081
 5406TIP3   OH237632   0.919   4.712   0.423  0.0243 -0.1378  0.7748
 5406TIP3    H137633   0.955   4.627   0.448  0.4740 -0.1321  0.1660
 5406TIP3    H237634   0.853   4.692   0.356  0.7987  0.0600 -0.0571
 5407TIP3   OH237635   3.662   0.733  13.752  0.4691  0.0205 -0.6255
 5407TIP3    H137636   3.686   0.798  13.686 -1.8746  1.1460 -0.4567
 5407TIP3    H237637   3.617   0.664  13.702 -1.0538  0.7378 -0.3040
 5408TIP3   OH237638   5.195   4.994  12.918  0.6282 -0.0905  0.9883
 5408TIP3    H137639   5.115   4.973  12.871 -0.3828  4.2855  0.3115
 5408TIP3    H237640   5.166   5.024  13.004  1.5808  0.7047  1.0601
 5409TIP3   OH237641   6.776   5.875  11.792 -0.3011  0.1384 -0.2838
 5409TIP3    H137642   6.840   5.906  11.728  0.5544  0.5986  0.7608
 5409TIP3    H237643   6.715   5.948  11.803  0.9702  1.0425  1.2149
 5410TIP3   OH237644   5.026   0.975  12.869 -0.5026 -0.5541 -0.3903
 5410TIP3    H137645   4.968   0.927  12.928 -0.5154 -0.7010 -0.5194
 5410TIP3    H237646   5.101   0.999  12.923 -0.7711 -0.1889 -0.1734
 5411TIP3   OH237647   3.362   0.679  14.008 -0.5646 -0.2866 -0.3776
 5411TIP3    H137648   3.405   0.628  13.940 -0.6450 -0.4856 -0.2812
 5411TIP3    H237649   3.433   0.718  14.058 -0.4591 -1.4328  0.4104
 5412TIP3   OH237650   5.110   0.247   6.302 -0.2947 -0.3681 -0.3652
 5412TIP3    H137651   5.091   0.155   6.285 -1.0353 -0.4653  0.8651
 5412TIP3    H237652   5.029   0.280   6.342 -0.0362  0.8191 -0.7938
 5413TIP3   OH237653   1.977   3.995   6.499 -0.5775  0.0269  1.1940
 5413TIP3    H137654   1.918   4.070   6.496 -1.3017 -0.5090 -1.7430
 5413TIP3    H237655   1.921   3.921   6.519 -0.7832 -0.3112 -0.4431
 5414TIP3   OH237656   4.801   1.405  16.962  0.5430 -0.3367  0.0732
 5414TIP3    H137657   4.807   1.464  17.037 -1.2945 -0.0057 -0.0094
 5414TIP3    H237658   4.796   1.318  17.001 -2.0909 -0.0752  0.4790
 5415TIP3   OH237659   2.732   3.516  10.764  0.2972 -0.4503 -0.0652
 5415TIP3    H137660   2.686   3.519  10.848 -0.9722  2.8204 -0.7269
 5415TIP3    H237661   2.818   3.553  10.782  0.6908 -1.4381  0.1179
 5416TIP3   OH237662   1.548   0.049   1.631 -0.4489 -0.5396  0.1000
 5416TIP3    H137663   1.482   0.009   1.688  0.2094  0.4634  1.6615
 5416TIP3    H237664   1.574   0.129   1.679 -1.7817  1.8519 -2.8341
 5417TIP3   OH237665   2.804   6.745  16.312 -0.1667  0.2833 -0.3553
 5417TIP3    H137666   2.803   6.734  16.217  1.9533 -3.8451 -0.1344
 5417TIP3    H237667   2.891   6.715  16.339 -1.5063 -1.1204  3.0443
 5418TIP3   OH237668   1.260   1.320  17.259  0.0321  0.0495 -0.6175
 5418TIP3    H137669   1.326   1.268  17.305  0.2902 -0.5290 -1.6017
 5418TIP3    H237670   1.184   1.261  17.251 -0.5917  0.6853  0.4421
 5419TIP3   OH237671   0.535   6.096   3.455  0.2673  0.3867  0.0700
 5419TIP3    H137672   0.491   6.114   3.538 -0.4676 -1.1155  0.0541
 5419TIP3    H237673   0.474   6.039   3.408  1.0187  0.5713 -1.1667
 5420TIP3   OH237674   0.463   0.257  13.759 -0.5172 -0.0004  0.3988
 5420TIP3    H137675   0.466   0.197  13.685 -0.4994  2.4548 -1.7418
 5420TIP3    H237676   0.415   0.209  13.827 -1.1704 -2.1138 -1.4237
 5421TIP3   OH237677   3.903   5.497  14.896 -0.0957  0.2827  0.0313
 5421TIP3    H137678   3.979   5.459  14.854 -0.6677 -0.6190 -0.2274
 5421TIP3    H237679   3.893   5.583  14.856  1.3336  0.8177  0.7550
 5422TIP3   OH237680   0.067   6.265   2.768 -0.0063 -0.5143  0.2166
 5422TIP3    H137681  -0.023   6.236   2.752 -0.5619  1.8324 -1.3625
 5422TIP3    H237682   0.117   6.232   2.694  0.5793 -2.1477  1.2867
 5423TIP3   OH237683   1.547   3.279  15.884  0.1346  0.1559 -0.2568
 5423TIP3    H137684   1.468   3.333  15.887 -0.9121 -1.1043 -2.4498
 5423TIP3    H237685   1.613   3.330  15.931 -1.8295  1.4624  1.2446
 5424TIP3   OH237686   6.117   6.179   3.250  0.6991 -0.6317 -0.4077
 5424TIP3    H137687   6.031   6.165   3.210  1.1154  0.4859 -1.7656
 5424TIP3    H237688   6.133   6.099   3.301 -0.6943 -1.2775 -0.9357
 5425TIP3   OH237689   3.139   1.534   1.267  0.1390 -0.2820  0.6096
 5425TIP3    H137690   3.220   1.577   1.241  0.1281  0.7877  2.1929
 5425TIP3    H237691   3.090   1.602   1.314 -0.8369 -1.4335  1.3129
 5426TIP3   OH237692   1.549   0.326   0.394 -0.0772  0.1432 -0.1162
 5426TIP3    H137693   1.474   0.380   0.418 -0.5231 -0.7987  0.6839
 5426TIP3    H237694   1.513   0.260   0.335 -0.2806 -1.3486  1.5768
 5427TIP3   OH237695   0.787   3.902   0.299 -0.0431  0.5700 -0.1887
 5427TIP3    H137696   0.839   3.825   0.276  0.7135  1.4462 -1.6236
 5427TIP3    H237697   0.741   3.878   0.378  1.2265 -0.8775  0.1552
 5428TIP3   OH237698   0.072   2.216  16.064  0.0387  0.4821 -0.2478
 5428TIP3    H137699   0.101   2.125  16.068  1.1833  0.7755 -1.3888
 5428TIP3    H237700  -0.018   2.211  16.030  0.4394 -0.1670 -1.2420
 5429TIP3   OH237701   3.316   4.346   1.777  0.1863  0.1124 -0.5033
 5429TIP3    H137702   3.241   4.315   1.726 -0.5282  0.2867  0.4100
 5429TIP3    H237703   3.319   4.287   1.853  0.8537  0.2400 -0.4245
 5430TIP3   OH237704   6.640   0.941  15.766 -0.2779  0.3833 -0.0865
 5430TIP3    H137705   6.584   0.885  15.818 -0.3292 -0.9809 -1.5337
 5430TIP3    H237706   6.583   0.974  15.696  0.3749  0.1418 -0.7438
 5431TIP3   OH237707   5.212   0.719  11.415 -0.1479 -0.8688  0.5251
 5431TIP3    H137708   5.224   0.743  11.507 -1.5435 -0.2607  0.5847
 5431TIP3    H237709   5.117   0.723  11.402  0.1691  2.1297 -1.7393
 5432TIP3   OH237710   0.210   2.973   5.996 -0.1534  0.3423 -0.0030
 5432TIP3    H137711   0.114   2.968   5.995 -0.1611 -0.1466 -2.1420
 5432TIP3    H237712   0.233   2.974   6.089 -2.2638  1.3837  0.5699
 5433TIP3   OH237713   5.047   0.465   1.281 -0.3323  0.0513 -0.2675
 5433TIP3    H137714   5.045   0.372   1.299  0.5256  0.5169  2.6977
 5433TIP3    H237715   4.955   0.493   1.288 -0.5233 -0.4588 -0.6630
 5434TIP3   OH237716   2.927   6.177  13.790  0.0142  0.5613 -0.2471
 5434TIP3    H137717   3.002   6.185  13.731 -0.1775  0.5036 -0.4998
 5434TIP3    H237718   2.878   6.101  13.757 -0.2170  0.6680 -0.1523
 5435TIP3   OH237719   4.511   0.015  14.103 -0.0972 -0.3753  0.1935
 5435TIP3    H137720   4.486  -0.077  14.093 -0.5880 -0.3036  0.7263
 5435TIP3    H237721   4.603   0.012  14.128 -0.1512 -0.7318  0.3544
 5436TIP3   OH237722   5.217   1.595   3.868  0.1544  0.3357 -1.0653
 5436TIP3    H137723   5.296   1.553   3.900  0.1856  0.2924 -1.2008
 5436TIP3    H237724   5.233   1.611   3.775  0.0191  0.3596 -1.0852
 5437TIP3   OH237725   4.980   1.745  11.711 -0.2330  0.0638 -0.7054
 5437TIP3    H137726   4.984   1.707  11.798 -2.5884  0.8890 -0.1726
 5437TIP3    H237727   5.064   1.721  11.670 -0.0791 -2.4125  0.8816
 5438TIP3   OH237728   1.440   3.684   6.206  0.0500 -0.4041 -0.5530
 5438TIP3    H137729   1.386   3.733   6.143  0.7373  1.8186  0.4866
 5438TIP3    H237730   1.509   3.746   6.231  0.8276 -1.8534  1.0409
 5439TIP3   OH237731   0.896   1.331  16.878 -0.8299 -0.1200  0.5300
 5439TIP3    H137732   0.873   1.343  16.970  0.3730  0.3501  0.7895
 5439TIP3    H237733   0.837   1.390  16.831 -2.3770 -1.3419  0.8498
 5440TIP3   OH237734   3.327   3.004   3.219 -0.0260 -0.3735 -0.0996
 5440TIP3    H137735   3.265   3.022   3.289  0.4233 -0.4610  0.3237
 5440TIP3    H237736   3.298   2.920   3.183 -1.1933  0.4032 -1.0656
 5441TIP3   OH237737   5.730   3.117  11.949  0.5449 -0.4284  0.2340
 5441TIP3    H137738   5.824   3.107  11.966  0.4725 -1.0124  0.3210
 5441TIP3    H237739   5.711   3.207  11.974  0.9786 -0.4610  0.7113
 5442TIP3   OH237740   0.792   6.724   2.220  0.5034 -0.1862  0.4049
 5442TIP3    H137741   0.713   6.755   2.176  0.5482 -1.3666 -0.5876
 5442TIP3    H237742   0.810   6.789   2.288 -0.9863  0.4013  0.2700
 5443TIP3   OH237743   1.735   1.393  12.282 -0.0352  0.5216  0.3749
 5443TIP3    H137744   1.687   1.468  12.247  0.8122  1.1705  0.5702
 5443TIP3    H237745   1.702   1.384  12.372 -0.8816  0.0004  0.0256
 5444TIP3   OH237746   2.823   0.657  11.322  0.0207  0.1561  0.1092
 5444TIP3    H137747   2.818   0.706  11.404 -1.0646  0.9177 -0.3920
 5444TIP3    H237748   2.901   0.602  11.332  1.1325  1.7760  0.7938
 5445TIP3   OH237749   2.596   0.105  12.973 -0.4015 -0.0638  0.1891
 5445TIP3    H137750   2.579   0.197  12.952 -1.5775 -0.0638  1.0317
 5445TIP3    H237751   2.635   0.108  13.061 -1.0845 -0.3912  0.5137
 5446TIP3   OH237752   4.729   1.091  14.731  0.4563 -0.2103  0.2361
 5446TIP3    H137753   4.785   1.020  14.701 -1.7200 -1.6130 -0.8159
 5446TIP3    H237754   4.640   1.063  14.707 -0.6946  1.9617  1.6174
 5447TIP3   OH237755   2.112   6.649  15.589  0.0255  0.0087 -0.8464
 5447TIP3    H137756   2.168   6.617  15.519 -0.7381  0.4822 -1.6921
 5447TIP3    H237757   2.053   6.711  15.547 -1.0297 -0.3484  0.0323
 5448TIP3   OH237758   0.988   1.541  15.439 -1.0238  0.2640 -0.3937
 5448TIP3    H137759   0.938   1.544  15.521 -0.6569 -0.6410 -0.1232
 5448TIP3    H237760   0.922   1.533  15.370 -1.2754 -2.8650  0.0673
 5449TIP3   OH237761   1.978   0.529   4.226 -0.4164  0.5275 -0.0642
 5449TIP3    H137762   1.922   0.452   4.220  0.6014 -0.4786  2.2321
 5449TIP3    H237763   1.917   0.602   4.242 -1.3415  0.1692 -1.7575
 5450TIP3   OH237764   0.144   4.979  12.957  0.2324  0.1750  0.1376
 5450TIP3    H137765   0.142   4.920  12.881 -1.1374  0.0305  0.2525
 5450TIP3    H237766   0.198   4.932  13.021 -1.1652 -1.2046  0.3817
 5451TIP3   OH237767   3.972   1.517   1.847  0.1857 -0.1401 -0.3032
 5451TIP3    H137768   3.923   1.561   1.917  0.4605  2.6404 -1.7366
 5451TIP3    H237769   4.062   1.517   1.878  0.1555  0.1695 -0.2082
 5452TIP3   OH237770   3.415   5.136  17.207  0.3248  0.4581 -0.0575
 5452TIP3    H137771   3.478   5.206  17.225 -0.2717  0.5714  1.7478
 5452TIP3    H237772   3.338   5.158  17.260 -0.3713 -0.8653 -0.4780
 5453TIP3   OH237773   2.381   1.952   3.901  0.1330  0.6100 -0.4574
 5453TIP3    H137774   2.339   1.908   3.827  0.6645 -2.2414  0.8202
 5453TIP3    H237775   2.313   1.955   3.968  0.9002 -0.9684  0.4479
 5454TIP3   OH237776   6.341   3.519   0.671 -0.0677  0.0379  0.2160
 5454TIP3    H137777   6.378   3.434   0.647 -1.5011 -0.4255 -0.4431
 5454TIP3    H237778   6.412   3.582   0.653 -0.3625 -0.4882 -3.4763
 5455TIP3   OH237779   3.001   4.232  16.364 -0.2924 -0.4996  0.2720
 5455TIP3    H137780   3.025   4.145  16.331  1.8675  0.3170 -0.5068
 5455TIP3    H237781   2.948   4.270  16.294 -2.0400 -1.4786  1.0072
 5456TIP3   OH237782   3.099   0.299  17.227  0.6993  0.6656  0.6211
 5456TIP3    H137783   3.155   0.253  17.164  1.7263  2.0207  0.5169
 5456TIP3    H237784   3.159   0.333  17.293 -0.3155 -0.3518  2.1473
 5457TIP3   OH237785   4.574   1.363   5.251 -0.2035  0.1235 -0.7071
 5457TIP3    H137786   4.583   1.283   5.302  1.4357  0.8662  0.2886
 5457TIP3    H237787   4.661   1.377   5.212 -0.5205  1.2634 -1.0604
 5458TIP3   OH237788   3.160   0.699  11.773  0.1630 -0.2779  0.5712
 5458TIP3    H137789   3.197   0.706  11.861 -2.1573  1.3466  1.5025
 5458TIP3    H237790   3.208   0.764  11.722  0.3770 -0.0431  1.0620
 5459TIP3   OH237791   6.175   5.671  12.108  0.5946 -0.7028 -0.1240
 5459TIP3    H137792   6.089   5.645  12.074  0.1488 -0.5814  0.8791
 5459TIP3    H237793   6.157   5.702  12.197  1.3322  1.5551 -0.7199
 5460TIP3   OH237794   1.358   4.707  14.204  0.2899 -0.2551  0.2026
 5460TIP3    H137795   1.331   4.622  14.169  0.5299 -0.3908  0.3470
 5460TIP3    H237796   1.279   4.761  14.197 -0.1228 -0.7424  0.9027
 5461TIP3   OH237797   2.851   1.363  17.022 -0.3573 -0.3865  0.0276
 5461TIP3    H137798   2.813   1.326  16.943  1.0019 -0.4450 -0.6424
 5461TIP3    H237799   2.785   1.424  17.055 -1.6284 -1.5890 -0.1989
 5462TIP3   OH237800   1.209   6.284   4.681  0.0412 -0.6491  0.6080
 5462TIP3    H137801   1.222   6.254   4.591 -1.8589  0.0925  0.0448
 5462TIP3    H237802   1.253   6.369   4.684 -1.5997  0.2850 -0.2762
 5463TIP3   OH237803   3.325   5.605  16.119 -0.1259 -0.6551 -0.2646
 5463TIP3    H137804   3.271   5.679  16.094 -0.0230 -0.6093 -0.3506
 5463TIP3    H237805   3.414   5.641  16.127 -0.5830  0.0705  3.2448
 5464TIP3   OH237806   1.524   5.611  12.232  0.9513  0.0420 -0.4820
 5464TIP3    H137807   1.444   5.563  12.255  0.8081  0.2328 -0.5780
 5464TIP3    H237808   1.528   5.683  12.295  1.1852 -0.1129 -0.3168
 5465TIP3   OH237809   3.347   6.553  15.363 -0.8089 -0.3296  0.1734
 5465TIP3    H137810   3.270   6.527  15.312 -0.3941  0.1234 -0.7041
 5465TIP3    H237811   3.405   6.477  15.359 -1.2536 -0.7211  0.9465
 5466TIP3   OH237812   2.668   2.803  14.179 -0.5092 -0.3102 -0.8954
 5466TIP3    H137813   2.690   2.720  14.137  2.9673  0.3164 -0.6232
 5466TIP3    H237814   2.662   2.865  14.107  1.8255  0.0606 -0.8486
 5467TIP3   OH237815   6.516   4.397  15.081  0.0393 -0.1316 -0.2458
 5467TIP3    H137816   6.422   4.394  15.096 -0.3790 -1.5725 -2.7403
 5467TIP3    H237817   6.527   4.461  15.010  0.7013 -1.3323 -1.2570
 5468TIP3   OH237818   3.062   5.985   4.255 -0.9175 -0.0069  0.3298
 5468TIP3    H137819   3.118   6.005   4.330  0.4999  0.6758 -0.8440
 5468TIP3    H237820   3.023   5.900   4.276 -0.6415  0.2186  1.8720
 5469TIP3   OH237821   1.665   0.581  13.276  0.1413  0.3807 -0.0680
 5469TIP3    H137822   1.693   0.504  13.226  0.6667  0.2474  0.4290
 5469TIP3    H237823   1.604   0.546  13.341  0.1117  0.4334 -0.0672
 5470TIP3   OH237824   6.535   6.326  12.847  0.2306 -0.1181  0.2594
 5470TIP3    H137825   6.492   6.406  12.816  2.8190  1.3624  0.2093
 5470TIP3    H237826   6.529   6.331  12.942  2.0041  1.1750  0.3454
 5471TIP3   OH237827   5.205   0.694  14.826  0.1193 -0.2555  0.2646
 5471TIP3    H137828   5.224   0.633  14.754 -0.3779 -0.5636  0.3923
 5471TIP3    H237829   5.175   0.638  14.898 -3.0696  0.2983 -0.4894
 5472TIP3   OH237830   3.453   0.849   6.747  0.1330  0.4204  0.0603
 5472TIP3    H137831   3.459   0.909   6.673 -1.5239 -0.7795 -1.1249
 5472TIP3    H237832   3.521   0.783   6.729 -0.0843  0.2810 -0.2688
 5473TIP3   OH237833   5.629   4.521  12.927  0.0327  0.3461  0.0003
 5473TIP3    H137834   5.676   4.484  12.852  0.6528  1.7617 -0.3391
 5473TIP3    H237835   5.537   4.500  12.911  0.3768 -1.3622  0.0321
 5474TIP3   OH237836   5.020   2.713   6.000 -0.4120  0.1363  0.1690
 5474TIP3    H137837   5.021   2.631   5.950 -0.4612 -0.0317  0.4361
 5474TIP3    H237838   5.063   2.777   5.944 -2.0101  0.3831 -0.8309
 5475TIP3   OH237839   3.795   6.089   3.337 -0.1852 -0.6062  0.1721
 5475TIP3    H137840   3.735   6.017   3.357 -1.2682 -0.3451 -1.8890
 5475TIP3    H237841   3.755   6.166   3.375  0.2160 -0.8389  1.0873
 5476TIP3   OH237842   2.932   2.214  13.535  0.4618 -0.2614  0.1814
 5476TIP3    H137843   3.013   2.260  13.512 -0.9785  1.2541 -2.2543
 5476TIP3    H237844   2.906   2.170  13.454 -0.6328 -1.5826  1.2139
 5477TIP3   OH237845   1.573   4.636  11.416 -0.2137 -0.2427  0.5961
 5477TIP3    H137846   1.642   4.650  11.351  0.7290  1.9177  1.9446
 5477TIP3    H237847   1.620   4.620  11.497 -1.2907  0.4899  1.3896
 5478TIP3   OH237848   3.079   3.521   2.634 -0.3440  0.5159 -0.0292
 5478TIP3    H137849   2.984   3.531   2.623 -0.3657 -1.5553 -2.7914
 5478TIP3    H237850   3.116   3.548   2.551  1.5168  1.0236  0.9164
 5479TIP3   OH237851   1.229   3.985  12.269 -0.6357  0.3563 -0.1963
 5479TIP3    H137852   1.296   3.925  12.237 -0.9781 -0.2032  0.1014
 5479TIP3    H237853   1.171   3.998  12.195  0.3181  1.6241 -0.7589
 5480TIP3   OH237854   0.217   3.465  15.542  0.3967 -0.1351  0.2201
 5480TIP3    H137855   0.207   3.557  15.516  0.1070 -0.2628 -0.1432
 5480TIP3    H237856   0.150   3.419  15.491 -1.3423 -0.1845  2.4243
 5481TIP3   OH237857   0.454   1.701   5.474  0.1059  0.3116  0.1184
 5481TIP3    H137858   0.469   1.745   5.558  1.4453  1.0827 -0.4823
 5481TIP3    H237859   0.529   1.644   5.463  0.0779  0.4115 -0.6662
 5482TIP3   OH237860   4.535   4.939  13.528  0.5560  0.3033 -0.1725
 5482TIP3    H137861   4.588   5.010  13.562  0.8800  0.0588 -0.1595
 5482TIP3    H237862   4.587   4.902  13.456  0.2300  0.3136 -0.4181
 5483TIP3   OH237863   1.883   0.692   0.411 -0.0065  0.0026 -0.1754
 5483TIP3    H137864   1.836   0.663   0.489 -0.2547  1.3109  0.1790
 5483TIP3    H237865   1.815   0.698   0.343 -0.0869  0.4928 -0.0492
 5484TIP3   OH237866   3.201   1.549   2.216  0.1633  0.0966 -0.3159
 5484TIP3    H137867   3.231   1.619   2.274  0.8417  0.9555 -1.6590
 5484TIP3    H237868   3.225   1.578   2.128  0.2756 -1.7373 -0.9384
 5485TIP3   OH237869   0.324   6.253  10.668 -0.0340  0.2548 -0.6093
 5485TIP3    H137870   0.416   6.245  10.643  0.3477 -0.1830  0.8402
 5485TIP3    H237871   0.321   6.222  10.758 -1.9364 -1.5513 -1.2041
 5486TIP3   OH237872   0.813   6.428   5.372  0.2221  0.0141  0.0068
 5486TIP3    H137873   0.749   6.358   5.376  0.8090 -0.4893  1.9460
 5486TIP3    H237874   0.890   6.388   5.330  0.5609 -0.5497  1.1193
 5487TIP3   OH237875   3.844   6.479   1.267  0.5849 -0.3059  0.0510
 5487TIP3    H137876   3.749   6.487   1.263  0.7467  2.2767 -0.2161
 5487TIP3    H237877   3.863   6.397   1.223 -1.3504  0.6381 -2.8407
 5488TIP3   OH237878   2.142   4.147   5.657 -0.3957 -0.5120 -0.0371
 5488TIP3    H137879   2.209   4.131   5.723  0.4818 -0.2758 -0.8621
 5488TIP3    H237880   2.143   4.068   5.602 -2.1094 -1.3529  1.0168
 5489TIP3   OH237881   2.246   0.697  16.782  0.0308  0.5194 -0.1696
 5489TIP3    H137882   2.176   0.739  16.834 -0.0593  0.0104  0.1294
 5489TIP3    H237883   2.200   0.658  16.708 -0.5203 -2.4975  1.5880
 5490TIP3   OH237884   5.598   2.164  12.185 -0.4603 -0.6226  0.1447
 5490TIP3    H137885   5.513   2.199  12.159 -1.0534 -1.6041  0.7037
 5490TIP3    H237886   5.646   2.152  12.102 -0.6872  0.3513 -0.1359
 5491TIP3   OH237887   3.129   5.096  14.939 -0.1473  0.5851  0.7598
 5491TIP3    H137888   3.105   5.064  14.852  0.4026 -1.2505  1.2375
 5491TIP3    H237889   3.224   5.104  14.936 -0.1259  0.5228  1.1794
 5492TIP3   OH237890   0.477   6.675  15.065  0.2354 -0.5502 -0.3577
 5492TIP3    H137891   0.470   6.582  15.088 -0.5963 -0.4880 -0.3414
 5492TIP3    H237892   0.434   6.682  14.980 -0.8447  0.0410  0.2268
 5493TIP3   OH237893   4.756   0.620  17.049  0.0276  0.0917  0.1294
 5493TIP3    H137894   4.705   0.624  17.130  0.1988 -3.6529  0.5902
 5493TIP3    H237895   4.833   0.570  17.072 -0.0974 -1.4261 -2.4050
 5494TIP3   OH237896   6.391   2.994  14.493 -0.2616 -0.3627 -0.3862
 5494TIP3    H137897   6.338   2.943  14.554 -0.7147  0.2156 -0.2842
 5494TIP3    H237898   6.467   2.938  14.474  1.1015  0.2860  2.4856
 5495TIP3   OH237899   3.375   4.998   4.248  0.0247  0.3271 -0.4427
 5495TIP3    H137900   3.333   5.037   4.324  1.0755 -0.6335  0.6740
 5495TIP3    H237901   3.460   5.043   4.241  1.1079 -1.4337  0.6640
 5496TIP3   OH237902   1.141   4.206  15.121  0.0393 -0.4181  0.5678
 5496TIP3    H137903   1.196   4.204  15.199 -0.1803 -3.3217  0.7362
 5496TIP3    H237904   1.112   4.116  15.109 -2.2210  0.4486 -1.2809
 5497TIP3   OH237905   0.569   3.023   1.525 -0.2360  0.2786 -0.1211
 5497TIP3    H137906   0.609   2.953   1.473  3.0198 -0.7282  3.2543
 5497TIP3    H237907   0.478   2.997   1.534  0.0822 -1.6971 -1.7559
 5498TIP3   OH237908   5.300   3.301   5.450 -0.1886  0.2342  0.3177
 5498TIP3    H137909   5.379   3.247   5.452  0.3583  1.0324  1.4052
 5498TIP3    H237910   5.265   3.296   5.539 -2.0857 -1.0930 -0.4530
 5499TIP3   OH237911   0.684   3.065   0.277 -0.5822 -0.4309 -0.7520
 5499TIP3    H137912   0.595   3.031   0.273 -0.5646 -0.3925 -2.6326
 5499TIP3    H237913   0.735   2.995   0.316 -1.4746 -0.2915  0.7397
 5500TIP3   OH237914   4.685   2.983  12.816  0.1381  0.1829 -0.0134
 5500TIP3    H137915   4.711   2.899  12.854 -1.9865 -0.2461  0.6031
 5500TIP3    H237916   4.626   2.960  12.744  1.4273  1.1045 -1.4252
 5501TIP3   OH237917   2.835   0.516   1.126 -0.1669  0.0549 -0.0449
 5501TIP3    H137918   2.903   0.483   1.185 -1.5331 -0.1787  1.4525
 5501TIP3    H237919   2.884   0.553   1.053  1.6037  0.5245  1.3045
 5502TIP3   OH237920   5.507   3.136   5.513 -0.0758  0.0470 -0.2153
 5502TIP3    H137921   5.569   3.094   5.572 -1.7702  0.2586  1.8386
 5502TIP3    H237922   5.533   3.107   5.426  1.2916 -1.9691  0.7825
 5503TIP3   OH237923   2.733   3.990   2.925 -0.2972  0.2233 -0.2560
 5503TIP3    H137924   2.822   3.988   2.960 -0.4621 -1.0030  0.1454
 5503TIP3    H237925   2.717   4.082   2.906  0.6527  0.6152  0.7165
 5504TIP3   OH237926   1.430   3.742   4.444 -0.1295  0.4015 -0.2478
 5504TIP3    H137927   1.497   3.677   4.467  0.2662  0.9354  0.1275
 5504TIP3    H237928   1.374   3.747   4.522 -0.1059  0.5854 -0.2446
 5505TIP3   OH237929   1.030   5.993  16.346 -0.9743  0.0466 -0.2859
 5505TIP3    H137930   1.098   6.017  16.409 -0.1928  0.4321 -1.2546
 5505TIP3    H237931   1.070   5.926  16.291 -0.8542  1.2861 -1.7727
 5506TIP3   OH237932   6.249   2.950  14.226 -0.5536  0.2826  0.3898
 5506TIP3    H137933   6.271   2.957  14.319 -0.3691  0.5618  0.3244
 5506TIP3    H237934   6.307   3.012  14.182 -0.3082 -0.1868  0.0320
 5507TIP3   OH237935   0.900   5.942  12.975 -0.4134 -0.0604 -0.0451
 5507TIP3    H137936   0.839   5.884  12.929 -0.2857 -0.8897  0.8035
 5507TIP3    H237937   0.950   5.884  13.032  2.4107  0.2946 -1.9439
 5508TIP3   OH237938   4.812   6.735  15.640  0.2747 -0.5195  0.1207
 5508TIP3    H137939   4.832   6.827  15.622 -1.6866 -0.2398 -0.8000
 5508TIP3    H237940   4.739   6.714  15.583 -0.2747 -2.2479  1.3783
 5509TIP3   OH237941   2.959   1.806  14.897 -0.6309 -0.2383  0.1920
 5509TIP3    H137942   2.923   1.744  14.834 -1.4222 -0.6033  0.9763
 5509TIP3    H237943   2.961   1.758  14.980  0.7424  0.1077  0.3932
 5510TIP3   OH237944   0.119   1.006  15.905 -0.1213 -0.4492  0.6139
 5510TIP3    H137945   0.159   0.932  15.950  0.5957  0.1816  1.0378
 5510TIP3    H237946   0.035   0.972  15.873  0.7517 -1.7963 -0.3386
 5511TIP3   OH237947   5.604   3.267   1.639  0.0292 -0.1048  0.2548
 5511TIP3    H137948   5.578   3.180   1.612 -0.5484  0.4211 -0.9560
 5511TIP3    H237949   5.653   3.302   1.564 -0.3609  0.8570  0.4311
 5512TIP3   OH237950   5.905   3.782  15.285  0.8925 -0.4211 -0.4216
 5512TIP3    H137951   5.827   3.816  15.240  1.1095 -1.0703 -1.3159
 5512TIP3    H237952   5.871   3.717  15.346  0.7381 -0.7057 -0.8126
 5513TIP3   OH237953   5.730   4.487  13.540  0.1940  0.5815  0.5314
 5513TIP3    H137954   5.807   4.430  13.548 -0.7011 -0.7876 -0.0705
 5513TIP3    H237955   5.758   4.571  13.574  1.8848  0.0452  0.5452
 5514TIP3   OH237956   2.995   3.886   6.333  0.5677  0.1477 -0.0770
 5514TIP3    H137957   3.036   3.955   6.282  0.0414  0.3830 -0.1866
 5514TIP3    H237958   2.938   3.932   6.395 -0.0921 -0.1984 -0.4168
 5515TIP3   OH237959   0.751   3.248   0.524  0.1511  0.4511 -0.0343
 5515TIP3    H137960   0.717   3.219   0.609 -2.8018  1.5006 -0.7331
 5515TIP3    H237961   0.716   3.184   0.462  1.7560  0.0584 -0.5663
 5516TIP3   OH237962   1.428   6.700   3.244 -0.6226 -0.5564  0.1645
 5516TIP3    H137963   1.511   6.741   3.268 -0.1813 -0.7771 -0.9288
 5516TIP3    H237964   1.437   6.609   3.271 -0.9436 -0.3444  1.0318
 5517TIP3   OH237965   2.108   4.128  13.839  0.0196  0.8355  0.1434
 5517TIP3    H137966   2.166   4.126  13.763 -1.8581  0.1261 -1.3321
 5517TIP3    H237967   2.058   4.209  13.829 -2.0760 -0.5038 -0.8929
 5518TIP3   OH237968   3.046   4.034   4.858 -0.2747 -0.0184 -0.3015
 5518TIP3    H137969   3.142   4.039   4.855 -0.2687  4.9271 -1.1775
 5518TIP3    H237970   3.020   4.008   4.770  0.3468  1.0704 -0.8346
 5519TIP3   OH237971   5.682   6.403   1.135  0.1286  0.0449 -0.1939
 5519TIP3    H137972   5.681   6.452   1.053  2.7360  1.4263  0.4676
 5519TIP3    H237973   5.602   6.430   1.181 -0.1464  1.1401 -1.2615
 5520TIP3   OH237974   6.400   2.588  14.164  0.1537  0.0285 -0.5352
 5520TIP3    H137975   6.481   2.631  14.191  1.8224 -3.2279  0.1230
 5520TIP3    H237976   6.362   2.556  14.246 -1.0453  0.2799 -0.9806
 5521TIP3   OH237977   2.519   1.961  11.253  0.2438  0.4097 -0.0960
 5521TIP3    H137978   2.537   1.901  11.181  0.5993  1.3553 -0.8192
 5521TIP3    H237979   2.470   1.909  11.316 -1.6283  0.0237 -1.7825
 5522TIP3   OH237980   3.023   1.218   1.201 -0.0794 -0.2963 -0.0232
 5522TIP3    H137981   2.956   1.151   1.215 -0.0422 -0.6574 -1.4408
 5522TIP3    H237982   3.034   1.221   1.106  1.5999  0.0704  0.1544
 5523TIP3   OH237983   2.216   6.542  13.307  0.0541 -0.0122 -0.4288
 5523TIP3    H137984   2.128   6.507  13.292 -1.0979  1.7892  1.6220
 5523TIP3    H237985   2.226   6.540  13.402  2.6634 -1.0703 -0.6589
 5524TIP3   OH237986   2.022   4.925   4.951 -0.0213  0.4112  0.1643
 5524TIP3    H137987   2.041   4.865   4.879  0.7882 -1.0406  1.5207
 5524TIP3    H237988   2.102   4.977   4.960  0.8984 -1.1646  1.6085
 5525TIP3   OH237989   4.843   0.233  15.653 -0.0474 -0.4719 -0.1780
 5525TIP3    H137990   4.891   0.281  15.586  1.5420  0.4057  1.4894
 5525TIP3    H237991   4.882   0.262  15.736 -0.8734 -2.6423  1.0623
 5526TIP3   OH237992   0.386   3.418   2.770 -0.4211 -0.2332  0.5425
 5526TIP3    H137993   0.417   3.504   2.799 -0.4263 -0.0844  0.1234
 5526TIP3    H237994   0.381   3.426   2.674 -1.7246 -0.2699  0.5920
 5527TIP3   OH237995   5.365   5.525  17.152 -0.4470  0.7649  0.0847
 5527TIP3    H137996   5.320   5.442  17.137 -1.3235  1.0257  1.1748
 5527TIP3    H237997   5.377   5.562  17.064 -0.7310 -0.1517 -0.3492
 5528TIP3   OH237998   0.147   5.395   0.817  0.3222 -0.6712 -0.3985
 5528TIP3    H137999   0.113   5.362   0.900 -1.8900 -2.8856 -2.0643
 5528TIP3    H238000   0.202   5.325   0.783  0.2353 -0.2903 -1.3612
 5529TIP3   OH238001   2.584   5.113  16.381  0.1400  0.2994  0.0112
 5529TIP3    H138002   2.565   5.056  16.307  0.3979 -1.0907  0.9929
 5529TIP3    H238003   2.678   5.103  16.395  0.7156  2.8566 -1.2980
 5530TIP3   OH238004   4.525   4.106  16.726 -0.5677 -0.7658  0.4737
 5530TIP3    H138005   4.565   4.176  16.674 -1.1744  1.2185  2.5136
 5530TIP3    H238006   4.431   4.116  16.712 -0.6938 -0.7056  1.3169
 5531TIP3   OH238007   5.025   3.651   2.982 -0.4769  0.4451  0.5913
 5531TIP3    H138008   4.991   3.672   2.895  0.3881  2.2095  0.6393
 5531TIP3    H238009   5.087   3.579   2.966 -0.4914  0.6015 -0.2291
 5532TIP3   OH238010   3.037   5.895  14.856 -0.4646 -0.3119  0.5334
 5532TIP3    H138011   2.953   5.869  14.817  1.4270 -2.0117 -2.9413
 5532TIP3    H238012   3.074   5.957  14.793  1.4196 -0.6409  1.2544
 5533TIP3   OH238013   2.651   2.587   4.581  0.3240 -0.4191 -0.0742
 5533TIP3    H138014   2.602   2.612   4.660  0.6252 -0.9944  0.3057
 5533TIP3    H238015   2.584   2.562   4.518  0.0941 -0.4418  0.1773
 5534TIP3   OH238016   2.516   4.323   0.680  0.1350  0.3650  0.1828
 5534TIP3    H138017   2.580   4.300   0.613 -1.8982 -0.7722 -1.5204
 5534TIP3    H238018   2.508   4.245   0.734 -2.0706 -0.8513 -1.6576
 5535TIP3   OH238019   3.286   3.998   3.147  0.7429  0.2502 -0.8691
 5535TIP3    H138020   3.237   3.916   3.143  0.9699  0.0400  0.3272
 5535TIP3    H238021   3.261   4.044   3.067 -0.4815 -0.3753 -0.8796
 5536TIP3   OH238022   6.621   5.211   1.293  0.9000  0.5705  0.9912
 5536TIP3    H138023   6.585   5.298   1.277 -0.6454 -0.1104  0.6393
 5536TIP3    H238024   6.661   5.187   1.209  0.8707  0.7273  0.9316
 5537TIP3   OH238025   1.877   5.782  14.360  0.1861 -0.0082 -0.3114
 5537TIP3    H138026   1.906   5.843  14.428  0.0932  2.2565 -2.1623
 5537TIP3    H238027   1.950   5.776  14.299 -0.5968  0.0265 -1.2922
 5538TIP3   OH238028   4.322   6.454  16.266 -0.0667  0.4151  0.0204
 5538TIP3    H138029   4.332   6.367  16.303 -0.3984  0.4187  0.1176
 5538TIP3    H238030   4.361   6.447  16.178  2.6455  0.9452  1.0809
 5539TIP3   OH238031   4.406   0.405  10.218  0.1625 -0.3114  0.7288
 5539TIP3    H138032   4.322   0.434  10.182 -0.6516 -1.7004  1.4553
 5539TIP3    H238033   4.469   0.468  10.183 -0.5759 -1.3699 -2.9546
 5540TIP3   OH238034   1.246   0.222  12.357  0.3155  0.2326  0.3206
 5540TIP3    H138035   1.229   0.299  12.411  0.7173  0.6246 -0.1058
 5540TIP3    H238036   1.326   0.185  12.394  0.6420  0.5530 -0.0550
 5541TIP3   OH238037   3.783   1.136  14.801  0.3441 -0.5459 -0.3940
 5541TIP3    H138038   3.763   1.148  14.708 -0.0737 -0.4564 -0.2936
 5541TIP3    H238039   3.700   1.154  14.846  0.7781  0.3930  0.0660
 5542TIP3   OH238040   2.650   2.124   4.567  0.2166  0.5242  0.8547
 5542TIP3    H138041   2.559   2.146   4.589  0.3144  1.5694  0.2653
 5542TIP3    H238042   2.647   2.099   4.474  0.3548 -0.5489  1.1305
 5543TIP3   OH238043   6.172   3.946   4.456 -0.1640 -0.1287  0.0130
 5543TIP3    H138044   6.219   3.876   4.502 -1.8437 -1.2665  0.0859
 5543TIP3    H238045   6.135   3.903   4.379  0.1493  1.0797 -0.8278
 5544TIP3   OH238046   2.022   2.353  13.144 -0.3354  0.1247 -0.1115
 5544TIP3    H138047   2.116   2.362  13.160  0.0943 -1.6557 -1.3366
 5544TIP3    H238048   1.995   2.438  13.108  1.5202 -0.3093 -2.7667
 5545TIP3   OH238049   1.202   3.306  15.958 -0.1791 -0.1470  0.0786
 5545TIP3    H138050   1.232   3.396  15.943  1.0401 -0.4081  0.8110
 5545TIP3    H238051   1.109   3.307  15.934  0.2568  0.8511 -1.7336
 5546TIP3   OH238052   1.452   4.610  14.476 -0.5191 -0.0299 -0.5216
 5546TIP3    H138053   1.451   4.594  14.382  2.0954  2.9409 -1.2058
 5546TIP3    H238054   1.512   4.543  14.511 -0.7298 -0.5246 -1.0871
 5547TIP3   OH238055   3.639   5.457   3.134 -0.5593  0.6528 -0.6609
 5547TIP3    H138056   3.697   5.436   3.207 -0.2153 -3.8177 -1.8965
 5547TIP3    H238057   3.692   5.507   3.074  1.6636 -1.8555 -0.9816
 5548TIP3   OH238058   1.784   6.373  11.530 -0.1588  0.6517 -0.1818
 5548TIP3    H138059   1.733   6.304  11.488 -0.4711  0.0659  1.1061
 5548TIP3    H238060   1.721   6.442  11.550  0.2636  1.6540 -2.0652
 5549TIP3   OH238061   1.076   5.285   1.263  0.4505 -0.7073 -0.3085
 5549TIP3    H138062   1.164   5.296   1.228  0.6745  1.3014  0.7759
 5549TIP3    H238063   1.044   5.374   1.278 -1.2338 -1.4125  0.6236
 5550TIP3   OH238064   4.737   2.314  16.834  0.0401 -0.9529  0.4112
 5550TIP3    H138065   4.716   2.261  16.758  1.3358 -0.3043 -0.4426
 5550TIP3    H238066   4.659   2.311  16.888 -1.5933 -0.0407 -1.7458
 5551TIP3   OH238067   0.117   3.328  11.938 -0.2350 -0.3304  0.5050
 5551TIP3    H138068   0.107   3.316  11.844 -0.4693 -0.9540  0.5996
 5551TIP3    H238069   0.120   3.423  11.951  0.2563 -0.2511 -0.1717
 5552TIP3   OH238070   3.877   0.315   3.771  0.1436  0.1925 -0.6980
 5552TIP3    H138071   3.890   0.354   3.857  3.4717  1.9012 -1.7957
 5552TIP3    H238072   3.847   0.388   3.716 -0.4142 -0.5060 -1.3450
 5553TIP3   OH238073   5.750   0.896   3.974  0.2777 -0.4287  0.4245
 5553TIP3    H138074   5.754   0.809   4.015 -1.1942  0.6091  2.9951
 5553TIP3    H238075   5.686   0.887   3.904 -1.1232 -1.0848  1.7318
 5554TIP3   OH238076   3.192   5.508   5.477  0.1218 -0.6300  0.1398
 5554TIP3    H138077   3.281   5.542   5.467 -0.5571  1.4768  0.7972
 5554TIP3    H238078   3.204   5.414   5.487  2.4288 -0.2584  1.7191
 5555TIP3   OH238079   0.497   2.037   4.819  0.1441 -0.3475 -0.3816
 5555TIP3    H138080   0.427   2.089   4.858 -0.6556 -0.8397 -1.1223
 5555TIP3    H238081   0.512   1.966   4.882  1.0486  0.5985  0.4982
 5556TIP3   OH238082   3.622   0.045  16.401  0.4555 -0.0754 -0.4867
 5556TIP3    H138083   3.640   0.094  16.482 -0.3212 -0.6902  0.0704
 5556TIP3    H238084   3.708   0.017  16.371  0.6823 -0.6090  0.6188
 5557TIP3   OH238085   5.333   3.033  15.198  0.0687  0.0526  0.1778
 5557TIP3    H138086   5.348   2.970  15.126 -0.8422 -0.0376  0.0548
 5557TIP3    H238087   5.331   2.979  15.277 -0.7324 -0.0755  0.0701
 5558TIP3   OH238088   5.082   1.179  15.835  0.3977  0.1971 -0.6602
 5558TIP3    H138089   5.002   1.158  15.883  1.8373  1.2259  2.4444
 5558TIP3    H238090   5.054   1.242  15.769 -1.6351 -0.9311 -0.9558
 5559TIP3   OH238091   2.974   5.749   4.428  0.6436 -0.2480  0.1989
 5559TIP3    H138092   2.940   5.734   4.516  0.9128  0.8028  0.4995
 5559TIP3    H238093   2.997   5.662   4.396  1.8456 -0.5248  1.7078
 5560TIP3   OH238094   4.674   3.928   1.625  0.2939  0.4338 -0.1816
 5560TIP3    H138095   4.631   3.843   1.624 -1.5484  1.2803  1.4959
 5560TIP3    H238096   4.603   3.991   1.638  1.6862  2.1906 -0.6377
 5561TIP3   OH238097   6.306   4.267  15.296 -0.1181 -0.1629  0.3396
 5561TIP3    H138098   6.239   4.214  15.252 -0.7331  0.6949  0.2286
 5561TIP3    H238099   6.367   4.202  15.332 -1.2030 -0.9911  0.7740
 5562TIP3   OH238100   1.618   3.698   0.760  0.0617  0.4712 -0.4391
 5562TIP3    H138101   1.541   3.738   0.720 -0.8726 -0.7701  0.0533
 5562TIP3    H238102   1.690   3.719   0.701 -0.1376  3.7779  0.3362
 5563TIP3   OH238103   5.944   3.530   6.629  0.2802 -0.3293  0.2289
 5563TIP3    H138104   5.980   3.608   6.670  2.9894 -0.7267 -1.1882
 5563TIP3    H238105   6.002   3.512   6.555 -1.3369 -2.6197 -0.6051
 5564TIP3   OH238106   2.247   1.579   3.018 -0.3109 -0.1716  0.3986
 5564TIP3    H138107   2.244   1.613   3.107  0.7866  2.5557 -0.5021
 5564TIP3    H238108   2.321   1.624   2.978 -1.2326 -0.7465 -2.1283
 5565TIP3   OH238109   3.276   4.194   1.546 -0.5846  0.6917 -0.0441
 5565TIP3    H138110   3.339   4.178   1.616 -1.4552 -0.7807  0.4511
 5565TIP3    H238111   3.320   4.163   1.467 -0.1784  0.9652  0.0663
 5566TIP3   OH238112   5.179   3.766  14.609 -0.5543  0.2468  0.4497
 5566TIP3    H138113   5.254   3.825  14.609 -1.2075  1.0986  0.0907
 5566TIP3    H238114   5.210   3.688  14.655  0.7314  0.3474 -0.2005
 5567TIP3   OH238115   5.577   0.140   3.941 -0.7280 -0.2565 -0.0262
 5567TIP3    H138116   5.538   0.076   3.882 -2.5397 -1.4083  2.2490
 5567TIP3    H238117   5.509   0.158   4.006  0.8641  1.5263  1.2789
 5568TIP3   OH238118   0.296   4.718  13.444 -0.1527  0.1634  0.4088
 5568TIP3    H138119   0.300   4.705  13.539 -1.8654 -2.7005  0.2063
 5568TIP3    H238120   0.226   4.783  13.432 -0.4168  0.0150  1.0859
 5569TIP3   OH238121   5.876   4.302   6.141 -0.6967 -0.0242  0.1853
 5569TIP3    H138122   5.953   4.348   6.176 -0.8589 -0.1267  0.6806
 5569TIP3    H238123   5.822   4.371   6.103  0.1121 -0.0507 -1.1027
 5570TIP3   OH238124   2.406   0.785  17.062 -0.5853 -0.3924 -0.6834
 5570TIP3    H138125   2.490   0.766  17.022 -0.5291  1.0112 -1.2875
 5570TIP3    H238126   2.427   0.804  17.154 -0.1065  0.8310 -1.0305
 5571TIP3   OH238127   1.501   3.604   3.464 -0.1332  0.1584 -0.1681
 5571TIP3    H138128   1.410   3.572   3.465 -0.4046  0.9208  0.2956
 5571TIP3    H238129   1.492   3.699   3.458  0.5936  0.4004  2.0045
 5572TIP3   OH238130   5.111   0.012  16.788  0.4880 -0.3388 -0.2611
 5572TIP3    H138131   5.144  -0.036  16.864 -0.5317  1.7899  1.6523
 5572TIP3    H238132   5.140   0.102  16.803 -1.6038  0.5630 -1.2383
 5573TIP3   OH238133   0.203   5.675   2.202  0.4619 -0.6346  0.1545
 5573TIP3    H138134   0.294   5.705   2.203  1.3616 -3.0822 -0.3873
 5573TIP3    H238135   0.192   5.635   2.115 -1.0628 -0.6385  0.3188
 5574TIP3   OH238136   1.708   0.136  11.550  0.2229 -0.2154  0.1639
 5574TIP3    H138137   1.802   0.153  11.536 -0.2526  1.1362 -1.8702
 5574TIP3    H238138   1.675   0.218  11.586 -0.1116 -0.8609  1.3498
 5575TIP3   OH238139   0.419   1.428  13.075 -0.2439  0.5111 -0.2410
 5575TIP3    H138140   0.384   1.487  13.141 -1.0101 -0.5130  0.3003
 5575TIP3    H238141   0.488   1.379  13.120  0.2201  0.8058 -0.6172
 5576TIP3   OH238142   5.241   6.473  16.072 -0.3036 -0.7459  0.4084
 5576TIP3    H138143   5.179   6.546  16.082  1.3495  0.7830 -0.0391
 5576TIP3    H238144   5.326   6.510  16.095  0.9473 -1.9047 -1.9919
 5577TIP3   OH238145   6.040   2.306  13.105 -0.1796 -0.2121  0.1896
 5577TIP3    H138146   6.037   2.343  13.194 -0.8108 -0.2729  0.2019
 5577TIP3    H238147   6.079   2.219  13.117 -1.9770 -0.9931  0.7065
 5578TIP3   OH238148   0.696   1.794  15.055 -0.4719 -0.0967 -0.2733
 5578TIP3    H138149   0.614   1.820  15.097  0.2167 -0.0823  1.1158
 5578TIP3    H238150   0.764   1.842  15.102  0.3057  0.3797 -1.8162
 5579TIP3   OH238151   5.755   0.495  14.512  0.2185  0.1743 -0.4650
 5579TIP3    H138152   5.667   0.521  14.538  0.5555 -0.0428  0.9405
 5579TIP3    H238153   5.796   0.461  14.591  0.4848 -2.8200 -1.7577
 5580TIP3   OH238154   3.655   5.776   0.106  0.6355 -0.3864 -0.0472
 5580TIP3    H138155   3.579   5.728   0.141  0.7847 -0.0159  0.8133
 5580TIP3    H238156   3.662   5.853   0.162 -0.6267  1.5894 -2.3887
 5581TIP3   OH238157   2.500   3.126  14.061  0.0660  0.3257 -0.1719
 5581TIP3    H138158   2.540   3.212  14.046  0.4324  0.4907  1.5646
 5581TIP3    H238159   2.567   3.064  14.032  1.1659  0.6224  1.5537
 5582TIP3   OH238160   4.399   5.755  11.381  0.3194  0.1605 -0.0025
 5582TIP3    H138161   4.376   5.691  11.448 -0.5415  0.5792  0.1224
 5582TIP3    H238162   4.410   5.704  11.301  0.1078 -0.1929  0.1918
 5583TIP3   OH238163   0.339   2.484   2.972 -0.0685 -0.2359 -0.0264
 5583TIP3    H138164   0.314   2.508   2.883  1.1231  0.8570 -0.1016
 5583TIP3    H238165   0.305   2.395   2.984 -1.3525  0.0870 -1.1080
 5584TIP3   OH238166   6.309   2.622   1.561 -0.7691  0.5674 -0.0047
 5584TIP3    H138167   6.356   2.695   1.600 -1.1044  0.6312  0.2790
 5584TIP3    H238168   6.270   2.658   1.481  1.6042 -0.0520 -1.5421
 5585TIP3   OH238169   5.807   4.594   5.560 -0.0430  0.0996  0.5340
 5585TIP3    H138170   5.780   4.643   5.638 -0.6738  0.4582  0.1008
 5585TIP3    H238171   5.773   4.646   5.487 -0.3370 -0.7567  0.0522
 5586TIP3   OH238172   2.979   6.586   1.264 -0.0105  0.4030 -0.1663
 5586TIP3    H138173   2.996   6.574   1.357 -0.7633 -1.5227 -0.2280
 5586TIP3    H238174   2.883   6.585   1.257 -0.1821  4.3725 -0.5801
 5587TIP3   OH238175   3.445   0.396  15.689  0.5182  0.0586  0.2069
 5587TIP3    H138176   3.371   0.414  15.631 -0.1452  0.6286  1.2059
 5587TIP3    H238177   3.414   0.327  15.748  0.4337  0.9706  1.2552
 5588TIP3   OH238178   2.379   3.759   2.991  0.3863 -0.4997 -0.0446
 5588TIP3    H138179   2.470   3.736   2.970  0.7477 -0.3587  1.2908
 5588TIP3    H238180   2.332   3.676   2.989  0.4648 -0.5339 -1.0551
 5589TIP3   OH238181   4.447   2.175  14.700  0.4109 -0.1451  0.4103
 5589TIP3    H138182   4.508   2.213  14.763  2.4901 -0.8510 -1.0667
 5589TIP3    H238183   4.496   2.172  14.618 -1.0673 -2.1687 -0.4872
 5590TIP3   OH238184   6.569   0.967   3.553 -0.4761  0.2241  0.0535
 5590TIP3    H138185   6.548   0.948   3.645 -1.7010  1.3934  0.0597
 5590TIP3    H238186   6.541   0.889   3.505 -0.7070 -0.0208  0.5777
 5591TIP3   OH238187   2.055   2.680   2.932  0.3613 -0.3243  0.2311
 5591TIP3    H138188   2.150   2.686   2.943  0.1247  1.0904  1.8806
 5591TIP3    H238189   2.043   2.610   2.867  2.5500  0.1294 -0.7464
 5592TIP3   OH238190   5.293   4.330  15.463 -0.2884 -0.1604 -0.0782
 5592TIP3    H138191   5.341   4.292  15.537 -0.3409  0.6721  0.3998
 5592TIP3    H238192   5.250   4.407  15.500 -1.5395 -0.5723 -0.6290
 5593TIP3   OH238193   5.535   5.748   5.394  0.2246  0.1579  0.3810
 5593TIP3    H138194   5.531   5.825   5.450 -1.9971  0.6531 -0.3939
 5593TIP3    H238195   5.445   5.715   5.390  1.0607 -2.4279  0.5766
 5594TIP3   OH238196   2.499   0.402   4.747  0.0453  0.0163  0.5618
 5594TIP3    H138197   2.470   0.465   4.813 -1.6127  0.3528 -0.4352
 5594TIP3    H238198   2.488   0.317   4.788  0.5136  0.2846  1.2559
 5595TIP3   OH238199   5.349   1.463   1.236 -0.3422  0.3869 -0.0097
 5595TIP3    H138200   5.399   1.397   1.188  1.1410  0.8280  0.8897
 5595TIP3    H238201   5.314   1.416   1.312 -2.5009 -0.2552 -1.3193
 5596TIP3   OH238202   1.729   3.356   6.046  0.2143 -0.3434  0.1079
 5596TIP3    H138203   1.647   3.385   6.007 -0.2728  0.1005  1.4081
 5596TIP3    H238204   1.705   3.329   6.135  1.7605  1.7709  1.2614
 5597TIP3   OH238205   4.740   1.079  10.942  0.7634  0.0660  0.4482
 5597TIP3    H138206   4.709   1.091  10.853 -1.3021  0.8028  1.2149
 5597TIP3    H238207   4.723   0.987  10.962  0.5422  0.0795  0.3222
 5598TIP3   OH238208   1.745   1.797   3.430 -0.0498 -0.2566 -0.5031
 5598TIP3    H138209   1.738   1.837   3.343 -0.5932 -0.5808 -0.6141
 5598TIP3    H238210   1.823   1.836   3.469  0.6270 -0.6615 -1.4268
 5599TIP3   OH238211   0.402   6.566  16.338 -0.2363 -0.2410  0.4168
 5599TIP3    H138212   0.440   6.507  16.403  1.6090  0.6673  0.2094
 5599TIP3    H238213   0.436   6.652  16.360  0.6693  0.0564 -1.8776
 5600TIP3   OH238214   2.543   2.028   1.028  0.4239 -0.3734 -0.2217
 5600TIP3    H138215   2.537   2.089   0.955 -0.4793  0.1095  0.2401
 5600TIP3    H238216   2.463   2.044   1.079  0.9395 -0.8507  0.7512
 5601TIP3   OH238217   3.110   5.480   2.285 -0.8736  0.6212 -0.3343
 5601TIP3    H138218   3.121   5.457   2.193  1.4692  0.6206 -0.1168
 5601TIP3    H238219   3.074   5.569   2.284 -1.3406  0.4274 -1.2279
 5602TIP3   OH238220   3.757   3.970  13.929 -0.4629 -0.8356  0.1488
 5602TIP3    H138221   3.728   3.879  13.939 -1.3842 -0.5990 -0.3406
 5602TIP3    H238222   3.734   4.012  14.012 -3.0668 -0.2438 -0.8069
 5603TIP3   OH238223   5.120   4.854   4.497 -0.2993 -0.5386 -0.3702
 5603TIP3    H138224   5.118   4.824   4.406  2.1437 -1.6536 -0.1458
 5603TIP3    H238225   5.184   4.926   4.496 -0.2366 -0.5764  0.4699
 5604TIP3   OH238226   0.631   0.977  14.962  0.5306  0.0187  0.5418
 5604TIP3    H138227   0.707   0.946  14.914 -1.0172 -1.4798 -1.1082
 5604TIP3    H238228   0.581   1.028  14.898 -0.8607 -0.7615  0.9719
 5605TIP3   OH238229   5.911   6.314   4.070 -0.1096 -0.2749 -0.0292
 5605TIP3    H138230   5.975   6.280   4.133  0.1740 -0.8495 -0.6154
 5605TIP3    H238231   5.929   6.408   4.067  0.4435 -0.3706  0.1069
 5606TIP3   OH238232   4.537   4.167   4.404 -0.0591  0.0876  0.5057
 5606TIP3    H138233   4.603   4.235   4.392  1.4966 -1.4453 -0.0927
 5606TIP3    H238234   4.580   4.100   4.457 -2.0496  0.1933  2.4189
 5607TIP3   OH238235   2.969   5.206  16.515 -0.4578  0.5934 -0.0603
 5607TIP3    H138236   3.015   5.286  16.539 -1.8042  0.6538  2.6410
 5607TIP3    H238237   3.030   5.135  16.534  0.4161  0.8825 -1.6356
 5608TIP3   OH238238   2.666   0.931  13.829 -0.3462  0.1984 -0.1552
 5608TIP3    H138239   2.633   1.002  13.884 -1.0726 -0.1656 -0.1046
 5608TIP3    H238240   2.588   0.895  13.787 -0.2593 -1.7220  1.1886
 5609TIP3   OH238241   4.405   4.562  14.231 -0.1752 -0.5568 -0.2079
 5609TIP3    H138242   4.440   4.474  14.223 -0.0931 -0.8728  2.5535
 5609TIP3    H238243   4.479   4.620  14.212  0.4969 -1.1344  0.6108
 5610TIP3   OH238244   0.952   5.370   5.161  0.2215  0.0934 -0.0575
 5610TIP3    H138245   0.939   5.465   5.162 -1.0813 -0.0498  0.8948
 5610TIP3    H238246   0.873   5.336   5.204  0.5149 -1.4402 -0.6918
 5611TIP3   OH238247   5.659   1.776  13.436 -0.1742  0.5896 -0.8914
 5611TIP3    H138248   5.576   1.820  13.456 -0.8139  0.1357 -2.3958
 5611TIP3    H238249   5.703   1.836  13.375  0.1667  0.3731 -0.8563
 5612TIP3   OH238250   4.907   5.010  14.941 -0.0624  0.4518 -0.4312
 5612TIP3    H138251   4.871   4.997  15.028  1.1501 -0.4442 -0.0418
 5612TIP3    H238252   5.000   5.028  14.955  0.0569  0.8195 -1.5150
 5613TIP3   OH238253   6.316   6.468   0.360  0.4846 -0.5322 -0.0214
 5613TIP3    H138254   6.281   6.556   0.343  1.4478 -0.2152 -0.4326
 5613TIP3    H238255   6.242   6.420   0.397 -0.4990 -0.0159 -1.2621
 5614TIP3   OH238256   6.110   5.537  15.703  0.0057  0.3412 -1.1978
 5614TIP3    H138257   6.045   5.524  15.634 -0.2464 -0.2869 -0.8550
 5614TIP3    H238258   6.182   5.582  15.660 -0.9980  1.8150 -1.3878
 5615TIP3   OH238259   5.490   2.467  14.727 -0.0637 -0.5801  0.1169
 5615TIP3    H138260   5.418   2.443  14.668  0.3152 -1.4205 -0.0281
 5615TIP3    H238261   5.550   2.517  14.672 -1.3573  1.7340  0.6741
 5616TIP3   OH238262   1.483   5.322   0.810  0.4351 -0.2200  0.4108
 5616TIP3    H138263   1.464   5.318   0.904 -0.5334 -1.3557  0.1887
 5616TIP3    H238264   1.557   5.263   0.798 -0.7104 -1.6542  0.1880
 5617TIP3   OH238265   1.025   1.646   0.121 -0.4478  0.0600 -0.0090
 5617TIP3    H138266   1.040   1.740   0.110 -0.3028 -0.0397 -0.7358
 5617TIP3    H238267   0.934   1.639   0.150  0.0080  0.5106  1.6476
 5618TIP3   OH238268   4.740   1.224  12.274  0.5474  0.0173  0.1936
 5618TIP3    H138269   4.776   1.148  12.319 -1.9242 -0.9659  0.7010
 5618TIP3    H238270   4.723   1.287  12.344 -0.1677 -0.1774  0.2051
 5619TIP3   OH238271   0.548   1.235  15.234 -0.2852  0.1272  0.6713
 5619TIP3    H138272   0.506   1.211  15.151  1.0050  1.4183 -0.4176
 5619TIP3    H238273   0.493   1.305  15.269 -0.9052 -0.5070  0.9860
 5620TIP3   OH238274   6.464   3.515  15.981  0.4536  0.0314  0.1019
 5620TIP3    H138275   6.449   3.444  15.919 -1.5447  0.9016 -0.4923
 5620TIP3    H238276   6.430   3.483  16.064  0.4083 -0.0473  0.0516
 5621TIP3   OH238277   4.916   2.514  16.934  0.6513 -0.1947  0.5387
 5621TIP3    H138278   4.957   2.488  17.017 -0.9447 -0.2760  1.3424
 5621TIP3    H238279   4.872   2.435  16.904  0.5083  0.0694  0.0449
 5622TIP3   OH238280   1.643   3.200   0.624  0.2280 -0.0610  0.4070
 5622TIP3    H138281   1.655   3.203   0.529 -1.2078  0.4430  0.2161
 5622TIP3    H238282   1.690   3.122   0.652  0.0148 -0.6534 -0.8277
 5623TIP3   OH238283   1.140   0.401   2.554  0.3590  0.0664  0.4106
 5623TIP3    H138284   1.142   0.381   2.460 -0.7135 -0.5158  0.4961
 5623TIP3    H238285   1.232   0.395   2.581  0.5790 -0.6097 -0.4292
 5624TIP3   OH238286   3.906   0.824   2.733  0.2106  0.4360  0.7851
 5624TIP3    H138287   3.865   0.787   2.655 -0.7983 -0.4992  1.7180
 5624TIP3    H238288   3.967   0.756   2.763  1.8290  1.4465 -0.0705
 5625TIP3   OH238289   4.554   0.136  16.995  0.2712  0.1363  0.4762
 5625TIP3    H138290   4.647   0.144  16.977  1.2477 -2.3818  3.5354
 5625TIP3    H238291   4.531   0.048  16.964 -0.5801 -0.0334  1.5559
 5626TIP3   OH238292   2.349   0.050  17.099  0.3358  0.1879  0.1621
 5626TIP3    H138293   2.403   0.014  17.169  1.0476 -0.8844 -0.9039
 5626TIP3    H238294   2.405   0.116  17.058 -0.0424  0.7390  0.5054
 5627TIP3   OH238295   6.222   0.813   2.602  0.2765 -0.4339 -0.1139
 5627TIP3    H138296   6.285   0.874   2.563  1.5990 -0.2471  2.1725
 5627TIP3    H238297   6.231   0.733   2.549  2.6025 -0.4784  0.2308
 5628TIP3   OH238298   0.664   6.489  16.804  0.0310  0.6497  0.3903
 5628TIP3    H138299   0.748   6.503  16.848 -1.0015  3.7078  1.5977
 5628TIP3    H238300   0.684   6.496  16.711  0.8802  3.8301  0.6947
 5629TIP3   OH238301   5.851   0.090   4.757 -0.2975 -0.0861 -0.9264
 5629TIP3    H138302   5.782   0.107   4.693 -0.1713  0.2303 -0.9840
 5629TIP3    H238303   5.925   0.144   4.727 -0.9384  1.8329  0.7122
 5630TIP3   OH238304   0.537   0.469   6.099 -0.6904  0.1352  0.0687
 5630TIP3    H138305   0.526   0.375   6.085  0.1927 -0.2424  1.6824
 5630TIP3    H238306   0.627   0.487   6.072 -0.6455  0.3925  0.3960
 5631TIP3   OH238307   0.242   0.628  14.696 -0.3457 -0.1683  0.2900
 5631TIP3    H138308   0.279   0.564  14.756 -0.3012  0.5114  1.0063
 5631TIP3    H238309   0.313   0.650  14.636 -0.1012 -0.1334  0.5930
 5632TIP3   OH238310   3.511   5.308  12.427  0.0272  0.2584 -0.0550
 5632TIP3    H138311   3.606   5.309  12.425  0.0609 -1.2205 -1.7935
 5632TIP3    H238312   3.485   5.317  12.335 -1.5451  1.2846  0.4361
 5633TIP3   OH238313   4.437   0.181  11.713 -0.3730  0.1616 -0.2634
 5633TIP3    H138314   4.524   0.162  11.678 -0.3478  1.8257 -1.2059
 5633TIP3    H238315   4.386   0.210  11.638 -1.4716  0.1286  0.4399
 5634TIP3   OH238316   4.086   4.133   5.453 -0.2435 -0.2227  0.8536
 5634TIP3    H138317   4.026   4.161   5.384  1.8783  0.8482 -0.7018
 5634TIP3    H238318   4.084   4.037   5.450  0.6829 -0.2409 -1.6387
 5635TIP3   OH238319   3.691   1.713  16.901 -0.9365  0.4230  0.0921
 5635TIP3    H138320   3.754   1.646  16.877  0.5200  1.3490  1.1928
 5635TIP3    H238321   3.607   1.680  16.867 -0.3732 -2.1263  0.9113
 5636TIP3   OH238322   3.055   2.805  10.217 -0.2522 -0.4298  0.1482
 5636TIP3    H138323   2.983   2.868  10.220  1.3209  1.4396  2.0418
 5636TIP3    H238324   3.123   2.848  10.166  0.4249 -1.1156  0.4487
 5637TIP3   OH238325   0.101   5.913  12.467 -0.0440  0.4572 -0.7486
 5637TIP3    H138326   0.160   5.849  12.508 -0.7402  0.1050 -0.2806
 5637TIP3    H238327   0.038   5.860  12.419 -0.6180  0.7816 -0.3663
 5638TIP3   OH238328   6.341   1.594   0.990  0.3836 -0.1931 -0.2692
 5638TIP3    H138329   6.299   1.508   0.980 -0.4097  0.0082  1.0827
 5638TIP3    H238330   6.341   1.609   1.084  1.3631  0.8898 -0.4297
 5639TIP3   OH238331   1.520   3.884   1.659 -0.1164  0.6698  0.0932
 5639TIP3    H138332   1.548   3.897   1.568 -0.5719  1.1719  0.0189
 5639TIP3    H238333   1.516   3.789   1.669  0.7455  0.5967 -0.1570
 5640TIP3   OH238334   5.864   0.170  12.888 -0.2145 -0.4413 -0.2198
 5640TIP3    H138335   5.795   0.105  12.877 -1.1951  0.1574  1.8616
 5640TIP3    H238336   5.826   0.252  12.859 -0.2227 -0.2065  0.4245
 5641TIP3   OH238337   3.376   1.126  14.424 -0.1524  0.0523  0.3619
 5641TIP3    H138338   3.466   1.153  14.405  0.6037 -1.1427  2.0056
 5641TIP3    H238339   3.325   1.160  14.350  1.9269 -0.8547 -1.6083
 5642TIP3   OH238340   6.539   4.857  16.333  0.1465  0.0045  0.0722
 5642TIP3    H138341   6.509   4.766  16.334  0.5014 -0.2262 -2.7390
 5642TIP3    H238342   6.462   4.907  16.307  0.2214  0.4123  0.6065
 5643TIP3   OH238343   6.296   4.838   1.260  0.1967 -0.2919 -0.8257
 5643TIP3    H138344   6.389   4.857   1.247 -0.0695  0.7878 -1.2138
 5643TIP3    H238345   6.252   4.922   1.249 -0.6010 -0.2516  1.8435
 5644TIP3   OH238346   1.629   0.173   5.798 -0.1195  0.1211 -0.2754
 5644TIP3    H138347   1.609   0.088   5.757  0.8308 -0.3935  0.2873
 5644TIP3    H238348   1.626   0.155   5.892 -1.5359  1.1141 -0.1094
 5645TIP3   OH238349   0.260   5.384   0.412 -0.2418 -0.1136  0.1209
 5645TIP3    H138350   0.333   5.446   0.416 -0.7167  0.4612  0.0385
 5645TIP3    H238351   0.242   5.374   0.319  0.0402 -0.6305  0.1176
 5646TIP3   OH238352   1.176   3.913   4.169 -0.0480 -0.7220 -0.6279
 5646TIP3    H138353   1.176   3.833   4.222  0.3453  0.0586  0.5768
 5646TIP3    H238354   1.084   3.937   4.161 -0.0228  0.1546  1.2860
 5647TIP3   OH238355   1.592   4.833   2.571  0.1325  0.1164  0.1048
 5647TIP3    H138356   1.617   4.763   2.510  1.4244 -1.9167  2.7680
 5647TIP3    H238357   1.520   4.795   2.622 -0.6385  1.6012  0.1532
 5648TIP3   OH238358   1.359   4.767  16.144  0.3207  0.0807  0.4895
 5648TIP3    H138359   1.332   4.848  16.187 -0.5339  1.3884 -2.2523
 5648TIP3    H238360   1.306   4.699  16.186 -2.2318  1.6124 -0.0188
 5649TIP3   OH238361   5.538   5.128  11.638  0.5085  0.3867  0.1619
 5649TIP3    H138362   5.560   5.036  11.622 -0.7924  0.1342 -0.4141
 5649TIP3    H238363   5.444   5.133  11.618 -0.0695  1.2703  2.7618
 5650TIP3   OH238364   4.910   0.030   6.516 -0.6165 -0.6964  0.3778
 5650TIP3    H138365   4.963   0.014   6.438 -0.9491  0.8965 -0.2160
 5650TIP3    H238366   4.964   0.001   6.589  2.3921  3.3724  0.0935
 5651TIP3   OH238367   2.273   5.508  14.885 -0.3193  0.3727 -0.3969
 5651TIP3    H138368   2.255   5.597  14.915 -2.0989 -0.1300  0.1391
 5651TIP3    H238369   2.256   5.452  14.961  0.1656 -0.4882 -0.8990
 5652TIP3   OH238370   2.468   0.986   2.014  0.6438  0.2091 -0.0972
 5652TIP3    H138371   2.462   0.896   1.980 -0.2852  1.2243 -2.9327
 5652TIP3    H238372   2.381   1.003   2.051  0.1758  0.5036 -1.2735
 5653TIP3   OH238373   4.878   4.720  11.963 -0.1149  0.5938  0.2937
 5653TIP3    H138374   4.889   4.720  11.868  0.1138  0.9358  0.3193
 5653TIP3    H238375   4.867   4.628  11.986  0.9014  0.4035  0.0603
 5654TIP3   OH238376   1.714   1.216  17.011  0.3397 -0.4841 -0.0681
 5654TIP3    H138377   1.747   1.289  17.063  0.8179 -0.5715 -0.2390
 5654TIP3    H238378   1.627   1.243  16.983  1.3177  0.9864 -1.9633
 5655TIP3   OH238379   3.594   0.954  12.138  0.8721 -0.1314  0.2085
 5655TIP3    H138380   3.566   0.894  12.069  0.7744  0.1564 -0.0072
 5655TIP3    H238381   3.690   0.952  12.135  0.9145 -1.5987  1.3665
 5656TIP3   OH238382   1.266   3.803  12.730 -0.2464 -0.4969 -0.5016
 5656TIP3    H138383   1.329   3.731  12.734  0.4387  0.1372  1.9961
 5656TIP3    H238384   1.306   3.867  12.672 -0.3028 -1.5815 -1.7842
 5657TIP3   OH238385   6.703   4.156  15.078  0.2003  0.4387  0.0468
 5657TIP3    H138386   6.788   4.172  15.118 -0.6472 -0.6530  2.4888
 5657TIP3    H238387   6.663   4.243  15.071  0.9088  0.7969  0.3378
 5658TIP3   OH238388   3.128   4.739  15.519  0.3867  0.4676 -0.3302
 5658TIP3    H138389   3.133   4.756  15.425  2.0758  0.7409 -0.2339
 5658TIP3    H238390   3.037   4.756  15.542 -0.2617 -0.3712 -2.0412
 5659TIP3   OH238391   1.361   5.165   5.512 -0.6163  0.8194 -0.2006
 5659TIP3    H138392   1.277   5.141   5.473 -0.7372 -0.2224  0.6569
 5659TIP3    H238393   1.403   5.221   5.446 -2.0377  1.5027 -0.5730
 5660TIP3   OH238394   4.321   4.467   4.395 -0.3429  0.3374 -0.3360
 5660TIP3    H138395   4.334   4.407   4.468 -0.6784 -0.1238 -0.6506
 5660TIP3    H238396   4.231   4.452   4.367 -0.0713  0.1691 -1.1437
 5661TIP3   OH238397   4.459   6.690   1.807 -0.0204  0.0354 -0.1406
 5661TIP3    H138398   4.441   6.632   1.882  0.6918  0.5796  0.4589
 5661TIP3    H238399   4.554   6.690   1.799  0.1753  2.6658  1.1344
 5662TIP3   OH238400   3.832   3.455   3.380 -0.1601  0.4758  0.0000
 5662TIP3    H138401   3.769   3.462   3.308  0.3356  2.6946 -0.2702
 5662TIP3    H238402   3.900   3.397   3.346 -0.3768  0.7741 -0.9800
 5663TIP3   OH238403   1.244   5.062   3.511 -0.1012 -0.3004 -0.2084
 5663TIP3    H138404   1.293   5.000   3.566  1.1282 -0.1292 -1.0587
 5663TIP3    H238405   1.197   5.117   3.573 -0.7414 -1.6872  0.5842
 5664TIP3   OH238406   0.464   2.934   2.078  0.4664  0.4311  0.4128
 5664TIP3    H138407   0.426   3.021   2.068  0.5501  0.6655  1.9766
 5664TIP3    H238408   0.453   2.913   2.170  0.8910 -1.0177  0.1535
 5665TIP3   OH238409   3.372   2.034  15.656 -0.0017 -0.0710  0.3338
 5665TIP3    H138410   3.455   2.078  15.638 -1.0866  1.8403 -0.2047
 5665TIP3    H238411   3.348   1.994  15.572 -0.4521  0.8619  0.0022
 5666TIP3   OH238412   1.580   2.914   2.186 -0.5827  0.0455 -0.1291
 5666TIP3    H138413   1.597   2.959   2.103  0.4303 -0.1606 -0.0480
 5666TIP3    H238414   1.613   2.826   2.172  0.2519  0.2148  0.7257
 5667TIP3   OH238415   5.400   6.139   0.538  0.2934  0.2449 -0.0680
 5667TIP3    H138416   5.384   6.046   0.555 -0.2650  0.7978  3.0136
 5667TIP3    H238417   5.474   6.161   0.594  0.8275  1.5533 -1.2305
 5668TIP3   OH238418   0.486   4.920   3.056  0.1389 -0.0596  0.2636
 5668TIP3    H138419   0.562   4.872   3.024  0.0036 -0.8359  1.0589
 5668TIP3    H238420   0.499   5.010   3.024  0.3648 -0.6234 -1.2934
 5669TIP3   OH238421   0.829   0.777   5.844  0.4523 -0.1208 -0.1481
 5669TIP3    H138422   0.904   0.823   5.882  1.0511 -0.4262 -0.9113
 5669TIP3    H238423   0.761   0.844   5.837  0.2512 -0.1035  1.5917
 5670TIP3   OH238424   5.226   4.971   1.238  0.8594 -0.4494  0.0243
 5670TIP3    H138425   5.266   5.057   1.224 -2.4215  0.9966 -1.5488
 5670TIP3    H238426   5.269   4.914   1.174  2.0381  0.3617  0.0537
 5671TIP3   OH238427   5.414   4.549   5.942  0.3305  0.0226 -0.3983
 5671TIP3    H138428   5.483   4.516   5.885 -0.5217  1.1605 -2.1732
 5671TIP3    H238429   5.459   4.571   6.023  2.1181  0.8959 -1.5628
 5672TIP3   OH238430   1.899   2.316  12.849  0.6338  0.0310  0.2065
 5672TIP3    H138431   1.993   2.324  12.836  0.4657  0.9828 -0.5310
 5672TIP3    H238432   1.868   2.406  12.862 -0.6849  0.3180 -3.5437
 5673TIP3   OH238433   3.316   5.084   3.146  0.0922  0.0145 -0.8259
 5673TIP3    H138434   3.343   5.041   3.065  1.3611 -0.5541 -0.1207
 5673TIP3    H238435   3.391   5.076   3.204 -0.4381  1.2877  0.0818
 5674TIP3   OH238436   0.353   2.352  12.126 -0.0952 -0.1431 -0.2295
 5674TIP3    H138437   0.340   2.407  12.204  0.5789 -1.4962  0.8638
 5674TIP3    H238438   0.444   2.323  12.132 -0.4010 -1.2687 -0.8592
 5675TIP3   OH238439   6.069   4.492  16.505  0.3854  0.3754 -0.0432
 5675TIP3    H138440   6.057   4.404  16.542 -0.7621  0.4809 -0.1367
 5675TIP3    H238441   6.000   4.544  16.545 -0.0103  0.8302 -1.2993
 5676TIP3   OH238442   2.401   1.699  14.797 -0.3927 -0.4810  0.0538
 5676TIP3    H138443   2.379   1.764  14.864 -0.1664 -0.0705 -0.2634
 5676TIP3    H238444   2.394   1.615  14.841  2.4399 -0.1342  1.3921
 5677TIP3   OH238445   4.154   2.756   4.398 -0.1463  0.2941  0.4061
 5677TIP3    H138446   4.208   2.810   4.341 -1.3526  0.9892 -0.1213
 5677TIP3    H238447   4.115   2.817   4.460 -2.2479  0.2577 -0.7679
 5678TIP3   OH238448   3.067   3.672   3.558 -0.6026 -0.0142 -0.3352
 5678TIP3    H138449   3.087   3.744   3.498 -0.5203  0.6552  0.4839
 5678TIP3    H238450   3.089   3.593   3.509  0.4507  0.5591 -0.8076
 5679TIP3   OH238451   2.117   1.826   3.503 -0.5950 -0.2277  0.1934
 5679TIP3    H138452   2.158   1.878   3.433  0.1277 -0.7605  0.2192
 5679TIP3    H238453   2.046   1.883   3.535  2.0477  2.1437  2.3447
 5680TIP3   OH238454   4.068   0.837  15.713  0.1925  0.2095  0.2296
 5680TIP3    H138455   4.093   0.751  15.679 -0.8700 -0.9113  2.1191
 5680TIP3    H238456   4.151   0.876  15.742  1.0014  0.8339 -2.6205
 5681TIP3   OH238457   6.665   0.052   4.496  0.1094  0.4399  0.7927
 5681TIP3    H138458   6.704   0.123   4.547  1.0572 -0.4964  1.4209
 5681TIP3    H238459   6.704  -0.028   4.532 -0.3719 -0.3594 -0.3837
 5682TIP3   OH238460   4.606   3.211   4.388 -0.3432 -0.5135  0.0180
 5682TIP3    H138461   4.574   3.260   4.312  0.9316  1.6632  0.8011
 5682TIP3    H238462   4.675   3.155   4.353  0.8859  1.1572 -0.3282
 5683TIP3   OH238463   0.312   4.639  11.579 -0.4750  0.7742  0.6474
 5683TIP3    H138464   0.392   4.660  11.531 -1.1371  1.0751 -0.3493
 5683TIP3    H238465   0.242   4.649  11.514 -1.3796  1.0742  1.6568
 5684TIP3   OH238466   3.396   5.572   5.186  0.1324 -0.2100 -0.3143
 5684TIP3    H138467   3.437   5.576   5.100 -1.5441  1.5408 -1.0820
 5684TIP3    H238468   3.470   5.566   5.247  1.3918 -0.2385 -1.7926
 5685TIP3   OH238469   2.432   6.744  16.510 -0.6533  0.2540  0.5787
 5685TIP3    H138470   2.403   6.834  16.528  0.1515  0.8645 -0.9630
 5685TIP3    H238471   2.506   6.730  16.568  0.4104  1.3077 -0.4611
 5686TIP3   OH238472   2.639   3.744   3.984  0.1281 -0.2093 -0.3338
 5686TIP3    H138473   2.690   3.744   3.903 -0.6070  0.3275 -0.8207
 5686TIP3    H238474   2.554   3.708   3.959 -0.0819 -0.1117  0.2160
 5687TIP3   OH238475   4.397   2.399  16.414  0.1022  0.5932 -0.4479
 5687TIP3    H138476   4.329   2.416  16.478  0.2270 -1.6853  0.4067
 5687TIP3    H238477   4.384   2.464  16.346 -0.6462  2.4902  1.4039
 5688TIP3   OH238478   4.908   0.510  15.301  0.0453  0.0000 -0.3824
 5688TIP3    H138479   4.994   0.527  15.341 -0.8760 -0.9623  2.1914
 5688TIP3    H238480   4.909   0.416  15.283 -0.8367 -0.2424  0.7273
 5689TIP3   OH238481   5.010   5.479  16.520  0.2876 -0.1746  0.0432
 5689TIP3    H138482   4.992   5.553  16.463  0.3789 -1.8260 -2.2265
 5689TIP3    H238483   5.100   5.494  16.549 -0.3525  1.6107  1.3278
 5690TIP3   OH238484   3.256   4.956   2.682  0.0705  0.1041  0.7933
 5690TIP3    H138485   3.226   5.046   2.694  1.1722  0.5710  0.2695
 5690TIP3    H238486   3.278   4.925   2.770  0.0874  0.5066  0.9314
 5691TIP3   OH238487   6.222   0.880   3.240  0.9114  0.1539 -0.3238
 5691TIP3    H138488   6.199   0.790   3.263 -0.3379 -0.0641 -2.2364
 5691TIP3    H238489   6.233   0.924   3.325 -0.7691 -1.2317  0.6903
 5692TIP3   OH238490   0.125   1.258  14.499  0.4854 -0.2866  0.1196
 5692TIP3    H138491   0.054   1.226  14.443  1.8406 -0.7270 -1.4028
 5692TIP3    H238492   0.196   1.195  14.486  2.3547  1.9209 -1.0516
 5693TIP3   OH238493   2.171   0.421  15.096 -0.3868  0.3465 -0.1162
 5693TIP3    H138494   2.260   0.437  15.064 -0.0976 -0.3434  0.3155
 5693TIP3    H238495   2.130   0.507  15.097  0.8206  0.9541  1.2545
 5694TIP3   OH238496   2.114   0.081  16.167 -0.1503  0.5500 -0.1011
 5694TIP3    H138497   2.132   0.116  16.254 -1.5016 -1.4494  1.0585
 5694TIP3    H238498   2.196   0.040  16.140 -0.2497 -0.5254  1.1205
 5695TIP3   OH238499   4.837   3.930   1.841  0.0037 -0.0301  0.3077
 5695TIP3    H138500   4.835   4.021   1.813 -1.7236  0.0148  0.4242
 5695TIP3    H238501   4.798   3.882   1.767 -2.1952 -0.2252  1.5021
 5696TIP3   OH238502   5.616   5.573  13.489  0.1874 -0.3233  0.8675
 5696TIP3    H138503   5.589   5.660  13.518  2.3284  0.0103  2.0950
 5696TIP3    H238504   5.709   5.568  13.513  0.7029 -2.1013 -1.2272
 5697TIP3   OH238505   2.644   3.666   4.240  0.4032 -0.0921 -0.3998
 5697TIP3    H138506   2.634   3.701   4.151 -1.1990  0.8798  0.1162
 5697TIP3    H238507   2.571   3.703   4.288  1.3250 -0.4844  1.3839
 5698TIP3   OH238508   4.374   5.170   5.501 -0.1725 -0.2940  0.0347
 5698TIP3    H138509   4.340   5.232   5.566  2.4591  1.1373  0.2060
 5698TIP3    H238510   4.314   5.179   5.427 -0.1019  2.2694  0.1883
 5699TIP3   OH238511   4.765   3.235  17.038 -0.0291 -0.2349 -0.1001
 5699TIP3    H138512   4.772   3.143  17.012 -0.2381 -0.1451 -0.4799
 5699TIP3    H238513   4.671   3.251  17.040 -0.0013 -0.1304  0.3232
 5700TIP3   OH238514   6.661   3.099  13.269 -0.4285 -0.1368  0.0514
 5700TIP3    H138515   6.653   3.172  13.332  1.7144 -0.5163  0.8725
 5700TIP3    H238516   6.686   3.024  13.323 -1.3802 -1.1969 -0.9445
 5701TIP3   OH238517   5.971   0.441  11.446 -0.4317 -0.0404 -0.2425
 5701TIP3    H138518   6.066   0.449  11.436 -0.3221  1.2286  1.2921
 5701TIP3    H238519   5.935   0.511  11.391 -0.2848  1.2861  1.2627
 5702TIP3   OH238520   2.806   0.004  13.851  0.1660  0.2149  0.1758
 5702TIP3    H138521   2.891  -0.007  13.808  1.2495  2.0782  1.6813
 5702TIP3    H238522   2.800  -0.069  13.912  0.5064 -0.1658 -0.2452
 5703TIP3   OH238523   5.688   5.349  14.235 -0.2436  0.2361 -0.6532
 5703TIP3    H138524   5.690   5.357  14.330  0.0639 -0.4113 -0.5993
 5703TIP3    H238525   5.737   5.425  14.204  0.9490 -0.3354 -0.2353
 5704TIP3   OH238526   0.336   5.664  15.488  0.5690  0.5746 -0.2902
 5704TIP3    H138527   0.349   5.572  15.466 -0.1133  0.6379 -0.9980
 5704TIP3    H238528   0.398   5.681  15.560  2.5278  0.2146 -1.8010
 5705TIP3   OH238529   1.658   3.139   4.790  0.3172 -0.3549  0.1314
 5705TIP3    H138530   1.620   3.091   4.864  0.4168 -0.9133 -0.1732
 5705TIP3    H238531   1.752   3.130   4.801  0.3446  0.1288  0.3021
 5706TIP3   OH238532   2.250   3.413   0.401  0.0084 -0.2794 -0.2330
 5706TIP3    H138533   2.238   3.460   0.318  1.5556  1.7294  0.5869
 5706TIP3    H238534   2.194   3.336   0.393 -2.7551  1.7120 -1.6510
 5707TIP3   OH238535   0.153   1.983  17.044 -0.1509 -0.8082 -0.1791
 5707TIP3    H138536   0.108   1.937  17.115 -2.6642 -0.1459 -1.2698
 5707TIP3    H238537   0.128   2.074  17.054  2.5910  0.0059  0.2940
 5708TIP3   OH238538   2.639   6.167  15.999 -0.2538 -0.3953  0.3595
 5708TIP3    H138539   2.581   6.152  16.073 -0.2411 -0.9147  0.2664
 5708TIP3    H238540   2.588   6.139  15.923  1.2656 -4.2044  0.5394
 5709TIP3   OH238541   2.640   0.531  13.391 -0.2414 -0.4889  0.2834
 5709TIP3    H138542   2.711   0.587  13.422  0.2297 -1.8232  1.7258
 5709TIP3    H238543   2.675   0.491  13.311  0.3121 -0.4949  0.5241
 5710TIP3   OH238544   5.727   4.621   1.411 -0.0145  0.1646  0.2088
 5710TIP3    H138545   5.713   4.653   1.321 -0.1517  1.2862  0.6109
 5710TIP3    H238546   5.822   4.630   1.425 -0.1806  1.3337  0.6517
 5711TIP3   OH238547   3.039   1.750   1.386  0.5451  0.2386  0.1044
 5711TIP3    H138548   3.019   1.758   1.479  2.6264  0.0232  0.6085
 5711TIP3    H238549   2.957   1.774   1.342 -0.2212  1.2246  1.9537
 5712TIP3   OH238550   6.709   6.521   1.580  0.0149 -0.4159  0.1016
 5712TIP3    H138551   6.627   6.570   1.579 -0.7161 -1.5704  0.7371
 5712TIP3    H238552   6.694   6.447   1.520  0.2270 -1.1738  0.9526
 5713TIP3   OH238553   0.279   5.766  13.231 -0.0793 -0.7644  0.1165
 5713TIP3    H138554   0.365   5.727  13.218 -0.7968 -2.2057 -0.6322
 5713TIP3    H238555   0.244   5.721  13.308 -0.8074 -1.4788 -0.5957
 5714TIP3   OH238556   0.146   1.330  16.496  0.1370 -0.3250 -0.5311
 5714TIP3    H138557   0.158   1.375  16.579  1.5010 -0.1849 -0.7854
 5714TIP3    H238558   0.130   1.238  16.521  0.8895 -0.3496 -0.1219
 5715TIP3   OH238559   5.876   1.448  12.658  0.1414  0.3630  0.0791
 5715TIP3    H138560   5.955   1.501  12.673 -1.3258  2.2714  1.5578
 5715TIP3    H238561   5.810   1.511  12.631 -1.0848 -1.0935 -0.4266
 5716TIP3   OH238562   5.058   3.916   1.540 -0.0529  0.4864 -0.2222
 5716TIP3    H138563   5.139   3.947   1.581  0.4004 -0.2789 -0.5180
 5716TIP3    H238564   5.085   3.839   1.490 -1.0754 -0.1208  0.1438
 5717TIP3   OH238565   3.172   4.172   1.982  0.1436  0.1469  0.8484
 5717TIP3    H138566   3.079   4.157   1.967  0.3454 -0.0195 -0.2967
 5717TIP3    H238567   3.175   4.226   2.061 -0.8548 -1.0090  1.7341
 5718TIP3   OH238568   3.566   1.790   4.325 -0.0345  0.2249  0.0147
 5718TIP3    H138569   3.608   1.852   4.265  2.7145 -3.7766 -2.7128
 5718TIP3    H238570   3.477   1.781   4.292 -0.0909  1.7276 -0.3166
 5719TIP3   OH238571   3.129   4.852  12.463 -0.0199 -0.4188 -0.1442
 5719TIP3    H138572   3.187   4.838  12.388 -0.1528  0.0263 -0.3299
 5719TIP3    H238573   3.134   4.770  12.512 -1.1348 -1.3307 -1.4629
 5720TIP3   OH238574   4.448   0.012   1.433  0.8753  0.0666 -0.3789
 5720TIP3    H138575   4.441  -0.045   1.356 -0.7956 -2.4959  1.5151
 5720TIP3    H238576   4.541   0.015   1.452  1.0933 -1.3258 -1.0823
 5721TIP3   OH238577   4.256   4.722  13.153 -0.2273 -0.2335 -0.0122
 5721TIP3    H138578   4.231   4.758  13.238 -1.1385  0.5177 -0.5755
 5721TIP3    H238579   4.350   4.739  13.146  0.1714 -1.5758  1.4309
 5722TIP3   OH238580   4.887   2.901   1.734  0.5145 -0.3674  0.4142
 5722TIP3    H138581   4.961   2.841   1.724  0.7139  0.0037 -0.3633
 5722TIP3    H238582   4.823   2.852   1.786  0.4917 -1.4156 -0.5872
 5723TIP3   OH238583   3.014   4.409  13.937 -0.2019  0.1888 -0.1208
 5723TIP3    H138584   2.939   4.462  13.907 -1.6390 -0.9909  1.2589
 5723TIP3    H238585   3.000   4.398  14.031 -0.2485 -3.0090 -0.4017
 5724TIP3   OH238586   1.435   3.483   4.154  0.3815 -0.0707 -0.2752
 5724TIP3    H138587   1.415   3.568   4.194  1.3233 -0.6061  1.4296
 5724TIP3    H238588   1.505   3.502   4.091 -0.3207  0.6055 -0.8758
 5725TIP3   OH238589   1.090   1.527   6.243  0.1748 -0.1710 -0.2648
 5725TIP3    H138590   1.113   1.474   6.320 -0.6199  0.0593  0.1348
 5725TIP3    H238591   1.156   1.597   6.242 -0.4413  0.4432  0.8330
 5726TIP3   OH238592   2.656   2.079  16.986 -0.1078  0.4910  0.4447
 5726TIP3    H138593   2.668   2.153  16.926 -2.7766 -0.3447 -1.2974
 5726TIP3    H238594   2.567   2.088  17.019 -0.4953 -1.8434  0.2450
 5727TIP3   OH238595   0.244   6.530  15.526 -0.0280  0.5961 -0.0655
 5727TIP3    H138596   0.311   6.497  15.467  1.1516  1.4495  0.7638
 5727TIP3    H238597   0.221   6.455  15.581  0.9878  0.5494  0.3161
 5728TIP3   OH238598   1.805   5.751   0.098  0.1027 -0.0360 -0.5447
 5728TIP3    H138599   1.774   5.808   0.168  0.0596 -0.0577 -0.5458
 5728TIP3    H238600   1.833   5.671   0.143  0.4788  0.1134 -0.5094
 5729TIP3   OH238601   0.986   5.408   1.706 -0.0386 -0.0141  0.4960
 5729TIP3    H138602   0.991   5.337   1.641 -0.4405 -0.3016  0.7684
 5729TIP3    H238603   0.919   5.467   1.672  0.2730  0.2180  0.2853
 5730TIP3   OH238604   3.293   0.148  17.080  0.5576 -0.0075  0.4131
 5730TIP3    H138605   3.380   0.122  17.050  0.9213  0.9136  0.6447
 5730TIP3    H238606   3.237   0.073  17.059  1.3359 -0.4695 -0.0545
 5731TIP3   OH238607   4.138   4.468   5.520 -0.0648  0.3682 -0.4177
 5731TIP3    H138608   4.140   4.545   5.464  0.7148  0.3404 -0.4386
 5731TIP3    H238609   4.229   4.455   5.547 -0.0836 -0.8778 -0.8739
 5732TIP3   OH238610   5.317   0.796  13.162  0.0204  0.2497  0.4404
 5732TIP3    H138611   5.248   0.796  13.228 -0.3528 -0.4210  0.0537
 5732TIP3    H238612   5.375   0.724  13.187  0.5111  0.7218  0.6845
 5733TIP3   OH238613   4.082   5.671   0.673  0.0430  0.0359  0.6545
 5733TIP3    H138614   4.176   5.675   0.653  0.4477 -0.1444  2.3118
 5733TIP3    H238615   4.074   5.722   0.754 -1.0230 -1.2204  1.3736
 5734TIP3   OH238616   5.208   0.226   2.501  0.1516  0.2418  0.0221
 5734TIP3    H138617   5.198   0.300   2.561 -0.7849  0.2721 -0.1551
 5734TIP3    H238618   5.258   0.162   2.550  0.6975  0.8647  0.2933
 5735TIP3   OH238619   2.050   3.367  15.806  0.2461 -0.1550  0.1131
 5735TIP3    H138620   2.000   3.348  15.885 -0.1674  1.0833  0.1603
 5735TIP3    H238621   2.013   3.307  15.740 -1.1777  0.5868  0.2022
 5736TIP3   OH238622   0.759   5.179  11.203  0.2793  0.1261  0.0455
 5736TIP3    H138623   0.745   5.266  11.165 -0.7046  0.1431  0.4328
 5736TIP3    H238624   0.773   5.122  11.127 -1.1063  0.2586 -0.3392
 5737TIP3   OH238625   0.150   0.234  12.558  1.1402 -0.0571 -0.4366
 5737TIP3    H138626   0.220   0.286  12.596  0.2680  0.8048  0.0223
 5737TIP3    H238627   0.083   0.229  12.626 -0.4692  1.5389 -1.8108
 5738TIP3   OH238628   5.370   1.699   0.156 -0.2594 -0.2467  0.0425
 5738TIP3    H138629   5.361   1.794   0.151  0.5295 -0.1549  0.3149
 5738TIP3    H238630   5.431   1.677   0.087 -2.3770 -0.8672 -1.7632
 5739TIP3   OH238631   2.095   1.890  14.438  0.6260 -0.4099  0.2030
 5739TIP3    H138632   2.163   1.827  14.463  1.9174  0.7311 -0.2752
 5739TIP3    H238633   2.064   1.927  14.520  1.6192  0.0764  0.3706
 5740TIP3   OH238634   6.537   0.106  16.547  0.7012 -0.5913 -0.1710
 5740TIP3    H138635   6.537   0.027  16.600  0.4166 -2.2875 -2.5158
 5740TIP3    H238636   6.448   0.111  16.511  0.9580  0.3085 -0.7295
 5741TIP3   OH238637   1.747   0.200   5.410 -0.5304  0.3523  0.2499
 5741TIP3    H138638   1.712   0.258   5.342 -0.6577  0.8620  0.7438
 5741TIP3    H238639   1.713   0.114   5.387  0.1959  0.3362 -0.8661
 5742TIP3   OH238640   3.072   0.451  13.319 -0.5294 -0.0954 -0.3910
 5742TIP3    H138641   3.007   0.500  13.370  1.5424  1.6039  0.7996
 5742TIP3    H238642   3.142   0.432  13.381  0.8194 -0.4819 -1.9544
 5743TIP3   OH238643   4.190   2.767   0.124 -0.0318 -0.0079 -0.1947
 5743TIP3    H138644   4.118   2.709   0.149  0.7603 -1.4086 -1.0394
 5743TIP3    H238645   4.252   2.761   0.197  0.5236 -1.0594 -0.7444
 5744TIP3   OH238646   2.042   5.346  15.690 -0.4737  0.0865 -0.4938
 5744TIP3    H138647   1.954   5.382  15.676  0.0836  1.4162 -0.6970
 5744TIP3    H238648   2.073   5.388  15.770  0.7163  1.1300 -1.4661
 5745TIP3   OH238649   2.534   6.122   5.495 -0.6018 -0.4705  0.2089
 5745TIP3    H138650   2.465   6.058   5.514 -0.8160  0.0317  1.2303
 5745TIP3    H238651   2.593   6.115   5.570 -0.0615 -0.2033 -0.1865
 5746TIP3   OH238652   3.021   0.664  10.490  0.0517 -0.1911  0.0621
 5746TIP3    H138653   3.091   0.710  10.538 -0.1025 -1.1126  1.2286
 5746TIP3    H238654   2.943   0.719  10.504  0.0989 -0.2367  0.5331
 5747TIP3   OH238655   6.389   2.386  10.758  0.1629  0.2684 -1.1061
 5747TIP3    H138656   6.397   2.293  10.776 -0.2271  0.1838 -1.3719
 5747TIP3    H238657   6.298   2.408  10.778  0.1713  0.5261 -1.3290
 5748TIP3   OH238658   5.830   0.246  13.866 -0.6857 -0.6907 -0.3229
 5748TIP3    H138659   5.918   0.261  13.900 -1.3526 -0.7254  1.5021
 5748TIP3    H238660   5.793   0.334  13.857 -0.0131 -0.5591 -2.5369
 5749TIP3   OH238661   0.246   6.139   2.212  0.5124 -0.0549 -0.8988
 5749TIP3    H138662   0.175   6.094   2.258  2.1922 -1.2504  0.6690
 5749TIP3    H238663   0.217   6.230   2.206 -0.9801 -0.4312  0.0387
 5750TIP3   OH238664   0.877   3.953  16.880 -0.5447  0.4228  0.1772
 5750TIP3    H138665   0.923   4.030  16.847 -2.2139  1.8667  1.0565
 5750TIP3    H238666   0.934   3.918  16.949  1.4176 -0.7096 -1.8810
 5751TIP3   OH238667   1.776   3.013   3.935  0.7294  0.0082  0.0064
 5751TIP3    H138668   1.748   2.990   3.847  1.4943  0.5031 -0.3774
 5751TIP3    H238669   1.805   2.930   3.974  1.0754 -0.0993 -0.4725
 5752TIP3   OH238670   5.275   5.805  13.114 -0.0375 -0.0874 -0.0723
 5752TIP3    H138671   5.324   5.811  13.196 -0.0721 -0.8996  0.0184
 5752TIP3    H238672   5.321   5.736  13.064 -0.0221  0.3879 -0.7306
 5753TIP3   OH238673   3.682   2.833  12.105 -0.1386 -0.1796  0.3035
 5753TIP3    H138674   3.696   2.917  12.061 -1.3890  0.9685  1.9613
 5753TIP3    H238675   3.661   2.857  12.196 -2.0429 -2.1719  0.4623
 5754TIP3   OH238676   3.896   5.834  12.036  0.4469 -0.0638  0.3871
 5754TIP3    H138677   3.902   5.741  12.060  1.1619 -0.2761 -0.5674
 5754TIP3    H238678   3.954   5.843  11.960 -1.0293  0.7817 -0.6730
 5755TIP3   OH238679   4.549   1.509   5.489 -0.4281  0.3026 -0.1319
 5755TIP3    H138680   4.561   1.471   5.402  0.0897  0.4012 -0.1113
 5755TIP3    H238681   4.637   1.510   5.526 -0.6437  0.2840  0.3855
 5756TIP3   OH238682   5.608   5.192   0.831  0.0060 -0.0041 -0.2579
 5756TIP3    H138683   5.535   5.253   0.826 -1.8941 -2.2101 -0.9933
 5756TIP3    H238684   5.646   5.207   0.918 -2.2806  0.1903  0.7785
 5757TIP3   OH238685   5.073   1.518   4.773  0.1755 -0.0897 -0.0767
 5757TIP3    H138686   5.003   1.553   4.828 -0.6106 -2.7263  0.7681
 5757TIP3    H238687   5.042   1.431   4.747  1.7230 -0.0212 -2.4942
 5758TIP3   OH238688   0.125   1.935  14.265  0.2571  0.0056 -0.0984
 5758TIP3    H138689   0.178   1.858  14.244 -0.1008  0.1037 -1.5177
 5758TIP3    H238690   0.044   1.922  14.216  0.6448  1.8138 -1.3336
 5759TIP3   OH238691   4.427   6.199  13.179  0.0339  0.4673 -0.5865
 5759TIP3    H138692   4.352   6.233  13.130 -2.3845 -1.4375  1.5151
 5759TIP3    H238693   4.422   6.242  13.264 -0.0695 -1.3233  0.3626
 5760TIP3   OH238694   3.498   1.206  12.182  0.9311  0.2182  0.2496
 5760TIP3    H138695   3.476   1.216  12.275  1.6194  0.4545  0.3881
 5760TIP3    H238696   3.518   1.113  12.172 -1.0071 -0.2100 -0.0791
 5761TIP3   OH238697   2.933   4.716  10.763 -0.0339 -0.0569 -0.0653
 5761TIP3    H138698   2.922   4.626  10.792 -0.8377  0.1532  0.3233
 5761TIP3    H238699   3.015   4.744  10.803  0.4169 -0.7281 -0.5030
 5762TIP3   OH238700   1.688   0.107  15.160 -0.0146  0.3179 -0.7391
 5762TIP3    H138701   1.640   0.166  15.102  0.5204  0.4035 -1.1026
 5762TIP3    H238702   1.680   0.021  15.119  0.4667  0.3991 -1.0149
 5763TIP3   OH238703   1.455   0.557  14.679 -0.2887  0.2398  0.1396
 5763TIP3    H138704   1.537   0.602  14.701  0.5629 -0.5881 -1.2366
 5763TIP3    H238705   1.482   0.475  14.638 -1.8053  0.0754 -0.6069
 5764TIP3   OH238706   6.479   3.731   0.544 -0.1365 -0.5993  0.4307
 5764TIP3    H138707   6.507   3.657   0.490 -0.1403 -1.2088  1.2632
 5764TIP3    H238708   6.552   3.793   0.537  0.9713 -1.7109  1.6884
 5765TIP3   OH238709   3.465   4.173  11.600  0.3661  0.0117  0.7730
 5765TIP3    H138710   3.552   4.176  11.560  0.2100  1.5356  0.4773
 5765TIP3    H238711   3.452   4.081  11.623  1.3110 -0.5521 -0.8061
 5766TIP3   OH238712   1.248   1.859  15.520  0.2226  0.2217 -0.5644
 5766TIP3    H138713   1.283   1.946  15.501  1.4803 -0.1591 -0.0836
 5766TIP3    H238714   1.238   1.858  15.616 -0.1603 -0.0271 -0.6064
 5767TIP3   OH238715   1.205   6.123   3.817 -0.2734  0.0440  0.0333
 5767TIP3    H138716   1.244   6.066   3.883  0.5744  0.9452  0.3428
 5767TIP3    H238717   1.275   6.183   3.793 -0.2425 -0.8593 -2.4437
 5768TIP3   OH238718   4.937   3.671  10.689  0.0892 -1.1442  0.5530
 5768TIP3    H138719   4.852   3.637  10.718 -0.7543  0.9450  0.6923
 5768TIP3    H238720   4.919   3.708  10.603  0.7533 -0.2728  0.7829
 5769TIP3   OH238721   1.428   6.063   2.424 -0.6006  0.5072 -0.3093
 5769TIP3    H138722   1.500   6.040   2.483 -1.6169 -1.5926  0.1906
 5769TIP3    H238723   1.436   6.158   2.414  2.9374  0.2832 -1.2498
 5770TIP3   OH238724   3.898   1.446  13.472 -0.1265 -0.1327  0.0303
 5770TIP3    H138725   3.919   1.354  13.485 -2.3808 -0.6256  0.5490
 5770TIP3    H238726   3.838   1.447  13.397  0.7042  1.0503 -0.6524
 5771TIP3   OH238727   6.452   0.744  17.222 -0.3108  0.0969  0.0536
 5771TIP3    H138728   6.442   0.663  17.273 -1.0520 -0.9199 -1.6097
 5771TIP3    H238729   6.484   0.715  17.136  0.9870  1.7582 -0.0714
 5772TIP3   OH238730   5.965   1.177   1.939 -0.3288  0.0815 -0.4671
 5772TIP3    H138731   5.983   1.266   1.908 -1.6584  0.4551 -0.2044
 5772TIP3    H238732   6.035   1.160   2.002  0.1381  0.8095 -0.7672
 5773TIP3   OH238733   0.321   2.294  13.248 -0.1911  0.6956  0.4586
 5773TIP3    H138734   0.353   2.205  13.233 -0.4160  1.0443 -2.6004
 5773TIP3    H238735   0.368   2.348  13.184 -0.8414  2.6274  1.5182
 5774TIP3   OH238736   4.962   4.659   0.425  0.9180  0.2648 -0.7059
 5774TIP3    H138737   4.965   4.743   0.471 -0.0729 -0.4662  0.7529
 5774TIP3    H238738   4.926   4.598   0.488  4.6154 -2.0547 -0.5195
 5775TIP3   OH238739   2.585   3.326  11.035 -0.2827 -0.2041  0.2063
 5775TIP3    H138740   2.598   3.421  11.024 -0.2947 -0.3267 -1.1148
 5775TIP3    H238741   2.501   3.309  10.992  0.1000 -0.9263 -0.2595
 5776TIP3   OH238742   1.915   0.935   2.021 -0.0527 -0.1337  0.1073
 5776TIP3    H138743   1.998   0.903   1.985 -0.8189 -1.5646 -0.4283
 5776TIP3    H238744   1.878   0.860   2.067 -2.1912 -0.3006 -1.7052
 5777TIP3   OH238745   3.117   2.496  14.828  0.7490  0.1209 -0.0221
 5777TIP3    H138746   3.121   2.548  14.908 -0.2769 -0.9381  0.7569
 5777TIP3    H238747   3.192   2.436  14.835 -0.2067 -1.0240  0.9551
 5778TIP3   OH238748   0.010   0.210  12.795  0.4211  0.5656  0.3639
 5778TIP3    H138749  -0.080   0.227  12.765  0.8010 -0.4038 -1.5493
 5778TIP3    H238750   0.023   0.268  12.869 -2.1096  0.0648  1.3090
 5779TIP3   OH238751   5.756   3.723  11.423 -0.4912  0.2946  0.0194
 5779TIP3    H138752   5.832   3.752  11.373  0.0457  0.2991  0.8183
 5779TIP3    H238753   5.710   3.662  11.364 -0.0449  0.5293 -0.5785
 5780TIP3   OH238754   5.786   6.635  13.535 -0.3878  0.4016  0.2355
 5780TIP3    H138755   5.808   6.543  13.527 -2.0045 -0.1570  1.6811
 5780TIP3    H238756   5.820   6.661  13.621  0.5781  1.3339 -0.4019
 5781TIP3   OH238757   1.108   5.796  12.525 -0.2709  0.5847 -0.0150
 5781TIP3    H138758   1.067   5.869  12.570  0.0698 -0.0117  1.3009
 5781TIP3    H238759   1.145   5.834  12.445 -1.9035  1.4374 -0.3996
 5782TIP3   OH238760   5.765   3.061  13.002  0.2139  0.1271  0.1608
 5782TIP3    H138761   5.681   3.017  12.989  0.4101  0.1413 -1.2522
 5782TIP3    H238762   5.764   3.088  13.094 -1.6443  0.7886 -0.0175
 5783TIP3   OH238763   6.635   1.221  13.190 -0.2026 -0.2021 -0.0708
 5783TIP3    H138764   6.725   1.222  13.223  0.1874 -0.9913 -1.0728
 5783TIP3    H238765   6.606   1.131  13.206 -0.9772  0.1653  0.6492
 5784TIP3   OH238766   0.033   3.847   2.688 -0.2747  0.0257  0.1866
 5784TIP3    H138767   0.057   3.763   2.649 -0.5596  0.3642 -0.7348
 5784TIP3    H238768   0.057   3.838   2.780  0.8903 -0.6083 -0.1601
 5785TIP3   OH238769   6.279   3.262  12.334 -0.1739  0.0993 -0.3795
 5785TIP3    H138770   6.210   3.229  12.391 -0.3169 -1.1059 -1.1928
 5785TIP3    H238771   6.343   3.302  12.393 -1.0163  0.2208  0.4774
 5786TIP3   OH238772   1.733   4.881  15.820 -0.4051  0.4346  0.5686
 5786TIP3    H138773   1.753   4.915  15.733  2.5083  0.7486  1.2689
 5786TIP3    H238774   1.694   4.795  15.804  1.1249 -0.0107 -1.0346
 5787TIP3   OH238775   1.708   3.328   0.862 -0.1974  0.5559  0.0468
 5787TIP3    H138776   1.687   3.281   0.781 -0.1769  1.7657 -0.6994
 5787TIP3    H238777   1.794   3.368   0.845  0.2269  0.0897  1.0178
 5788TIP3   OH238778   1.325   4.007   0.568  0.0737  0.1934 -0.7837
 5788TIP3    H138779   1.366   4.013   0.654 -0.3955  1.0090 -0.6114
 5788TIP3    H238780   1.234   3.985   0.585  0.0351  0.1125 -1.0827
 5789TIP3   OH238781   3.912   0.307   6.705  0.7267  0.0863 -0.2916
 5789TIP3    H138782   3.864   0.229   6.675 -1.7170  1.6156 -0.6734
 5789TIP3    H238783   4.004   0.286   6.689  0.2554 -3.0244  0.4196
 5790TIP3   OH238784   1.165   0.097  16.701 -0.0299 -0.3312  0.7594
 5790TIP3    H138785   1.075   0.068  16.716 -0.5935 -0.1490 -1.7669
 5790TIP3    H238786   1.219   0.023  16.729 -1.0507 -1.0298  0.9301
 5791TIP3   OH238787   3.108   2.371  16.688 -0.3435 -0.3182 -0.0636
 5791TIP3    H138788   3.021   2.405  16.667 -0.0011  1.4199  1.1278
 5791TIP3    H238789   3.158   2.382  16.607 -0.6106  0.9061 -0.0878
 5792TIP3   OH238790   1.926   4.374   1.705 -0.1190 -0.1388 -0.3274
 5792TIP3    H138791   1.986   4.307   1.672  1.2259  0.0269  1.6449
 5792TIP3    H238792   1.939   4.448   1.646  0.3645 -0.6832 -0.9250
 5793TIP3   OH238793   0.056   2.235  16.365 -0.2122 -0.6435  0.6544
 5793TIP3    H138794   0.072   2.225  16.272 -2.6970 -1.2385  0.2402
 5793TIP3    H238795   0.130   2.191  16.407  1.7082  0.8390 -0.9476
 5794TIP3   OH238796   6.125   2.392   5.024 -0.0855 -0.3319 -0.0719
 5794TIP3    H138797   6.137   2.378   4.930  0.5229  1.6617 -0.3486
 5794TIP3    H238798   6.211   2.374   5.061  0.2191  0.8185 -0.1912
 5795TIP3   OH238799   5.088   2.395  13.231 -0.3579  0.5167 -0.6011
 5795TIP3    H138800   5.007   2.369  13.276 -0.4528  1.1410 -0.3889
 5795TIP3    H238801   5.058   2.438  13.151 -0.2601  1.2593 -0.2458
 5796TIP3   OH238802   4.939   0.712   3.025 -0.3379  0.4836  0.2072
 5796TIP3    H138803   4.961   0.804   3.009 -0.7043  0.8979  1.9061
 5796TIP3    H238804   4.852   0.701   2.986 -0.5078  0.9963  0.4306
 5797TIP3   OH238805   5.711   1.700  16.130 -0.3545 -0.0398 -0.1402
 5797TIP3    H138806   5.757   1.781  16.151 -0.2991 -0.6747  2.4544
 5797TIP3    H238807   5.760   1.663  16.056  0.3134  1.6641 -0.5992
 5798TIP3   OH238808   3.242   5.283  13.271 -0.3567  0.0540 -0.5641
 5798TIP3    H138809   3.212   5.373  13.275  1.0936  0.5176  1.4094
 5798TIP3    H238810   3.310   5.284  13.203  0.6573  0.8210  0.4230
 5799TIP3   OH238811   4.741   4.532  13.317 -0.1632 -0.4003 -0.2125
 5799TIP3    H138812   4.774   4.509  13.230  2.6364 -0.9411  0.9138
 5799TIP3    H238813   4.651   4.498  13.318 -0.7060  0.5941 -3.2228
 5800TIP3   OH238814   4.528   3.848   1.204  0.6130  0.5045 -0.5010
 5800TIP3    H138815   4.482   3.911   1.258  0.2159  1.0165 -1.4194
 5800TIP3    H238816   4.542   3.772   1.261 -2.0059  0.0352 -0.3675
 5801TIP3   OH238817   1.043   3.674   0.813 -0.0783 -0.1796 -0.0443
 5801TIP3    H138818   1.054   3.701   0.904  0.0398 -1.4563  0.3406
 5801TIP3    H238819   1.118   3.617   0.796 -1.1420 -1.5534 -0.3003
 5802TIP3   OH238820   1.317   2.089  12.959  0.1967 -0.1821  0.9069
 5802TIP3    H138821   1.299   2.183  12.965 -0.5534 -0.0723 -1.7689
 5802TIP3    H238822   1.388   2.081  12.896 -2.1668 -1.4635 -1.8658
 5803TIP3   OH238823   5.509   3.677   1.967  0.8003 -0.0780  0.3513
 5803TIP3    H138824   5.519   3.592   1.922  0.6638 -0.6041  1.2826
 5803TIP3    H238825   5.588   3.725   1.944 -0.9317  1.2775 -3.6774
 5804TIP3   OH238826   6.643   2.999  12.630  0.7428  0.0512  0.5787
 5804TIP3    H138827   6.575   3.038  12.685 -0.0054  1.5562 -1.2973
 5804TIP3    H238828   6.716   3.061  12.635  0.9387 -0.1673  0.4449
 5805TIP3   OH238829   2.314   2.517  15.277 -0.5387 -0.1809 -0.3128
 5805TIP3    H138830   2.312   2.461  15.355 -0.0587 -0.6967 -0.6585
 5805TIP3    H238831   2.249   2.585  15.295 -1.5356 -1.1506 -0.1010
 5806TIP3   OH238832   2.263   4.099   6.091 -0.3222  0.2604 -1.0652
 5806TIP3    H138833   2.237   4.121   6.180 -1.5036  0.1387 -1.3634
 5806TIP3    H238834   2.357   4.081   6.097 -0.7070 -1.5985  0.5201
 5807TIP3   OH238835   1.696   0.606  14.834  0.3357 -0.6104 -0.0006
 5807TIP3    H138836   1.656   0.639  14.915  0.6414 -0.8954  0.2736
 5807TIP3    H238837   1.790   0.620  14.847  0.2869  0.7479 -0.9550
 5808TIP3   OH238838   4.790   6.255  14.963 -0.5680  0.1292 -0.4524
 5808TIP3    H138839   4.795   6.219  14.875 -1.0842  0.7717 -0.7530
 5808TIP3    H238840   4.846   6.197  15.016 -0.2683 -0.2696 -1.1885
 5809TIP3   OH238841   5.886   1.871  16.247 -0.0058 -0.2659  0.0510
 5809TIP3    H138842   5.899   1.824  16.330  1.4021 -1.5365 -0.8288
 5809TIP3    H238843   5.908   1.962  16.267 -0.2474 -0.4356  1.1897
 5810TIP3   OH238844   5.538   0.811  11.079 -0.3873  0.8136 -0.0836
 5810TIP3    H138845   5.527   0.781  10.988  0.3037 -0.5170  0.2358
 5810TIP3    H238846   5.630   0.794  11.099 -0.5542  0.9849  0.8924
 5811TIP3   OH238847   4.220   0.210  14.246  0.1218  0.5225 -0.4047
 5811TIP3    H138848   4.202   0.165  14.329  0.1703  2.6382  0.8387
 5811TIP3    H238849   4.134   0.238  14.215  0.1708  0.3329 -0.7174
 5812TIP3   OH238850   1.565   1.538   6.165  0.9116  0.5037 -0.4833
 5812TIP3    H138851   1.623   1.596   6.115  0.1965  1.0878 -0.6609
 5812TIP3    H238852   1.479   1.580   6.159  0.2398 -0.8851 -1.1250
 5813TIP3   OH238853   6.307   0.423   4.946  0.0860  0.0983  0.2479
 5813TIP3    H138854   6.290   0.429   4.852  0.5886 -1.2462  0.0506
 5813TIP3    H238855   6.399   0.446   4.956 -0.1283  0.8839  0.5074
 5814TIP3   OH238856   2.881   4.780   6.125  0.1878  0.5873  0.0467
 5814TIP3    H138857   2.826   4.703   6.113 -0.2499  1.1386 -1.8706
 5814TIP3    H238858   2.887   4.791   6.220 -0.0037 -1.5826  0.3588
 5815TIP3   OH238859   2.040   0.762  13.278 -0.6855 -0.5598  0.2722
 5815TIP3    H138860   2.104   0.758  13.349 -0.7757 -3.5924  0.3388
 5815TIP3    H238861   1.955   0.758  13.322 -1.0006  2.2496  0.1207
 5816TIP3   OH238862   5.146   0.380  12.068 -0.4925  0.1612 -0.2709
 5816TIP3    H138863   5.096   0.432  12.130 -0.6461 -0.9739  0.5752
 5816TIP3    H238864   5.137   0.290  12.098 -0.0441 -0.3510 -1.5766
 5817TIP3   OH238865   1.324   5.967  13.275 -0.2256 -0.6769  0.4865
 5817TIP3    H138866   1.333   5.963  13.371 -0.5360  3.3160  0.8546
 5817TIP3    H238867   1.268   6.043  13.260 -0.5001 -1.4158 -2.9093
 5818TIP3   OH238868   5.458   2.817  15.660  0.1634 -0.2760  0.0473
 5818TIP3    H138869   5.446   2.788  15.750 -1.4108 -1.4659 -0.5162
 5818TIP3    H238870   5.517   2.752  15.621  0.3912 -0.0753  0.0500
 5819TIP3   OH238871   3.105   1.367  12.671 -0.1184  0.0189  0.3949
 5819TIP3    H138872   3.032   1.356  12.609  0.1127  2.1431 -0.3110
 5819TIP3    H238873   3.064   1.355  12.757 -1.0029 -0.2743 -0.0468
 5820TIP3   OH238874   2.334   3.430   3.365 -0.0288 -0.0407  0.4489
 5820TIP3    H138875   2.257   3.390   3.324 -0.4422  0.7549  0.4260
 5820TIP3    H238876   2.322   3.415   3.459  0.6602 -1.4160  0.3342
 5821TIP3   OH238877   3.035   5.274   2.859 -0.0179 -0.1244  0.7547
 5821TIP3    H138878   3.003   5.364   2.854  0.9763  0.1965 -0.4864
 5821TIP3    H238879   3.086   5.263   2.779 -1.9576 -2.5539 -0.2598
 5822TIP3   OH238880   1.211   1.610   1.372  0.2826  0.5742 -0.4284
 5822TIP3    H138881   1.227   1.704   1.376  1.2319  0.3843  2.0420
 5822TIP3    H238882   1.299   1.570   1.370 -0.0852 -0.2666 -0.4263
 5823TIP3   OH238883   5.058   1.074   3.643 -0.4736  0.1690  0.2586
 5823TIP3    H138884   4.992   1.129   3.685 -1.3140 -0.3990 -0.2670
 5823TIP3    H238885   5.093   1.021   3.714 -0.0390  0.9981  0.6744
 5824TIP3   OH238886   4.720   3.516   4.469 -0.8228  0.3092 -0.0631
 5824TIP3    H138887   4.779   3.516   4.394 -1.1804  1.1017 -0.3645
 5824TIP3    H238888   4.707   3.424   4.491 -0.8475  0.0629 -1.0848
 5825TIP3   OH238889   2.890   1.829  15.992 -0.3263 -0.0379  0.1010
 5825TIP3    H138890   2.800   1.837  16.025 -0.7430 -1.6134 -0.5766
 5825TIP3    H238891   2.907   1.914  15.950 -1.1874  0.5722  0.9382
 5826TIP3   OH238892   4.295   2.575  12.584  0.1370 -0.0486 -0.3521
 5826TIP3    H138893   4.292   2.665  12.616  1.1985  0.1210 -0.6897
 5826TIP3    H238894   4.292   2.583  12.488 -1.7902 -0.4866 -0.3684
 5827TIP3   OH238895   2.160   5.280  17.138  0.6677 -0.2521  0.4006
 5827TIP3    H138896   2.129   5.371  17.134 -1.2168 -0.8992 -2.1602
 5827TIP3    H238897   2.206   5.267  17.055 -1.0914 -2.2648 -0.3365
 5828TIP3   OH238898   3.708   6.391  13.187 -0.4806  0.1163  0.5694
 5828TIP3    H138899   3.695   6.333  13.262 -1.2244 -1.1208 -0.4699
 5828TIP3    H238900   3.620   6.413  13.158 -0.2002  1.3715  0.6276
 5829TIP3   OH238901   0.263   6.135   1.558  0.9544 -0.0029 -0.2502
 5829TIP3    H138902   0.278   6.227   1.539  2.2463  0.1242  1.2316
 5829TIP3    H238903   0.250   6.095   1.472 -2.8280  1.9997 -0.8369
 5830TIP3   OH238904   5.624   5.012   5.704  0.2410 -0.1954  0.1518
 5830TIP3    H138905   5.688   5.058   5.759  0.5405  1.0589 -1.1969
 5830TIP3    H238906   5.671   4.994   5.623 -1.0067  0.4454 -0.7379
 5831TIP3   OH238907   4.262   3.086   3.682 -0.1077 -0.1347 -1.1350
 5831TIP3    H138908   4.325   3.014   3.675 -0.4577 -0.9254  2.0155
 5831TIP3    H238909   4.309   3.163   3.650  2.5363 -0.7065  0.9619
 5832TIP3   OH238910   0.168   0.967  15.383 -0.6142  0.1828  0.6621
 5832TIP3    H138911   0.251   0.978  15.429 -1.7630 -1.9973  3.6176
 5832TIP3    H238912   0.190   0.917  15.305  1.1403  1.9121 -0.0095
 5833TIP3   OH238913   0.613   3.947  11.301 -0.3450  0.3016  0.2684
 5833TIP3    H138914   0.535   3.924  11.251  0.4411  0.1521 -0.9449
 5833TIP3    H238915   0.671   3.872  11.292  0.1523  0.6219  0.7153
 5834TIP3   OH238916   2.072   4.911   4.531  0.4537  0.1981 -0.5952
 5834TIP3    H138917   2.157   4.889   4.570  1.6702  1.4877 -2.3857
 5834TIP3    H238918   2.093   4.964   4.454 -1.9397 -0.3943 -1.7559
 5835TIP3   OH238919   0.246   1.819   5.359  0.4016 -0.2472 -0.2887
 5835TIP3    H138920   0.230   1.869   5.438  0.1028 -0.2746 -0.3319
 5835TIP3    H238921   0.334   1.782   5.372 -0.9558 -3.2000  1.6544
 5836TIP3   OH238922   3.556   6.215  15.508  0.2553 -0.1152  0.1045
 5836TIP3    H138923   3.476   6.172  15.538 -0.5244  2.0087  1.3023
 5836TIP3    H238924   3.611   6.221  15.586 -0.3565  2.4149  0.4434
 5837TIP3   OH238925   3.628   4.320   5.093 -0.5071 -0.2564  0.0699
 5837TIP3    H138926   3.629   4.369   5.175  1.8521  1.9132 -1.1345
 5837TIP3    H238927   3.717   4.288   5.083 -0.5906  0.0294 -1.9374
 5838TIP3   OH238928   4.809   5.615  10.743  0.1670 -0.1845  0.2669
 5838TIP3    H138929   4.772   5.703  10.751  1.9835  0.8539 -1.6248
 5838TIP3    H238930   4.899   5.624  10.774  0.4451 -1.2972 -0.1695
 5839TIP3   OH238931   2.494   4.265  13.826  0.0600  0.5255  0.3003
 5839TIP3    H138932   2.471   4.249  13.734  0.3434  3.2269 -0.3054
 5839TIP3    H238933   2.419   4.231  13.875  0.7415 -2.7581 -0.6987
 5840TIP3   OH238934   4.430   2.668   4.007 -0.5487 -0.2973  0.0362
 5840TIP3    H138935   4.474   2.653   3.924 -0.9803  0.3965 -0.3249
 5840TIP3    H238936   4.410   2.580   4.040  1.8167 -0.6826  0.6254
 5841TIP3   OH238937   4.414   3.319  16.544 -0.4327  0.5291  0.5021
 5841TIP3    H138938   4.436   3.329  16.451 -2.0526  0.1642  0.0615
 5841TIP3    H238939   4.335   3.371  16.556 -1.9995 -1.8342  0.9657
 5842TIP3   OH238940   4.105   5.404  16.054 -0.3206  0.0449  0.3023
 5842TIP3    H138941   4.194   5.392  16.086 -0.2855  0.0421  0.2050
 5842TIP3    H238942   4.106   5.365  15.966 -0.1990  0.8004 -0.0406
 5843TIP3   OH238943   1.234   5.389   1.076  0.2202 -0.0015 -0.1224
 5843TIP3    H138944   1.317   5.423   1.109  1.2226 -0.8747 -1.6594
 5843TIP3    H238945   1.199   5.459   1.021 -0.3358  0.5546  0.9017
 5844TIP3   OH238946   3.451   3.773   5.971  0.9021  0.0988  0.2832
 5844TIP3    H138947   3.436   3.746   5.881 -0.2091 -1.0478  0.7834
 5844TIP3    H238948   3.544   3.796   5.974  0.7290  1.2193 -1.3961
 5845TIP3   OH238949   5.561   3.379   4.137 -0.2417  0.5002  0.8064
 5845TIP3    H138950   5.539   3.411   4.050 -1.2190 -0.8759  0.5114
 5845TIP3    H238951   5.625   3.442   4.171 -1.2300  2.0878 -0.1626
 5846TIP3   OH238952   5.049   1.018   5.765 -0.3650  0.0624  0.1331
 5846TIP3    H138953   5.124   1.023   5.824 -0.1326 -1.5101  0.0344
 5846TIP3    H238954   4.974   1.040   5.820 -0.1802 -1.5932  1.1261
 5847TIP3   OH238955   2.140   0.799  10.903 -0.2784  0.2119 -0.3309
 5847TIP3    H138956   2.073   0.819  10.838 -1.1962  0.1704  0.5704
 5847TIP3    H238957   2.218   0.847  10.873 -1.4644  2.4774 -0.0075
 5848TIP3   OH238958   0.741   3.242  16.727  0.4847  0.1203  0.0688
 5848TIP3    H138959   0.658   3.229  16.773  0.8466 -1.3100  0.3716
 5848TIP3    H238960   0.769   3.330  16.752 -1.3059  0.9539 -0.6518
 5849TIP3   OH238961   3.636   3.554   3.683  0.3180  0.5203  0.3134
 5849TIP3    H138962   3.604   3.549   3.773 -0.4283  0.5109  0.0561
 5849TIP3    H238963   3.590   3.483   3.638  1.9235 -0.5421  0.2909
 5850TIP3   OH238964   1.563   0.051   2.469  0.2575  0.1079  0.5048
 5850TIP3    H138965   1.530   0.028   2.556 -1.9041  0.6850 -0.0951
 5850TIP3    H238966   1.631   0.116   2.486 -1.1364  1.3313  1.7587
 5851TIP3   OH238967   3.431   1.700  14.691 -0.3247  0.4349 -0.0077
 5851TIP3    H138968   3.373   1.772  14.715 -0.1413  1.4949 -2.5166
 5851TIP3    H238969   3.519   1.735  14.707 -0.2640  0.4128 -0.2925
 5852TIP3   OH238970   1.236   2.507   0.317  0.6092 -0.3070  0.7116
 5852TIP3    H138971   1.305   2.441   0.319  1.3985  0.4915  0.3074
 5852TIP3    H238972   1.193   2.496   0.233 -0.1221 -1.1535  1.1785
 5853TIP3   OH238973   0.995   5.990  12.706 -0.1297  0.2098 -0.8742
 5853TIP3    H138974   0.986   5.973  12.800  0.6563  2.0498 -0.4089
 5853TIP3    H238975   1.088   6.009  12.694 -0.2685  0.2754 -1.9850
 5854TIP3   OH238976   6.325   2.998   4.360  0.3040  0.8627  0.4366
 5854TIP3    H138977   6.361   2.982   4.448 -0.9249 -2.1533  0.4894
 5854TIP3    H238978   6.232   3.016   4.376 -0.8405 -3.4294 -0.2946
 5855TIP3   OH238979   5.447   3.637  10.984 -0.2022  0.0710  0.2835
 5855TIP3    H138980   5.386   3.590  11.041 -1.3523  1.1889  0.0253
 5855TIP3    H238981   5.410   3.725  10.976 -0.1643 -0.0536 -2.2480
 5856TIP3   OH238982   6.171   5.404  11.608 -0.1267  0.6892 -0.8390
 5856TIP3    H138983   6.201   5.338  11.545  3.3024  1.1077  0.1929
 5856TIP3    H238984   6.208   5.486  11.577  1.6863  0.9056  1.6166
 5857TIP3   OH238985   4.213   0.708  13.499  0.3658 -0.4520  0.2812
 5857TIP3    H138986   4.146   0.731  13.435  0.3013  1.8896  1.1182
 5857TIP3    H238987   4.170   0.718  13.584  1.7963  1.3745  0.8479
 5858TIP3   OH238988   6.142   0.979  12.569  1.0245 -0.1238  0.4177
 5858TIP3    H138989   6.182   0.893  12.554  0.4012 -0.2663 -0.5321
 5858TIP3    H238990   6.158   1.027  12.487  2.0867  0.9763  1.2223
 5859TIP3   OH238991   1.427   4.188  12.170 -0.2712  0.1325  0.2176
 5859TIP3    H138992   1.390   4.251  12.232 -2.1458 -0.0253 -0.6543
 5859TIP3    H238993   1.371   4.110  12.179  0.7909 -0.6932 -0.1161
 5860TIP3   OH238994   5.154   4.889  13.844  0.2415  0.3353  0.4413
 5860TIP3    H138995   5.114   4.966  13.885  1.2885  1.2627 -0.2001
 5860TIP3    H238996   5.217   4.926  13.781  1.3666 -1.0447  0.7066
 5861TIP3   OH238997   3.041   2.039   0.045 -0.2170  0.3346  0.0279
 5861TIP3    H138998   2.956   2.050   0.002 -0.9850  0.1405  1.4692
 5861TIP3    H238999   3.057   1.945   0.043  0.8019  0.4772 -1.7251
 5862TIP3   OH239000   5.201   3.075   4.834  0.6898  0.3069 -0.3482
 5862TIP3    H139001   5.137   3.146   4.844 -0.1512 -0.4380 -0.3295
 5862TIP3    H239002   5.204   3.059   4.739 -1.3064 -1.5481 -0.1686
 5863TIP3   OH239003   1.202   5.118  12.422 -0.3428 -0.0775  0.6792
 5863TIP3    H139004   1.154   5.042  12.453 -1.5345 -0.0535 -0.9914
 5863TIP3    H239005   1.150   5.193  12.452  0.1315  0.0498  1.2014
 5864TIP3   OH239006   6.665   4.787  11.917  0.0897  0.8867 -0.1439
 5864TIP3    H139007   6.748   4.833  11.904 -0.4953  2.4185  1.2386
 5864TIP3    H239008   6.628   4.826  11.996 -2.6126  1.2374 -1.4807
 5865TIP3   OH239009   0.177   5.936  15.225  0.7620 -0.2704  0.9048
 5865TIP3    H139010   0.134   5.970  15.147  2.1894 -0.0130  0.2079
 5865TIP3    H239011   0.145   5.846  15.233  0.6426 -0.3131  0.0082
 5866TIP3   OH239012   2.301   1.693   5.580  0.0421  0.0025  0.5960
 5866TIP3    H139013   2.262   1.613   5.545 -0.4935  0.4510  0.1478
 5866TIP3    H239014   2.343   1.665   5.661 -0.5161 -0.6573  0.6726
 5867TIP3   OH239015   0.183   3.776   5.902  0.3698 -0.0038 -0.2086
 5867TIP3    H139016   0.259   3.763   5.847  0.6639 -1.6613  0.5353
 5867TIP3    H239017   0.108   3.761   5.844  0.6351  0.2019 -0.6059
 5868TIP3   OH239018   4.896   3.002   6.734  0.1355 -0.5314 -0.0560
 5868TIP3    H139019   4.825   2.990   6.796 -0.4098 -0.4657 -0.6627
 5868TIP3    H239020   4.943   2.919   6.734  0.5714 -0.3029  0.9667
 5869TIP3   OH239021   2.239   0.982   4.267 -0.8583 -0.2957 -0.4810
 5869TIP3    H139022   2.182   0.974   4.343  1.0026  2.8550  1.4597
 5869TIP3    H239023   2.313   0.924   4.285 -1.1883 -0.8134 -0.7492
 5870TIP3   OH239024   3.423   3.373   4.832 -0.3364  0.1907  0.3193
 5870TIP3    H139025   3.472   3.372   4.750 -0.5610 -0.1853  0.1916
 5870TIP3    H239026   3.347   3.427   4.814 -1.0351 -0.9126 -0.0942
 5871TIP3   OH239027   2.887   3.799   0.167 -0.3952  0.0758 -0.1135
 5871TIP3    H139028   2.826   3.819   0.097  0.9245 -1.1767 -1.6905
 5871TIP3    H239029   2.974   3.806   0.127  0.4951  0.8813  1.8077
 5872TIP3   OH239030   5.518   5.820  12.472  0.2525  0.5888  0.6278
 5872TIP3    H139031   5.578   5.752  12.504  2.0065  2.1747  0.9064
 5872TIP3    H239032   5.437   5.773  12.451  1.3035 -1.5298  1.0283
 5873TIP3   OH239033   5.569   5.810   0.643  0.2866  0.1158 -0.5037
 5873TIP3    H139034   5.503   5.745   0.622  0.6674 -0.0936 -1.0739
 5873TIP3    H239035   5.542   5.846   0.728  0.0149 -0.7011 -0.2418
 5874TIP3   OH239036   4.805   0.044  13.317 -0.4894 -0.6671  0.0885
 5874TIP3    H139037   4.715   0.073  13.307 -0.1059  0.2560 -0.9394
 5874TIP3    H239038   4.841   0.099  13.386 -0.0903  0.5959 -1.0745
 5875TIP3   OH239039   2.913   4.781  16.253  0.4420  0.5016 -0.0852
 5875TIP3    H139040   2.934   4.753  16.164  3.5296  2.4045 -0.1085
 5875TIP3    H239041   2.897   4.700  16.301  0.3688 -0.6580 -1.9876
 5876TIP3   OH239042   1.222   6.356  16.058 -0.1272  0.0271 -0.0934
 5876TIP3    H139043   1.268   6.430  16.018 -0.8268 -0.1042 -1.1756
 5876TIP3    H239044   1.161   6.327  15.991  1.2197 -2.5776 -0.2858
 5877TIP3   OH239045   5.169   2.974   4.556 -0.0332  1.0782  0.0165
 5877TIP3    H139046   5.099   2.911   4.537  1.3969 -0.1412 -1.4759
 5877TIP3    H239047   5.207   2.994   4.471  0.7252  2.6070  0.6701
 5878TIP3   OH239048   5.246   3.870   0.813  0.0659  0.0311  0.2184
 5878TIP3    H139049   5.324   3.899   0.861  0.2764 -0.7264  0.3591
 5878TIP3    H239050   5.271   3.876   0.721  0.4272 -0.5429  0.2710
 5879TIP3   OH239051   2.266   1.832  15.836 -1.0298 -0.2936 -0.0767
 5879TIP3    H139052   2.274   1.790  15.921 -1.6140  1.1322  0.7200
 5879TIP3    H239053   2.354   1.827  15.799 -0.4003  0.3358  1.2481
 5880TIP3   OH239054   3.121   4.610   6.008 -0.5803 -0.7905  0.3493
 5880TIP3    H139055   3.122   4.523   5.968 -0.6171 -0.5640 -0.1458
 5880TIP3    H239056   3.036   4.647   5.983  0.4163  0.3435 -1.5318
 5881TIP3   OH239057   6.411   1.322   4.317  0.6531  0.2975 -0.0959
 5881TIP3    H139058   6.363   1.239   4.329  1.7242 -0.2970  0.2266
 5881TIP3    H239059   6.483   1.300   4.258 -0.6731  1.6870 -2.3716
 5882TIP3   OH239060   4.397   5.815  12.651  0.1728  0.3116 -0.3302
 5882TIP3    H139061   4.480   5.816  12.698  0.4239  0.3603 -0.7717
 5882TIP3    H239062   4.417   5.852  12.565 -0.3072  0.3364 -0.4344
 5883TIP3   OH239063   3.406   3.632  15.751  0.0667  0.0640  0.0999
 5883TIP3    H139064   3.423   3.710  15.698 -1.1660  1.5418  1.7290
 5883TIP3    H239065   3.325   3.597  15.717 -0.8879  1.1895  1.1021
 5884TIP3   OH239066   5.228   4.129  16.147 -0.0022  0.3989 -0.3721
 5884TIP3    H139067   5.163   4.095  16.208  2.6294 -0.8928  1.8915
 5884TIP3    H239068   5.248   4.217  16.179 -0.5634  0.7711 -1.0268
 5885TIP3   OH239069   0.571   3.934   5.213  0.4688 -0.4972 -0.2505
 5885TIP3    H139070   0.601   3.934   5.122  1.2408  0.0112 -0.0005
 5885TIP3    H239071   0.648   3.910   5.264  0.2089 -0.1278  0.3226
 5886TIP3   OH239072   1.188   4.236  12.572  0.0557  0.2060 -0.0908
 5886TIP3    H139073   1.117   4.179  12.543 -1.4759  1.9207  0.1149
 5886TIP3    H239074   1.240   4.181  12.631 -1.1557 -1.0762 -0.1539
 5887TIP3   OH239075   6.098   4.217   1.030 -0.2966  0.0132 -0.2153
 5887TIP3    H139076   6.061   4.160   0.962 -1.0178 -0.1125  0.2647
 5887TIP3    H239077   6.051   4.191   1.110  0.2011  0.4863  0.2346
 5888TIP3   OH239078   2.237   1.385  12.326  0.1031  0.1672 -0.2351
 5888TIP3    H139079   2.155   1.402  12.279 -0.3063  0.3962  0.5462
 5888TIP3    H239080   2.281   1.319  12.273 -0.3529  0.4085 -0.9348
 5889TIP3   OH239081   3.281   6.564  14.895 -0.0190  0.4707 -0.3078
 5889TIP3    H139082   3.326   6.480  14.889 -1.6446 -0.4219 -0.6555
 5889TIP3    H239083   3.293   6.605  14.809  1.3107  0.9267  0.0605
 5890TIP3   OH239084   4.632   3.448   6.153  0.6144 -0.0702  0.6832
 5890TIP3    H139085   4.652   3.421   6.243 -1.3323 -0.3877  1.0747
 5890TIP3    H239086   4.536   3.449   6.149  0.6132  2.2677 -0.6988
 5891TIP3   OH239087   6.210   3.035  13.237  0.1358  0.5987  0.0205
 5891TIP3    H139088   6.209   3.083  13.319  0.6330 -0.7478  0.8542
 5891TIP3    H239089   6.298   2.997  13.232 -0.6119 -1.2661  0.0641
 5892TIP3   OH239090   6.617   3.356  14.423 -0.1511  0.2152  0.5744
 5892TIP3    H139091   6.666   3.324  14.500  1.0589  1.2409  0.2637
 5892TIP3    H239092   6.526   3.356  14.452 -0.1306 -2.4315  0.9486
 5893TIP3   OH239093   4.606   4.217  13.161 -0.4274 -0.2312 -0.4422
 5893TIP3    H139094   4.682   4.275  13.148 -0.9553  0.2254 -1.7675
 5893TIP3    H239095   4.546   4.269  13.214  0.6633 -1.0846  1.7588
 5894TIP3   OH239096   6.492   0.442  11.516  0.0885 -0.3517  0.1492
 5894TIP3    H139097   6.549   0.438  11.439  0.1595 -3.0002  0.2619
 5894TIP3    H239098   6.523   0.372  11.573 -2.0228 -0.5980  1.0977
 5895TIP3   OH239099   5.406   0.661   0.013  0.3365 -0.1255 -0.3395
 5895TIP3    H139100   5.447   0.742   0.043  0.3101 -0.0430 -0.5255
 5895TIP3    H239101   5.478   0.598   0.009 -0.1111 -0.9618  2.7128
 5896TIP3   OH239102   1.207   4.756   4.393  0.2825  0.4167  0.0421
 5896TIP3    H139103   1.243   4.701   4.462  0.2364  1.4129  0.8706
 5896TIP3    H239104   1.128   4.710   4.365  0.0415  0.2396  0.9795
 5897TIP3   OH239105   3.210   4.969   4.036 -0.5576  0.2226 -0.0079
 5897TIP3    H139106   3.256   4.958   4.119 -1.0948  1.1545  0.4287
 5897TIP3    H239107   3.233   5.057   4.007  1.2322 -0.7811 -1.8840
 5898TIP3   OH239108   6.004   5.395   0.978  0.0620 -0.1809  0.0765
 5898TIP3    H139109   5.956   5.399   0.895  0.3226  1.1635 -0.0392
 5898TIP3    H239110   6.055   5.476   0.979  0.7615 -0.6221  1.1362
 5899TIP3   OH239111   1.446   3.312  11.399  0.3929  0.3170 -0.2203
 5899TIP3    H139112   1.488   3.235  11.436  0.9737  0.9084  0.3870
 5899TIP3    H239113   1.462   3.381  11.464 -0.3076  0.8929 -0.6428
 5900TIP3   OH239114   5.322   2.951   5.627  0.3539 -0.1582  0.5323
 5900TIP3    H139115   5.391   3.003   5.586 -0.2924 -0.3124 -0.7839
 5900TIP3    H239116   5.337   2.862   5.595  0.4055 -0.4679  1.3928
 5901TIP3   OH239117   2.245   4.006   4.458 -0.8982  0.3352 -0.0101
 5901TIP3    H139118   2.210   3.941   4.398 -1.6389  2.3846 -1.9681
 5901TIP3    H239119   2.317   4.048   4.409 -0.6224  1.1697  1.0607
 5902TIP3   OH239120   1.960   3.076  12.917  0.3349 -0.5648 -0.3034
 5902TIP3    H139121   1.878   3.064  12.964  0.9960  0.4502  1.1610
 5902TIP3    H239122   2.001   2.990  12.919  0.4208 -0.5126  1.1453
 5903TIP3   OH239123   1.510   2.598  16.181  0.3194 -0.0020  0.1174
 5903TIP3    H139124   1.486   2.667  16.120 -0.4782  0.3551  0.8190
 5903TIP3    H239125   1.500   2.516  16.132 -0.5892  0.2613 -0.1476
 5904TIP3   OH239126   4.356   3.772   1.676  0.1053  0.0908  1.0181
 5904TIP3    H139127   4.285   3.725   1.634  2.7012 -2.1681 -1.1706
 5904TIP3    H239128   4.385   3.714   1.747  2.8419 -1.5332 -1.2332
 5905TIP3   OH239129   1.894   1.172   3.671  0.1650 -0.2489 -0.0878
 5905TIP3    H139130   1.904   1.088   3.717 -2.2074 -0.0991  0.7980
 5905TIP3    H239131   1.835   1.153   3.598 -0.1969  0.6035 -0.0257
 5906TIP3   OH239132   0.698   6.386   1.372  0.0059  0.2641  0.3367
 5906TIP3    H139133   0.641   6.399   1.448 -1.6541  0.8725 -0.9514
 5906TIP3    H239134   0.641   6.402   1.297  1.7469  0.2774 -1.0334
 5907TIP3   OH239135   0.969   4.964   2.474  0.1581  0.6089  0.1928
 5907TIP3    H139136   0.994   4.894   2.413 -1.2409 -1.1055  1.4491
 5907TIP3    H239137   0.924   5.028   2.420  0.2746 -0.1175 -0.8013
 5908TIP3   OH239138   5.833   6.180  16.295  0.2009 -0.2093  0.0644
 5908TIP3    H139139   5.748   6.136  16.287  0.7541 -0.9337 -4.1370
 5908TIP3    H239140   5.897   6.111  16.274  1.6718  0.8997  0.7565
 5909TIP3   OH239141   6.433   1.522   3.999 -0.1714 -0.0375  0.4944
 5909TIP3    H139142   6.402   1.578   3.927  1.7100 -0.4356 -0.6965
 5909TIP3    H239143   6.359   1.464   4.017 -1.5401  1.6626  0.5657
 5910TIP3   OH239144   4.196   0.523   5.894 -0.1522  0.1494 -0.3086
 5910TIP3    H139145   4.280   0.538   5.850  0.4155  1.8966  1.1841
 5910TIP3    H239146   4.132   0.571   5.842  0.6582  2.9747  1.1121
 5911TIP3   OH239147   3.969   6.224   4.686  0.4968 -0.4083 -0.2231
 5911TIP3    H139148   3.895   6.175   4.651 -1.2948  0.7047  1.7979
 5911TIP3    H239149   3.990   6.180   4.769  0.3368  0.8656  0.5080
 5912TIP3   OH239150   5.390   2.654  12.955 -0.1173  0.0536  0.3782
 5912TIP3    H139151   5.354   2.628  12.871  0.9190 -0.2916  0.0263
 5912TIP3    H239152   5.441   2.578  12.984 -0.6402  0.0773  1.4277
 5913TIP3   OH239153   3.717   3.363   1.332  0.1461  0.0354 -0.1530
 5913TIP3    H139154   3.696   3.456   1.339 -0.9470 -0.2180  0.0934
 5913TIP3    H239155   3.736   3.349   1.240 -0.2768  0.3847 -0.2961
 5914TIP3   OH239156   0.342   4.084  13.665 -0.1514 -0.3967 -0.1133
 5914TIP3    H139157   0.287   4.108  13.739 -1.3056 -0.6805 -0.8529
 5914TIP3    H239158   0.378   4.168  13.634 -1.4986  0.0143 -0.6320
 5915TIP3   OH239159   3.181   4.341  16.097  0.0910  0.2595 -0.2004
 5915TIP3    H139160   3.144   4.299  16.020 -1.9853  0.6614  0.5229
 5915TIP3    H239161   3.273   4.315  16.096  0.1179  0.2033 -2.7469
 5916TIP3   OH239162   4.801   5.039   5.601  0.1352 -0.0607  0.2058
 5916TIP3    H139163   4.758   5.005   5.523 -0.0542 -1.4913  0.8890
 5916TIP3    H239164   4.737   5.026   5.671  0.3081  1.1794  0.6141
 5917TIP3   OH239165   0.443   4.165  16.871  0.5139 -0.3763  0.2351
 5917TIP3    H139166   0.493   4.095  16.831  0.9598 -0.1907  0.4552
 5917TIP3    H239167   0.443   4.235  16.806  2.5680  0.5200  1.1141
 5918TIP3   OH239168   0.113   3.327   3.111 -0.7173  0.0342  0.0669
 5918TIP3    H139169   0.021   3.327   3.085 -0.6708 -0.1513 -0.0977
 5918TIP3    H239170   0.111   3.331   3.207 -0.8843  3.6280  0.0494
 5919TIP3   OH239171   5.516   2.584   6.748 -0.6703  0.2571 -0.3845
 5919TIP3    H139172   5.504   2.598   6.654  2.4837  0.6430 -0.8474
 5919TIP3    H239173   5.486   2.666   6.789  0.2476  1.0794 -1.3155
 5920TIP3   OH239174   3.479   1.426  14.647  0.0685 -0.5562 -0.5151
 5920TIP3    H139175   3.567   1.393  14.666  0.5582 -0.5981 -2.6296
 5920TIP3    H239176   3.489   1.520  14.640 -0.4721 -0.3413  1.1215
 5921TIP3   OH239177   0.882   5.564  13.701  0.3821 -0.2037  0.3278
 5921TIP3    H139178   0.934   5.610  13.634 -2.4803 -0.4970 -2.3387
 5921TIP3    H239179   0.882   5.473  13.672 -1.1733 -0.2784  0.5291
 5922TIP3   OH239180   1.044   2.402   1.499 -0.5403 -0.1562  0.2116
 5922TIP3    H139181   1.115   2.448   1.543  0.4350  1.0465 -2.3823
 5922TIP3    H239182   0.964   2.438   1.537  0.2151  0.1054  1.6026
 5923TIP3   OH239183   2.039   1.842   1.361  0.3657  0.7815  0.1540
 5923TIP3    H139184   2.131   1.827   1.338  0.4613  1.8836 -0.2052
 5923TIP3    H239185   2.043   1.899   1.438 -0.0062 -0.4005  1.0772
 5924TIP3   OH239186   4.594   2.164  13.466  0.1875  0.6075 -0.2862
 5924TIP3    H139187   4.648   2.087  13.450 -0.1332  0.0458  1.1969
 5924TIP3    H239188   4.624   2.198  13.550 -1.3011  0.6403  0.2681
 5925TIP3   OH239189   3.543   1.595  13.133  0.7746 -0.4916 -0.4735
 5925TIP3    H139190   3.492   1.666  13.094 -1.3541 -2.6336 -1.8479
 5925TIP3    H239191   3.617   1.582  13.073 -0.7064 -1.6114 -2.1611
 5926TIP3   OH239192   4.492   3.323  11.615 -0.5214  0.4869 -0.0555
 5926TIP3    H139193   4.581   3.352  11.594 -0.1274 -0.6265  0.0069
 5926TIP3    H239194   4.436   3.380  11.564  0.1661  1.9606  0.7622
 5927TIP3   OH239195   5.343   2.588   6.114 -0.0626 -0.2999  0.2481
 5927TIP3    H139196   5.398   2.521   6.153  0.9120  0.4885  0.2595
 5927TIP3    H239197   5.254   2.553   6.120  0.1623 -0.6543  2.2312
 5928TIP3   OH239198   1.248   0.084  12.794 -0.7177  0.4549 -0.1245
 5928TIP3    H139199   1.300   0.140  12.736  1.8787 -0.8147  0.8205
 5928TIP3    H239200   1.200   0.144  12.850  2.2768  1.8454  1.1204
 5929TIP3   OH239201   5.524   4.333  11.429 -0.0629  0.1113  0.2882
 5929TIP3    H139202   5.611   4.325  11.468  0.1301  0.5276 -0.0482
 5929TIP3    H239203   5.541   4.348  11.336 -0.5138 -0.7887  0.0440
 5930TIP3   OH239204   0.673   4.574  11.454 -0.5408 -0.5164 -0.0013
 5930TIP3    H139205   0.628   4.656  11.472  0.9048  0.0901  1.0542
 5930TIP3    H239206   0.749   4.599  11.401  0.3959 -1.0409  1.0688
 5931TIP3   OH239207   3.205   4.755   1.763  0.1227 -0.0021 -0.2590
 5931TIP3    H139208   3.142   4.738   1.693 -1.3375  0.0614  0.9854
 5931TIP3    H239209   3.193   4.683   1.824 -1.4017  1.8144  1.7707
 5932TIP3   OH239210   0.691   5.569  13.171 -0.2346  0.3285 -0.3410
 5932TIP3    H139211   0.632   5.504  13.210 -0.5672  1.1147  0.4812
 5932TIP3    H239212   0.672   5.650  13.218 -0.5046  1.2693 -2.0236
 5933TIP3   OH239213   1.521   5.693   4.179 -0.2757 -0.0423 -0.3119
 5933TIP3    H139214   1.520   5.680   4.084 -1.1419 -0.2252 -0.2848
 5933TIP3    H239215   1.538   5.606   4.215 -2.6041 -0.5102 -0.2343
 5934TIP3   OH239216   3.312   1.035  17.176  0.5529 -0.1969 -0.1318
 5934TIP3    H139217   3.288   1.030  17.269 -0.0498  0.5934 -0.2406
 5934TIP3    H239218   3.229   1.041  17.129  0.8834  0.6138 -0.6398
 5935TIP3   OH239219   5.050   1.447   0.220 -0.1424 -0.1386 -0.1481
 5935TIP3    H139220   5.118   1.430   0.286 -1.6497 -0.6948  1.3322
 5935TIP3    H239221   5.020   1.359   0.195 -1.0304  0.1212 -0.0029
 5936TIP3   OH239222   4.477   2.112   4.160 -0.0635  0.3331 -0.2490
 5936TIP3    H139223   4.423   2.110   4.081  0.5971 -2.8849 -0.7638
 5936TIP3    H239224   4.564   2.136   4.129  0.0062 -0.0860 -0.3916
 5937TIP3   OH239225   0.572   5.456   1.750  0.7336  0.4093 -0.0101
 5937TIP3    H139226   0.621   5.374   1.758 -1.5672 -0.9095  2.4138
 5937TIP3    H239227   0.594   5.505   1.830  1.3883  1.8150 -1.0053
 5938TIP3   OH239228   2.684   3.754  13.101 -0.7184 -0.1223  0.1650
 5938TIP3    H139229   2.686   3.709  13.016 -0.3376 -1.2374  0.7385
 5938TIP3    H239230   2.670   3.683  13.164 -1.0576  0.7043  1.0310
 5939TIP3   OH239231   5.747   6.594   6.472 -0.3996  0.4536  0.3241
 5939TIP3    H139232   5.728   6.678   6.431  1.4056 -0.1350 -1.9341
 5939TIP3    H239233   5.679   6.584   6.539 -1.8332  2.7810 -0.6494
 5940TIP3   OH239234   1.903   3.084  16.415  0.3953 -0.1285 -0.6273
 5940TIP3    H139235   1.948   3.009  16.376  1.7032  0.2077  0.1740
 5940TIP3    H239236   1.896   3.061  16.508  0.1685  0.4501 -0.5007
 5941TIP3   OH239237   1.630   3.261  15.090  0.0790 -0.5785  0.0196
 5941TIP3    H139238   1.715   3.304  15.078  0.5655 -1.4590  0.1553
 5941TIP3    H239239   1.592   3.257  15.003 -0.2674  0.6952  0.1043
 5942TIP3   OH239240   0.396   4.276  11.518 -0.2097 -0.4411 -0.8703
 5942TIP3    H139241   0.475   4.291  11.570  0.3139 -1.1104 -1.4473
 5942TIP3    H239242   0.324   4.282  11.580  0.1927  1.2483 -0.5113
 5943TIP3   OH239243   6.141   3.592   0.517 -0.0192 -0.1297 -0.1283
 5943TIP3    H139244   6.215   3.589   0.577 -0.4867 -1.4600  0.4313
 5943TIP3    H239245   6.121   3.500   0.499 -1.3631  0.2015 -0.4630
 5944TIP3   OH239246   3.632   5.091   5.111 -0.0842 -0.7294 -0.1181
 5944TIP3    H139247   3.712   5.055   5.148 -1.4054 -1.3860  2.3240
 5944TIP3    H239248   3.602   5.024   5.049  1.7035 -0.0071 -1.8850
 5945TIP3   OH239249   1.544   1.702  14.023  0.0932  0.1294 -0.2793
 5945TIP3    H139250   1.456   1.732  13.998  0.7872  0.8958 -1.9735
 5945TIP3    H239251   1.531   1.613  14.055 -1.4480  0.6483  0.6499
 5946TIP3   OH239252   6.093   4.266  16.662 -0.1487 -0.1683 -0.4784
 5946TIP3    H139253   6.008   4.222  16.655  0.0502 -0.8038  0.8092
 5946TIP3    H239254   6.130   4.233  16.744  1.4781 -0.1413 -1.1769
 5947TIP3   OH239255   5.332   0.389   4.502  0.0891 -0.3748 -0.0395
 5947TIP3    H139256   5.421   0.383   4.536  0.3541  0.1277 -0.6279
 5947TIP3    H239257   5.310   0.301   4.473  0.7812 -0.2954 -0.8367
 5948TIP3   OH239258   5.827   2.564   5.312  0.8201 -0.3010  0.3521
 5948TIP3    H139259   5.880   2.485   5.307 -0.3535 -1.0542 -1.0602
 5948TIP3    H239260   5.875   2.622   5.370  1.8312 -1.9520  1.2357
 5949TIP3   OH239261   5.259   3.711   2.228  0.2260 -0.0887  0.0250
 5949TIP3    H139262   5.258   3.647   2.158  0.5734  0.6742 -0.6902
 5949TIP3    H239263   5.167   3.735   2.239 -0.0099 -1.2737  0.8498
 5950TIP3   OH239264   3.313   6.196  12.609 -0.5623  0.0612  0.3826
 5950TIP3    H139265   3.368   6.135  12.657 -1.5399  0.5528  2.2184
 5950TIP3    H239266   3.303   6.157  12.522 -1.1539 -2.3897  1.4868
 5951TIP3   OH239267   6.653   4.950   2.733 -0.4031 -0.5099  0.8650
 5951TIP3    H139268   6.679   5.033   2.774  0.0197 -0.4485  0.4821
 5951TIP3    H239269   6.573   4.925   2.779  0.3683 -0.7377  2.1243
 5952TIP3   OH239270   2.530   2.257  12.221 -0.3525  0.2843  0.3411
 5952TIP3    H139271   2.603   2.305  12.182  0.0379 -0.8096 -0.3318
 5952TIP3    H239272   2.572   2.198  12.284 -0.8572  1.0616  1.4285
 5953TIP3   OH239273   4.248   1.738   3.035  0.1276  0.1437 -0.4164
 5953TIP3    H139274   4.161   1.778   3.045 -0.0408  0.0322 -1.3467
 5953TIP3    H239275   4.251   1.672   3.104 -1.1379 -0.8848 -1.2871
 5954TIP3   OH239276   6.593   5.579   2.378  0.2804  0.5546  0.5295
 5954TIP3    H139277   6.539   5.505   2.407 -1.3373  1.6462  0.4064
 5954TIP3    H239278   6.650   5.597   2.452  0.1529 -0.3221  0.8566
 5955TIP3   OH239279   6.482   6.714  12.071 -0.5766 -0.0252  0.4929
 5955TIP3    H139280   6.513   6.732  12.160 -2.2282  0.4078  1.0049
 5955TIP3    H239281   6.563   6.708  12.019  0.3659  1.1993  1.7333
 5956TIP3   OH239282   3.720   6.218  16.504 -0.1140  0.5039  0.2259
 5956TIP3    H139283   3.781   6.265  16.448  0.7244 -0.7482  0.0547
 5956TIP3    H239284   3.647   6.279  16.517  1.4992  2.3223  1.0937
 5957TIP3   OH239285   4.653   4.965   5.828 -0.4008 -0.0086 -0.0935
 5957TIP3    H139286   4.717   4.933   5.892  0.4842  0.1609 -0.8614
 5957TIP3    H239287   4.595   5.022   5.878  1.0811  1.2007  0.3427
 5958TIP3   OH239288   0.733   3.710  16.749 -0.6013 -0.1953 -0.1414
 5958TIP3    H139289   0.771   3.668  16.672  1.6042  0.6506  0.3986
 5958TIP3    H239290   0.808   3.731  16.805 -2.0071  0.4467  1.6333
 5959TIP3   OH239291   3.453   0.363   5.504  0.3533 -0.2166 -0.3061
 5959TIP3    H139292   3.474   0.423   5.575 -0.0255  0.9115 -1.1297
 5959TIP3    H239293   3.358   0.352   5.509  0.3113 -0.0469 -0.6990
 5960TIP3   OH239294   4.823   1.029  14.156  0.0975  0.1785  0.3975
 5960TIP3    H139295   4.897   1.090  14.151 -0.4113  0.9800  2.1013
 5960TIP3    H239296   4.849   0.956  14.099  0.9556  1.7013 -1.2876
 5961TIP3   OH239297   5.870   2.894   1.154  0.4730  0.1529 -0.9036
 5961TIP3    H139298   5.798   2.834   1.133  1.9142 -1.6162 -1.0830
 5961TIP3    H239299   5.877   2.891   1.249  0.6103 -0.0617 -0.9193
 5962TIP3   OH239300   0.598   4.638   5.364  0.2128  0.5096  0.1211
 5962TIP3    H139301   0.660   4.663   5.295 -1.3133  1.9221 -0.8183
 5962TIP3    H239302   0.516   4.682   5.340 -0.2843  1.4549  3.0818
 5963TIP3   OH239303   3.224   0.564  14.191  0.1377  0.0433 -1.0323
 5963TIP3    H139304   3.156   0.630  14.206  1.7418  1.5691 -0.1756
 5963TIP3    H239305   3.275   0.598  14.118  1.5763  0.2816  0.0509
 5964TIP3   OH239306   2.446   0.807  16.630  0.2559  0.1313 -0.2614
 5964TIP3    H139307   2.403   0.823  16.547  0.0381  4.9774  0.5057
 5964TIP3    H239308   2.376   0.779  16.689 -0.8199  2.2301 -0.4468
 5965TIP3   OH239309   2.332   2.317  13.598  0.6421  0.2261  0.0818
 5965TIP3    H139310   2.255   2.290  13.648 -0.1266  1.9770 -0.0812
 5965TIP3    H239311   2.337   2.255  13.526  0.1505 -0.6696  0.7950
 5966TIP3   OH239312   2.048   3.204   3.952 -0.2853  0.0168  0.0324
 5966TIP3    H139313   2.106   3.170   4.020  1.0532 -0.7714 -1.4259
 5966TIP3    H239314   1.967   3.154   3.962 -0.4960  0.6355  1.6595
 5967TIP3   OH239315   1.059   2.566   4.784  0.0124  0.1784 -0.0917
 5967TIP3    H139316   1.147   2.551   4.819 -0.2211 -0.4415  0.2380
 5967TIP3    H239317   1.065   2.652   4.742  0.7015  0.2657  0.1653
 5968TIP3   OH239318   2.569   2.409  16.537 -0.4088  0.2216  0.3718
 5968TIP3    H139319   2.497   2.467  16.562 -0.2588  0.2257  0.8017
 5968TIP3    H239320   2.584   2.428  16.444  0.6968  2.0468  0.8694
 5969TIP3   OH239321   6.047   1.851  14.315  0.3726 -0.4906  0.7619
 5969TIP3    H139322   6.086   1.936  14.293 -1.2461  1.1082  3.4382
 5969TIP3    H239323   6.032   1.809  14.230  0.8182  2.0901 -0.7247
 5970TIP3   OH239324   2.507   0.116  14.076  0.3956 -0.2840  0.1768
 5970TIP3    H139325   2.424   0.069  14.078 -0.1324  0.6280 -0.0590
 5970TIP3    H239326   2.516   0.153  14.164  0.8881 -0.9316  0.4114
 5971TIP3   OH239327   0.494   2.624   4.014  0.3761 -0.2002 -0.0324
 5971TIP3    H139328   0.568   2.653   4.067  0.3970 -0.1263 -0.1015
 5971TIP3    H239329   0.454   2.553   4.064 -0.2985  0.6192  0.6327
 5972TIP3   OH239330   0.699   5.237   5.178  0.6020 -0.4047  0.0968
 5972TIP3    H139331   0.689   5.152   5.220  0.8880  0.1578  1.3487
 5972TIP3    H239332   0.661   5.299   5.241  1.0646  0.4669 -0.4643
 5973TIP3   OH239333   2.139   3.606  15.816  0.8028  0.2691  0.0945
 5973TIP3    H139334   2.115   3.514  15.823 -1.5472  0.9627  2.5643
 5973TIP3    H239335   2.168   3.616  15.725 -1.2679 -2.3661 -0.9776
 5974TIP3   OH239336   6.217   2.946  12.401 -0.1267  0.4608 -0.1013
 5974TIP3    H139337   6.222   2.966  12.494 -2.3229  1.1939 -0.0924
 5974TIP3    H239338   6.307   2.926  12.376  0.6650  1.2331  1.9495
 5975TIP3   OH239339   6.160   6.704   0.249 -0.6568  0.1522  0.1390
 5975TIP3    H139340   6.252   6.704   0.221 -0.8519 -1.1625 -0.5807
 5975TIP3    H239341   6.131   6.794   0.236  0.5241  0.5892  0.3799
 5976TIP3   OH239342   2.827   1.912   4.696 -0.1278 -0.8403 -0.2074
 5976TIP3    H139343   2.909   1.943   4.657 -0.2741  0.0529  0.1713
 5976TIP3    H239344   2.758   1.958   4.647 -0.3482 -0.5540  0.3594
 5977TIP3   OH239345   6.081   1.259   4.536 -0.5455  0.4056  0.3260
 5977TIP3    H139346   6.046   1.342   4.569  1.0138  1.5117 -0.6687
 5977TIP3    H239347   6.175   1.263   4.557  0.1879  0.3771 -2.5236
 5978TIP3   OH239348   2.770   1.380   5.915 -0.4597 -0.1350  0.3640
 5978TIP3    H139349   2.681   1.416   5.912 -0.5274 -0.2863  0.5334
 5978TIP3    H239350   2.824   1.453   5.946 -0.7983 -0.5476  2.0340
 5979TIP3   OH239351   3.969   0.162   6.389 -0.0514  0.5546 -0.0542
 5979TIP3    H139352   4.010   0.133   6.471 -0.4212  0.5205  0.1186
 5979TIP3    H239353   3.940   0.081   6.347 -1.6047  0.6851  0.6995
 5980TIP3   OH239354   2.184   5.936  15.818 -0.1008  0.0713  0.2291
 5980TIP3    H139355   2.141   5.950  15.733  0.9487  0.9188 -0.1827
 5980TIP3    H239356   2.240   5.860  15.803 -3.3329 -2.8530  1.5327
 5981TIP3   OH239357   1.126   1.554  14.267 -0.0762  0.3384  0.3322
 5981TIP3    H139358   1.212   1.517  14.289 -0.3920  0.5866  2.1273
 5981TIP3    H239359   1.101   1.510  14.186  1.1998 -0.6455  0.4428
 5982TIP3   OH239360   2.889   2.593   3.479 -0.1127  0.4587 -0.1636
 5982TIP3    H139361   2.980   2.566   3.491 -0.1932  0.7098  1.2979
 5982TIP3    H239362   2.885   2.627   3.390  1.0453 -0.2254 -0.4991
 5983TIP3   OH239363   1.499   5.258  14.923 -0.0444  0.0610 -0.1829
 5983TIP3    H139364   1.483   5.269  14.829 -0.5675 -1.8002 -0.3517
 5983TIP3    H239365   1.445   5.325  14.964  0.3745  1.0579 -1.1972
 5984TIP3   OH239366   4.300   0.239   5.902 -0.2261  0.7411  0.2092
 5984TIP3    H139367   4.348   0.163   5.869  0.2814  0.8153  0.7555
 5984TIP3    H239368   4.252   0.272   5.826  1.2670  1.1870 -0.5916
 5985TIP3   OH239369   5.218   3.407  11.443  0.3458 -0.6049  0.7702
 5985TIP3    H139370   5.301   3.453  11.456  0.9182 -1.8032  1.5903
 5985TIP3    H239371   5.240   3.332  11.389 -0.5482 -0.0426 -0.4345
 5986TIP3   OH239372   5.398   2.732  17.169 -0.0256  0.6121  0.1717
 5986TIP3    H139373   5.484   2.692  17.158 -1.4776 -2.3500 -1.3558
 5986TIP3    H239374   5.377   2.767  17.082 -1.2158 -0.5757 -0.0328
 5987TIP3   OH239375   5.417   5.745   0.364  0.6069  0.0611  0.4096
 5987TIP3    H139376   5.422   5.682   0.436 -0.8487  0.2252  0.6993
 5987TIP3    H239377   5.341   5.716   0.313  1.8829 -0.3368 -1.3624
 5988TIP3   OH239378   4.035   5.665  12.652 -0.0813 -0.1128 -0.5023
 5988TIP3    H139379   3.942   5.641  12.650  0.5064 -2.8032  0.9518
 5988TIP3    H239380   4.058   5.664  12.744  1.4852  0.2266 -0.8674
 5989TIP3   OH239381   5.881   2.455   1.527 -0.3102  0.6093 -0.4542
 5989TIP3    H139382   5.866   2.362   1.513  1.7394  0.2134 -0.3521
 5989TIP3    H239383   5.944   2.458   1.600 -1.7433  2.1554  0.7995
 5990TIP3   OH239384   1.586   2.661   1.855 -0.0151 -0.7846 -0.0633
 5990TIP3    H139385   1.605   2.581   1.807  0.3072 -0.2637 -0.8302
 5990TIP3    H239386   1.563   2.725   1.788 -0.4014 -0.2698  0.5445
 5991TIP3   OH239387   1.136   2.879   4.925  0.1377 -0.1638 -0.0464
 5991TIP3    H139388   1.179   2.965   4.923  0.1322 -0.0608  2.1316
 5991TIP3    H239389   1.195   2.823   4.975 -0.5545 -1.0325 -0.1714
 5992TIP3   OH239390   4.048   5.682  10.775 -0.2389 -0.8211  0.0762
 5992TIP3    H139391   4.027   5.610  10.715 -2.2212  0.7257 -1.2368
 5992TIP3    H239392   4.002   5.757  10.738 -1.0596  0.3647  3.2318
 5993TIP3   OH239393   2.874   3.918  13.166 -0.2501  0.2170 -0.2609
 5993TIP3    H139394   2.793   3.877  13.137 -0.8391  0.9211  0.3481
 5993TIP3    H239395   2.944   3.866  13.125 -0.9699 -1.1066  0.1508
 5994TIP3   OH239396   1.032   0.107  14.454 -0.5622  0.3170  0.2201
 5994TIP3    H139397   1.063   0.191  14.423  1.5366 -0.4100  0.1640
 5994TIP3    H239398   1.092   0.084  14.526 -1.0876 -1.1025  0.2500
 5995TIP3   OH239399   6.542   2.127   3.912 -0.3553  0.3027 -0.1975
 5995TIP3    H139400   6.456   2.168   3.918 -0.3224  0.4556 -0.7170
 5995TIP3    H239401   6.597   2.178   3.971 -0.3951  0.8106 -0.5875
 5996TIP3   OH239402   5.123   6.661  14.811 -0.2542 -0.4361  0.1959
 5996TIP3    H139403   5.163   6.747  14.807 -0.2830 -0.3662  1.2985
 5996TIP3    H239404   5.030   6.678  14.826 -0.6235 -0.6210 -1.5630
 5997TIP3   OH239405   0.154   0.239   3.598 -0.1758  0.3220  0.5423
 5997TIP3    H139406   0.200   0.256   3.680 -0.3234  0.8914  0.5064
 5997TIP3    H239407   0.082   0.181   3.623 -0.2345  0.5126  0.8168
 5998TIP3   OH239408   6.142   6.704   3.084  0.0445  0.5453  0.1803
 5998TIP3    H139409   6.159   6.641   3.015 -1.0599  0.2361  0.1593
 5998TIP3    H239410   6.061   6.748   3.057  0.3469  1.3861  0.6018
 5999TIP3   OH239411   2.857   5.622   0.749  0.5686  0.4129  0.1048
 5999TIP3    H139412   2.880   5.575   0.828  0.1464  0.6034  0.3466
 5999TIP3    H239413   2.794   5.689   0.778 -0.7615 -0.4762 -0.6151
 6000TIP3   OH239414   0.924   6.118  13.319 -0.5327 -0.9888 -0.6601
 6000TIP3    H139415   1.019   6.128  13.315 -0.5062 -0.6230  0.3618
 6000TIP3    H239416   0.893   6.138  13.231  0.1445  1.5129 -0.4172
 6001TIP3   OH239417   3.111   0.705   4.996 -0.8118  0.7791  0.1926
 6001TIP3    H139418   3.109   0.630   4.937 -0.1356  0.0452  1.0844
 6001TIP3    H239419   3.131   0.669   5.082  1.7400  2.1712  0.2915
 6002TIP3   OH239420   3.928   2.753   0.296  0.3281  0.4905  0.2807
 6002TIP3    H139421   3.901   2.715   0.213 -0.0115  0.3227  0.4674
 6002TIP3    H239422   3.943   2.846   0.276  1.8693  0.1439 -0.3389
 6003TIP3   OH239423   0.127   2.607   2.010  0.1363  0.0244  0.5612
 6003TIP3    H139424   0.083   2.632   1.929  0.5085  0.8085  0.5881
 6003TIP3    H239425   0.056   2.589   2.072 -0.1499 -0.6236  0.0550
 6004TIP3   OH239426   1.554   6.015   2.663 -0.5424 -0.2481 -0.3403
 6004TIP3    H139427   1.620   5.950   2.643 -0.2429  0.3670 -1.4478
 6004TIP3    H239428   1.527   5.996   2.752  1.5574 -0.1532  0.3590
 6005TIP3   OH239429   4.260   0.337  14.813  0.1036  0.2346 -0.7763
 6005TIP3    H139430   4.264   0.283  14.892 -1.7257 -1.9549 -2.0643
 6005TIP3    H239431   4.304   0.418  14.837  1.6111 -1.2130  1.7628
 6006TIP3   OH239432   6.311   3.459   1.785 -0.1155  0.5092 -0.1997
 6006TIP3    H139433   6.237   3.470   1.725 -0.0305  0.6415 -0.2817
 6006TIP3    H239434   6.324   3.546   1.823  0.7116  0.7625 -1.0255
 6007TIP3   OH239435   1.263   3.574   1.392 -0.2692  0.3079  0.3012
 6007TIP3    H139436   1.260   3.615   1.479  1.3011 -0.6069  0.8326
 6007TIP3    H239437   1.351   3.595   1.359 -0.4950 -0.1999 -0.6432
 6008TIP3   OH239438   0.893   5.197   3.850 -0.2749  0.8206  0.0044
 6008TIP3    H139439   0.976   5.198   3.898 -0.0208  0.1947 -0.4187
 6008TIP3    H239440   0.914   5.235   3.765 -0.5717  1.2648  0.1230
 6009TIP3   OH239441   6.237   0.604   0.300 -0.4532  0.4671 -0.6716
 6009TIP3    H139442   6.208   0.675   0.243  1.2717 -0.2519 -2.5629
 6009TIP3    H239443   6.316   0.570   0.258  1.3432  0.2932  2.4840
 6010TIP3   OH239444   0.548   2.606   0.337 -0.0624  0.0999  0.6057
 6010TIP3    H139445   0.491   2.570   0.269 -0.3516  0.1536  0.8189
 6010TIP3    H239446   0.622   2.642   0.289  0.3384 -0.9592  0.3929
 6011TIP3   OH239447   1.816   0.995  12.089  0.3312 -0.1013 -0.0134
 6011TIP3    H139448   1.869   1.037  12.020 -0.0212  1.5730  0.6752
 6011TIP3    H239449   1.730   0.982  12.048  0.3556  0.1536 -0.1514
 6012TIP3   OH239450   0.700   0.080  11.905  0.1429 -0.2269  0.1766
 6012TIP3    H139451   0.696   0.084  11.809 -2.0971  0.4431  0.2486
 6012TIP3    H239452   0.655  -0.001  11.928 -0.3169  0.1728  0.6987
 6013TIP3   OH239453   6.285   2.840  17.247 -0.1063 -0.0421 -0.0769
 6013TIP3    H139454   6.354   2.902  17.269 -0.7240  0.7194 -0.2295
 6013TIP3    H239455   6.325   2.781  17.184  0.0468  1.1884 -1.1830
 6014TIP3   OH239456   3.995   0.093   0.435  0.6539 -0.8127  0.6443
 6014TIP3    H139457   4.076   0.129   0.470  0.0931  0.5279  0.6517
 6014TIP3    H239458   4.023   0.024   0.375  1.8463  0.1778  0.0046
 6015TIP3   OH239459   4.771   0.380  12.598 -0.9511 -0.1041 -0.6273
 6015TIP3    H139460   4.701   0.426  12.552 -1.2547 -0.6421 -0.7100
 6015TIP3    H239461   4.832   0.355  12.528 -1.2868 -0.7008 -0.7099
 6016TIP3   OH239462   3.070   2.996  11.164  0.5936  0.4467  0.2827
 6016TIP3    H139463   3.118   3.066  11.121  2.5400 -0.5806  0.6615
 6016TIP3    H239464   2.978   3.020  11.154  0.9473  0.7645 -3.5654
 6017TIP3   OH239465   5.226   6.347   0.502 -0.0965  0.1549 -0.0050
 6017TIP3    H139466   5.258   6.436   0.518 -2.4389  0.4971  4.3130
 6017TIP3    H239467   5.303   6.291   0.514  0.4038  1.3424  3.4177
 6018TIP3   OH239468   0.749   1.385  14.594 -0.2936 -0.3150  0.1924
 6018TIP3    H139469   0.837   1.402  14.559 -0.5236 -2.0012 -1.3380
 6018TIP3    H239470   0.763   1.374  14.688  0.9404  0.5362  0.1435
 6019TIP3   OH239471   3.929   1.266   2.236  0.1486 -0.1519  0.6172
 6019TIP3    H139472   3.989   1.192   2.246  1.3154  0.8607  1.4333
 6019TIP3    H239473   3.845   1.233   2.266  0.6028 -1.2090  0.7816
 6020TIP3   OH239474   0.831   5.215  12.428 -0.4260  0.2537  0.1251
 6020TIP3    H139475   0.809   5.122  12.439  0.6981 -0.0387 -0.0227
 6020TIP3    H239476   0.766   5.248  12.366 -0.1337 -0.7180 -0.7207
 6021TIP3   OH239477   3.361   4.085   2.433  0.1696 -0.3101  0.5812
 6021TIP3    H139478   3.427   4.072   2.502  0.3175 -0.3824  0.4276
 6021TIP3    H239479   3.319   4.168   2.455  0.2903 -0.2802  0.6997
 6022TIP3   OH239480   2.017   2.820   5.781 -0.4646 -0.2813 -0.0340
 6022TIP3    H139481   1.967   2.894   5.817  0.8262  0.2191  0.7925
 6022TIP3    H239482   2.008   2.751   5.846 -1.1396 -0.6510 -0.5056
 6023TIP3   OH239483   5.064   2.974   2.048 -0.3931  0.1140  0.6204
 6023TIP3    H139484   5.057   2.879   2.057 -2.1270 -0.0172 -1.2150
 6023TIP3    H239485   5.027   3.009   2.129  0.0477 -0.7704  1.2172
 6024TIP3   OH239486   0.112   3.419   0.979 -0.0168  0.2936  0.3988
 6024TIP3    H139487   0.179   3.482   1.008 -0.6681  1.1225  0.1390
 6024TIP3    H239488   0.072   3.388   1.061 -0.8792  1.5535  0.4842
 6025TIP3   OH239489   1.583   5.083   5.225 -0.2323 -0.6465  0.1874
 6025TIP3    H139490   1.556   5.168   5.259  2.5437  0.0161  1.0203
 6025TIP3    H239491   1.672   5.097   5.194  0.0818 -3.1221 -0.2436
 6026TIP3   OH239492   4.549   1.988  16.129 -0.1125 -0.0280 -0.2187
 6026TIP3    H139493   4.602   2.012  16.053 -1.1646 -1.2699 -1.3897
 6026TIP3    H239494   4.539   2.070  16.177 -0.3219  1.0383 -1.9877
 6027TIP3   OH239495   6.496   2.986  15.847  0.7520 -0.1476 -0.0889
 6027TIP3    H139496   6.526   2.971  15.757  1.7349 -3.4741  0.6323
 6027TIP3    H239497   6.549   2.926  15.900 -3.0688 -1.9817  2.0815
 6028TIP3   OH239498   0.418   2.024   1.587  0.0296 -0.0606  0.0019
 6028TIP3    H139499   0.428   1.945   1.641  0.5673 -0.3689 -0.5346
 6028TIP3    H239500   0.507   2.061   1.583 -0.2058  0.5533  0.2073
 6029TIP3   OH239501   6.527   0.954   5.267 -0.3624  0.4761 -0.6483
 6029TIP3    H139502   6.565   0.945   5.179 -0.1305  0.3110 -0.5337
 6029TIP3    H239503   6.509   0.864   5.294  2.5103  0.2000  0.7475
 6030TIP3   OH239504   4.923   2.833  15.098 -0.0323 -0.2581  0.2306
 6030TIP3    H139505   4.982   2.898  15.060 -0.1647 -0.4306 -0.2684
 6030TIP3    H239506   4.975   2.754  15.104 -0.7225 -0.9432 -1.9384
 6031TIP3   OH239507   5.176   0.826   3.499 -0.2227 -0.9679  0.6512
 6031TIP3    H139508   5.092   0.871   3.510  1.2683  1.8945  1.4903
 6031TIP3    H239509   5.175   0.795   3.409 -1.9830 -0.5539  0.4858
 6032TIP3   OH239510   3.118   2.831  16.843  0.4430 -0.0206 -0.3396
 6032TIP3    H139511   3.183   2.777  16.798 -0.0354 -0.2218 -0.8026
 6032TIP3    H239512   3.140   2.921  16.818  2.1288  0.1710  1.5717
 6033TIP3   OH239513   2.767   5.993  16.175 -0.3052  0.1884  0.0589
 6033TIP3    H139514   2.747   5.917  16.120 -3.1379 -0.8998  2.2946
 6033TIP3    H239515   2.742   6.068  16.121 -0.9533 -0.6936 -0.9186
 6034TIP3   OH239516   2.414   6.704  13.292 -1.0031 -0.3677 -0.1034
 6034TIP3    H139517   2.449   6.676  13.208 -0.6487  0.1713 -0.1414
 6034TIP3    H239518   2.329   6.660  13.299 -0.1825 -1.9465  0.1465
 6035TIP3   OH239519   3.410   4.801  12.303  0.0974 -0.2389  0.6164
 6035TIP3    H139520   3.410   4.765  12.214 -0.5237 -0.3185  0.6489
 6035TIP3    H239521   3.471   4.875  12.299  0.1947 -0.3397  0.1688
 6036TIP3   OH239522   6.540   3.416  11.282 -0.1079  0.0413 -0.8028
 6036TIP3    H139523   6.531   3.491  11.224 -0.8719  1.2799  0.8309
 6036TIP3    H239524   6.452   3.401  11.316 -0.3480 -2.7088 -2.3343
 6037TIP3   OH239525   0.283   1.107  12.675  0.5695 -0.0915  0.0183
 6037TIP3    H139526   0.283   1.015  12.648 -0.7818  0.4456 -1.9930
 6037TIP3    H239527   0.261   1.104  12.768  1.5275 -1.8333  0.2346
 6038TIP3   OH239528   6.491   5.712   2.915  0.6101 -0.3408  0.2227
 6038TIP3    H139529   6.578   5.692   2.949  0.3555 -0.3932  0.8792
 6038TIP3    H239530   6.458   5.780   2.973 -0.0059 -0.7315  0.3429
 6039TIP3   OH239531   2.058   2.285  15.257  0.7352  0.4260  0.9535
 6039TIP3    H139532   2.093   2.304  15.170  0.2970 -1.2581  0.3675
 6039TIP3    H239533   2.011   2.365  15.281  0.6155  0.8303 -0.4782
 6040TIP3   OH239534   6.395   6.081  10.294  0.4321  0.4316  0.3225
 6040TIP3    H139535   6.439   6.165  10.284  0.4047  0.4087 -0.0188
 6040TIP3    H239536   6.378   6.073  10.388 -1.2485  1.6739  0.1777
 6041TIP3   OH239537   4.661   5.805   6.891 -0.0624 -0.1946 -0.1205
 6041TIP3    H139538   4.679   5.834   6.801 -1.2514  0.6964 -0.1026
 6041TIP3    H239539   4.590   5.742   6.881  0.3857 -0.7426  0.1307
 6042TIP3   OH239540   6.600   5.393   0.229 -0.2122  0.2127 -0.1467
 6042TIP3    H139541   6.558   5.317   0.270 -0.8923  0.0387 -1.1285
 6042TIP3    H239542   6.692   5.368   0.223  0.2819  0.9440  2.8178
 6043TIP3   OH239543   3.533   4.998  15.752  0.3510  0.2382 -0.7963
 6043TIP3    H139544   3.480   4.943  15.694  2.0814 -2.8823  0.2984
 6043TIP3    H239545   3.487   4.994  15.836 -0.4135  2.0062 -1.0959
 6044TIP3   OH239546   2.206   1.293  15.259 -0.1884 -0.1133  0.0820
 6044TIP3    H139547   2.296   1.273  15.232  1.1826  2.5603  2.1915
 6044TIP3    H239548   2.167   1.336  15.182  0.7593 -0.1638 -0.4410
 6045TIP3   OH239549   4.201   3.654  12.547 -0.8588 -0.4271 -0.3519
 6045TIP3    H139550   4.261   3.727  12.565 -0.8087 -0.4226 -0.5256
 6045TIP3    H239551   4.154   3.641  12.628  2.0454 -2.9352  1.1470
 6046TIP3   OH239552   1.333   2.592   5.688 -0.0460  0.1192 -0.0066
 6046TIP3    H139553   1.368   2.630   5.769  1.1624  0.7095 -0.7720
 6046TIP3    H239554   1.243   2.568   5.710  0.4562 -0.3630  1.7017
 6047TIP3   OH239555   4.692   5.440  12.993  0.1494 -0.9711 -0.0621
 6047TIP3    H139556   4.601   5.467  12.994  0.4530  0.3187 -1.8047
 6047TIP3    H239557   4.714   5.425  13.085 -1.6652 -0.8595  0.4261
 6048TIP3   OH239558   0.052   3.700  10.347  0.0238 -0.3551 -0.1435
 6048TIP3    H139559  -0.017   3.651  10.302 -2.2853  1.4562  1.2124
 6048TIP3    H239560   0.023   3.791  10.343  0.8250  0.1503  2.9800
 6049TIP3   OH239561   2.039   3.177   1.886 -0.1318 -0.8621  0.0754
 6049TIP3    H139562   2.126   3.199   1.918  0.1905  0.4609 -1.6068
 6049TIP3    H239563   1.983   3.182   1.963  0.4518  3.0160  0.4185
 6050TIP3   OH239564   5.814   4.328   0.470  0.3751 -0.2807  0.2896
 6050TIP3    H139565   5.812   4.295   0.380  0.4369 -0.2659  0.2827
 6050TIP3    H239566   5.822   4.249   0.524 -0.1125 -0.3212  0.3049
 6051TIP3   OH239567   0.135   2.963  15.618  0.2948 -0.1160  0.2693
 6051TIP3    H139568   0.111   3.047  15.658  2.1575  1.5758 -1.8888
 6051TIP3    H239569   0.230   2.957  15.629  0.2191 -1.9320  0.2756
 6052TIP3   OH239570   5.769   1.158  15.060  0.4319  0.1800 -0.2169
 6052TIP3    H139571   5.783   1.064  15.051  0.4001  0.3794 -3.6842
 6052TIP3    H239572   5.857   1.196  15.051  0.1268  0.5546 -1.9739
 6053TIP3   OH239573   5.418   2.752  11.067 -0.4509  0.1502 -0.4423
 6053TIP3    H139574   5.464   2.670  11.083 -0.4672  0.2181 -0.0374
 6053TIP3    H239575   5.460   2.789  10.989 -0.0960  0.0117 -0.3186
 6054TIP3   OH239576   1.905   1.311   2.882 -0.3823  0.4230  0.2481
 6054TIP3    H139577   1.975   1.370   2.852 -1.0570  0.7023 -0.7987
 6054TIP3    H239578   1.839   1.314   2.814 -2.2713  1.5453  2.0174
 6055TIP3   OH239579   3.489   2.571   0.845  0.0864 -0.3349  0.1509
 6055TIP3    H139580   3.466   2.485   0.811 -0.9707 -0.5350  1.2856
 6055TIP3    H239581   3.559   2.555   0.907  1.8886  0.0087 -1.6886
 6056TIP3   OH239582   3.374   2.868  11.001  0.1721  0.1167  0.3652
 6056TIP3    H139583   3.384   2.946  10.946  0.4536 -0.0134  0.2303
 6056TIP3    H239584   3.375   2.901  11.091  1.2390  0.1817  0.3459
 6057TIP3   OH239585   0.939   2.004   1.708 -0.6657  0.3726  0.3093
 6057TIP3    H139586   0.949   1.941   1.780 -1.2945 -2.4002 -1.8602
 6057TIP3    H239587   1.008   2.069   1.723  1.0843 -1.6851  1.8395
 6058TIP3   OH239588   4.666   1.283   1.794 -0.1510  0.2291  0.5187
 6058TIP3    H139589   4.724   1.303   1.721 -1.3521 -1.8260 -1.1300
 6058TIP3    H239590   4.715   1.220   1.847  0.5858  1.4602  1.3537
 6059TIP3   OH239591   1.689   0.279  16.231 -0.2775  0.0195 -0.0334
 6059TIP3    H139592   1.738   0.279  16.313  0.9909 -0.7982 -0.7432
 6059TIP3    H239593   1.724   0.203  16.183 -1.1351  0.3561 -1.2295
 6060TIP3   OH239594   5.710   5.995   1.821 -0.1176 -0.0254  0.3252
 6060TIP3    H139595   5.748   6.062   1.763  0.4516  0.1883  0.9426
 6060TIP3    H239596   5.624   5.976   1.781  0.6982 -0.6759 -1.2110
 6061TIP3   OH239597   3.717   4.926   1.630  0.2989  0.5868 -0.1067
 6061TIP3    H139598   3.706   4.832   1.613 -0.9715  0.8473 -0.8903
 6061TIP3    H239599   3.650   4.947   1.695  0.2128  1.0429 -0.3370
 6062TIP3   OH239600   0.682   0.406   1.836  0.5618  0.3560 -0.1093
 6062TIP3    H139601   0.683   0.342   1.765 -0.8374  0.8290 -0.5944
 6062TIP3    H239602   0.740   0.369   1.902  1.9654 -0.0560 -1.5155
 6063TIP3   OH239603   1.974   2.583   0.453 -0.1285 -0.2872 -0.0888
 6063TIP3    H139604   1.879   2.576   0.449 -0.0104 -2.3333 -0.5396
 6063TIP3    H239605   1.999   2.525   0.525  0.8562 -1.0008 -0.9817
 6064TIP3   OH239606   3.290   0.831  15.208 -0.6031  0.3693  0.8868
 6064TIP3    H139607   3.349   0.816  15.135 -1.6123 -0.7558  0.2726
 6064TIP3    H239608   3.344   0.818  15.286  0.3490  1.0375  0.3542
 6065TIP3   OH239609   2.172   0.514   3.495 -0.1001 -0.0641 -0.1652
 6065TIP3    H139610   2.244   0.514   3.558 -0.6754 -2.0701  0.5519
 6065TIP3    H239611   2.214   0.531   3.411  1.3292 -1.6874  0.1559
 6066TIP3   OH239612   5.910   6.324   2.364  0.0678  0.4074  0.4750
 6066TIP3    H139613   5.944   6.385   2.428  2.5294 -0.0130 -0.3426
 6066TIP3    H239614   5.953   6.347   2.282  0.6901 -2.0417  0.0226
 6067TIP3   OH239615   5.439   2.233   2.421 -0.1250 -0.5306  0.2528
 6067TIP3    H139616   5.399   2.201   2.340  2.2651 -1.2290 -0.7407
 6067TIP3    H239617   5.465   2.323   2.401  1.0466 -0.9123 -0.0187
 6068TIP3   OH239618   3.708   4.771  15.254  0.1443  0.1866  0.4585
 6068TIP3    H139619   3.722   4.694  15.309 -0.7301 -0.3451 -0.0400
 6068TIP3    H239620   3.665   4.834  15.312 -0.7623 -0.3646  0.4000
 6069TIP3   OH239621   5.434   3.325   2.662  0.2544  0.3578 -0.1660
 6069TIP3    H139622   5.379   3.390   2.704 -1.6119 -1.1828 -0.0744
 6069TIP3    H239623   5.486   3.287   2.733 -0.0076  0.4804  0.0912
 6070TIP3   OH239624   5.052   4.649  15.198  0.2393 -0.5973  0.0258
 6070TIP3    H139625   4.979   4.708  15.214  2.1991  1.5575  1.6607
 6070TIP3    H239626   5.097   4.686  15.122 -0.9138 -2.5956 -1.7491
 6071TIP3   OH239627   5.133   0.432   2.690 -0.3687 -0.1352  0.1764
 6071TIP3    H139628   5.197   0.444   2.761 -1.4947  0.1256  1.1856
 6071TIP3    H239629   5.048   0.440   2.733 -1.1745 -3.0424 -0.6346
 6072TIP3   OH239630   2.545   0.742  11.369 -1.0030  0.1063  0.2192
 6072TIP3    H139631   2.499   0.817  11.331 -0.5608  0.1042 -0.3384
 6072TIP3    H239632   2.638   0.759  11.350 -0.5908  0.8282  2.5731
 6073TIP3   OH239633   5.189   4.381   0.459  0.1897  0.3337  0.1868
 6073TIP3    H139634   5.156   4.368   0.548  0.7166  0.5551  0.4188
 6073TIP3    H239635   5.255   4.449   0.468  1.6099 -0.9739 -0.0669
 6074TIP3   OH239636   1.559   3.160  15.646 -0.6355 -0.2202  0.2450
 6074TIP3    H139637   1.558   3.213  15.566  0.8070 -0.4564  0.0460
 6074TIP3    H239638   1.585   3.221  15.715 -1.6803 -0.0643  0.5182
 6075TIP3   OH239639   3.586   1.053   1.325 -0.3472 -0.0565 -0.4079
 6075TIP3    H139640   3.653   0.986   1.342 -0.9213 -0.2211  1.3984
 6075TIP3    H239641   3.592   1.069   1.231  0.9200 -1.4635 -0.6101
 6076TIP3   OH239642   6.338   2.032  15.931 -0.3673 -0.7439  0.1809
 6076TIP3    H139643   6.393   2.009  15.855  0.8242 -0.3533  0.8966
 6076TIP3    H239644   6.281   2.102  15.898  0.4069 -0.3003 -0.2691
 6077TIP3   OH239645   1.065   5.204  13.020 -0.2108  0.0871  0.1765
 6077TIP3    H139646   1.002   5.231  12.954 -0.5624 -1.5407 -0.2040
 6077TIP3    H239647   1.017   5.209  13.103 -0.5848 -0.3749 -0.0131
 6078TIP3   OH239648   3.855   3.456   2.947  0.4082 -0.2863 -0.3780
 6078TIP3    H139649   3.932   3.403   2.929 -0.1043 -1.0638 -0.3004
 6078TIP3    H239650   3.782   3.406   2.913 -0.2603 -0.4206  1.1685
 6079TIP3   OH239651   1.205   3.552   2.254  0.3020 -0.0109  0.2458
 6079TIP3    H139652   1.125   3.603   2.258  0.9597  1.0807 -0.1574
 6079TIP3    H239653   1.274   3.613   2.281  0.9230 -1.1232  1.2906
 6080TIP3   OH239654   1.861   1.362   1.036  0.4340  0.3746  0.6598
 6080TIP3    H139655   1.840   1.417   1.112 -0.7720  0.7491  0.0963
 6080TIP3    H239656   1.791   1.382   0.973  1.3772  0.0436 -0.5328
 6081TIP3   OH239657   4.009   0.977  12.453 -0.0128  0.1290  0.0398
 6081TIP3    H139658   4.078   0.910  12.455  1.1031  1.2616  0.9690
 6081TIP3    H239659   4.056   1.059  12.440 -1.0057  1.1278  2.3132
 6082TIP3   OH239660   2.307   2.979  13.648  0.2581 -0.1862  0.6541
 6082TIP3    H139661   2.260   3.017  13.574  1.2383 -0.6918 -0.2581
 6082TIP3    H239662   2.239   2.956  13.711 -0.5468  0.7940  0.1671
 6083TIP3   OH239663   3.492   3.355  13.553 -0.6764  0.5195 -0.2825
 6083TIP3    H139664   3.527   3.305  13.626 -0.5713  0.9786 -0.0123
 6083TIP3    H239665   3.400   3.367  13.573 -0.7312  0.3259 -0.4122
 6084TIP3   OH239666   2.553   0.341  12.056 -0.1810 -0.4710  0.1805
 6084TIP3    H139667   2.540   0.429  12.022  0.0645 -0.9108 -1.1004
 6084TIP3    H239668   2.618   0.301  11.997 -0.0956 -1.4232  0.8846
 6085TIP3   OH239669   0.455   5.497   5.791 -0.1196 -0.3569  0.5584
 6085TIP3    H139670   0.524   5.541   5.842  1.1902  1.3553 -2.3965
 6085TIP3    H239671   0.380   5.555   5.798  0.8930  1.3460 -1.4521
 6086TIP3   OH239672   0.121   4.151  13.865  0.1182  0.0350  0.1383
 6086TIP3    H139673   0.063   4.108  13.802 -0.1080  0.6279 -0.0567
 6086TIP3    H239674   0.111   4.100  13.946 -1.4078  0.7061  0.3980
 6087TIP3   OH239675   1.042   4.278   5.817 -0.1527 -0.2460 -0.6550
 6087TIP3    H139676   1.079   4.197   5.782  0.5886  0.6084 -1.9610
 6087TIP3    H239677   0.974   4.249   5.877 -0.4450 -1.8372 -1.6766
 6088TIP3   OH239678   1.577   6.483  12.614 -0.0306  0.6728 -0.0600
 6088TIP3    H139679   1.488   6.448  12.600  0.3708 -0.7504  0.7291
 6088TIP3    H239680   1.605   6.511  12.527 -0.4462 -0.9079 -0.7503
 6089TIP3   OH239681   6.434   1.908  11.358 -0.4713 -0.1221 -0.1345
 6089TIP3    H139682   6.481   1.982  11.320 -1.9337  0.2897 -1.2403
 6089TIP3    H239683   6.358   1.895  11.300 -1.3774 -1.1495  1.2123
 6090TIP3   OH239684   3.432   3.087  12.615 -0.1947 -0.7336 -0.2394
 6090TIP3    H139685   3.405   2.997  12.634 -0.8477 -0.5603 -0.3254
 6090TIP3    H239686   3.528   3.083  12.609 -0.3491 -2.0573 -3.4015
 6091TIP3   OH239687   6.460   3.244  11.550  0.3601  0.2378 -0.3189
 6091TIP3    H139688   6.388   3.263  11.489 -1.1268  2.7356  1.9791
 6091TIP3    H239689   6.420   3.188  11.617  0.0813  2.5242  1.5689
 6092TIP3   OH239690   4.041   4.647   4.217 -0.1394 -0.0821  0.3998
 6092TIP3    H139691   4.048   4.646   4.122 -0.2061 -0.9782  0.3958
 6092TIP3    H239692   3.957   4.603   4.235 -0.4886  0.7348  0.8483
 6093TIP3   OH239693   5.723   3.183  15.167 -0.0922  0.2429 -0.0788
 6093TIP3    H139694   5.687   3.119  15.228 -1.0058 -1.1122 -1.9413
 6093TIP3    H239695   5.725   3.265  15.216 -1.1935 -0.6845  1.6056
 6094TIP3   OH239696   4.271   3.495   4.397  0.3818 -0.3040 -0.1607
 6094TIP3    H139697   4.210   3.423   4.388  0.5596 -0.5959  0.8774
 6094TIP3    H239698   4.222   3.572   4.368  0.0002 -0.7413 -0.6999
 6095TIP3   OH239699   4.720   0.660  11.280  0.6081 -0.4126 -0.1875
 6095TIP3    H139700   4.785   0.686  11.214 -1.1609  0.9115 -1.4952
 6095TIP3    H239701   4.717   0.734  11.341  1.0782 -0.9448  0.4981
 6096TIP3   OH239702   2.129   0.777   1.976  0.0025 -0.5184  0.1934
 6096TIP3    H139703   2.155   0.685   1.981 -0.7059 -0.6624  2.2043
 6096TIP3    H239704   2.174   0.818   2.050 -1.7699  0.1776  0.9445
 6097TIP3   OH239705   6.558   0.553   3.775  0.3764 -0.5241  0.4115
 6097TIP3    H139706   6.533   0.503   3.697  1.7241  1.5858 -1.4777
 6097TIP3    H239707   6.502   0.630   3.773  0.7020 -0.2523  1.3166
 6098TIP3   OH239708   5.239   6.237  15.780  0.1209 -0.4773  0.2576
 6098TIP3    H139709   5.209   6.154  15.818  0.3871 -0.6144  0.1708
 6098TIP3    H239710   5.207   6.235  15.690  0.8270 -0.8593  0.0074
 6099TIP3   OH239711   0.156   3.380   2.085  0.4591  0.0269 -0.0525
 6099TIP3    H139712   0.215   3.427   2.025 -1.6677  2.9629 -0.0929
 6099TIP3    H239713   0.097   3.332   2.027 -0.7099  1.7352 -0.3567
 6100TIP3   OH239714   6.563   3.588   1.711 -0.2899  0.2602 -0.1161
 6100TIP3    H139715   6.507   3.594   1.634  1.4714  0.4469 -1.4609
 6100TIP3    H239716   6.513   3.630   1.781 -0.4489  3.7590 -2.0819
 6101TIP3   OH239717   0.407   3.741   5.746  0.1536  0.4507  0.2003
 6101TIP3    H139718   0.383   3.832   5.725 -2.7284  0.2085  2.0279
 6101TIP3    H239719   0.467   3.749   5.820 -0.7361  0.8732  0.8898
 6102TIP3   OH239720   3.556   1.661   5.315  0.3011  0.1858 -0.0102
 6102TIP3    H139721   3.466   1.639   5.294  0.3714 -0.1221  0.0057
 6102TIP3    H239722   3.580   1.601   5.386  0.0754  1.1840  0.9362
 6103TIP3   OH239723   2.734   1.905   1.479  0.1799 -0.5904  0.0087
 6103TIP3    H139724   2.796   1.964   1.437 -0.7848 -0.1474 -0.8466
 6103TIP3    H239725   2.760   1.818   1.449  1.8370 -0.6873  1.5651
 6104TIP3   OH239726   3.709   1.522  12.944 -0.7750  0.1857 -0.1716
 6104TIP3    H139727   3.737   1.435  12.915  0.9115  0.4915  0.3879
 6104TIP3    H239728   3.762   1.582  12.891  0.0066  0.7965  1.2428
 6105TIP3   OH239729   0.021   3.083  14.349 -0.1888 -0.1910  0.1097
 6105TIP3    H139730   0.087   3.038  14.296 -0.5158 -0.0820 -0.3932
 6105TIP3    H239731   0.015   3.171  14.312  0.1643  0.1569  0.8439
 6106TIP3   OH239732   6.245   0.908   6.336  0.0986 -0.2452  0.6771
 6106TIP3    H139733   6.302   0.834   6.319  0.2068 -0.0661  0.2477
 6106TIP3    H239734   6.262   0.969   6.264  0.3366  0.3919  1.2640
 6107TIP3   OH239735   2.360   1.059  12.436 -0.0034  0.4256 -0.5462
 6107TIP3    H139736   2.308   1.068  12.356 -0.9928  1.1131  0.1534
 6107TIP3    H239737   2.322   0.984  12.482 -0.0772  0.6463 -0.2459
 6108TIP3   OH239738   6.264   3.692  14.801  0.4509 -0.5810  0.1896
 6108TIP3    H139739   6.317   3.764  14.767  1.2148 -1.0688  0.3034
 6108TIP3    H239740   6.181   3.732  14.824  0.8840  0.2776  0.3201
 6109TIP3   OH239741   0.982   3.102   6.301  0.1474  0.4217 -0.4212
 6109TIP3    H139742   0.950   3.137   6.384  0.7071 -1.4011  0.6213
 6109TIP3    H239743   1.073   3.131   6.296  0.1770  0.3509 -0.2871
 6110TIP3   OH239744   1.085   4.183  13.394 -0.2946 -0.1213 -0.4735
 6110TIP3    H139745   1.033   4.155  13.470 -0.0573  0.4162 -0.1083
 6110TIP3    H239746   1.056   4.126  13.323 -1.1758 -0.0201 -0.2048
 6111TIP3   OH239747   0.235   1.587   4.464 -0.4597 -0.4428  0.5036
 6111TIP3    H139748   0.235   1.669   4.416 -0.7722 -1.5669 -1.5267
 6111TIP3    H239749   0.165   1.535   4.424 -2.2233 -0.7440  3.5763
 6112TIP3   OH239750   1.479   1.784  12.433  0.3930  0.5079 -0.1834
 6112TIP3    H139751   1.393   1.760  12.398 -0.2479  2.2547  0.0808
 6112TIP3    H239752   1.461   1.858  12.492  1.3414 -2.3835  4.2326
 6113TIP3   OH239753   2.076   6.721  12.051 -0.2982 -0.2531 -0.1002
 6113TIP3    H139754   2.075   6.734  12.146  2.2073 -1.0545  0.1275
 6113TIP3    H239755   1.988   6.691  12.029 -0.4463 -1.8150  2.2778
 6114TIP3   OH239756   3.689   6.369   2.667  0.2223 -0.5116 -0.0226
 6114TIP3    H139757   3.683   6.455   2.710  1.3414 -0.0505 -0.7307
 6114TIP3    H239758   3.614   6.320   2.700  1.7249 -0.7047  3.5283
 6115TIP3   OH239759   4.165   2.328   0.191 -0.0400  0.4295 -0.0467
 6115TIP3    H139760   4.147   2.399   0.130  1.1460  0.6129 -0.2053
 6115TIP3    H239761   4.260   2.328   0.201  0.0222 -1.3533 -0.3022
 6116TIP3   OH239762   6.146   2.516  15.336  0.3706 -0.2868  0.2747
 6116TIP3    H139763   6.165   2.592  15.282 -0.2105 -0.7460 -0.6084
 6116TIP3    H239764   6.079   2.468  15.287 -0.3485 -0.6007  1.5214
 6117TIP3   OH239765   6.733   6.742  17.253 -0.4703  0.1219 -0.1972
 6117TIP3    H139766   6.795   6.784  17.313 -1.9041  2.2037 -0.0617
 6117TIP3    H239767   6.705   6.662  17.299 -0.3664  0.8732  1.2221
 6118TIP3   OH239768   6.321   4.218  11.437  0.2851  0.0575 -0.0724
 6118TIP3    H139769   6.292   4.310  11.440 -1.3667 -0.4439  0.3820
 6118TIP3    H239770   6.359   4.209  11.349 -0.1003  1.0219 -0.3629
 6119TIP3   OH239771   5.112   4.738  16.353 -0.0621 -0.4184  0.6850
 6119TIP3    H139772   5.129   4.810  16.292 -1.6403 -0.7265 -0.1894
 6119TIP3    H239773   5.067   4.672  16.300 -0.9805 -0.9411  2.0547
 6120TIP3   OH239774   2.703   0.642   4.773 -0.0632 -0.1174  0.1363
 6120TIP3    H139775   2.641   0.596   4.830  0.3831  0.2943  0.9610
 6120TIP3    H239776   2.786   0.595   4.786  0.2039  0.4155  0.3725
 6121TIP3   OH239777   3.723   1.648   1.963  0.1292  0.0759 -0.2825
 6121TIP3    H139778   3.794   1.674   2.022 -1.5859 -1.8344  2.9618
 6121TIP3    H239779   3.659   1.719   1.969  0.2659  0.2090 -0.4071
 6122TIP3   OH239780   3.653   2.728   0.449 -0.2510  0.2033  0.1583
 6122TIP3    H139781   3.603   2.728   0.531 -0.4507  1.6096  0.0549
 6122TIP3    H239782   3.703   2.809   0.452 -0.9887  0.7583 -1.5340
 6123TIP3   OH239783   5.132   4.555   0.086  0.1593 -0.1033  0.2268
 6123TIP3    H139784   5.098   4.616   0.020  1.3137 -0.3339 -0.6279
 6123TIP3    H239785   5.159   4.612   0.159 -0.8957  0.1794  0.4071
 6124TIP3   OH239786   4.661   2.545   4.979 -0.6064  0.1692  0.3386
 6124TIP3    H139787   4.658   2.454   4.950 -0.0688 -0.0649  0.9789
 6124TIP3    H239788   4.572   2.578   4.967 -0.6047 -0.1789 -0.7079
 6125TIP3   OH239789   3.240   1.055   0.245  0.7457  0.6877  0.4012
 6125TIP3    H139790   3.158   1.034   0.290 -0.4179  1.1405 -1.4070
 6125TIP3    H239791   3.287   1.112   0.305  0.3061 -0.5552  1.9867
 6126TIP3   OH239792   6.681   0.357  13.215  0.1829  0.0744  0.0983
 6126TIP3    H139793   6.667   0.306  13.294 -0.2202 -1.5415 -0.9651
 6126TIP3    H239794   6.696   0.446  13.246 -0.4779 -0.4153  1.9511
 6127TIP3   OH239795   6.208   6.148   0.279 -0.8991 -0.6520 -0.3902
 6127TIP3    H139796   6.210   6.141   0.184  0.2635  0.1234 -0.4503
 6127TIP3    H239797   6.207   6.058   0.311  1.7344 -1.0109 -1.1326
 6128TIP3   OH239798   3.747   2.227  14.085  0.1143  0.1109  0.2136
 6128TIP3    H139799   3.827   2.187  14.118  1.0714  0.4458 -1.5294
 6128TIP3    H239800   3.701   2.156  14.040 -1.2688 -0.3879  2.3099
 6129TIP3   OH239801   0.431   4.090  14.724  0.3616  0.6189 -0.1399
 6129TIP3    H139802   0.428   4.152  14.652  0.9834 -0.8808 -1.5212
 6129TIP3    H239803   0.486   4.018  14.692 -0.5281 -0.7767  1.2836
 6130TIP3   OH239804   4.769   0.866  16.605  0.5380  0.2250 -0.0871
 6130TIP3    H139805   4.759   0.949  16.652  0.2971  0.5089 -0.6305
 6130TIP3    H239806   4.803   0.805  16.671 -2.4673 -0.1681  1.2375
 6131TIP3   OH239807   4.455   6.651   0.668 -0.1054  0.3283 -0.6815
 6131TIP3    H139808   4.463   6.731   0.616 -0.2679  0.9136  0.1702
 6131TIP3    H239809   4.387   6.671   0.732  2.0762  0.7218  1.6550
 6132TIP3   OH239810   0.667   1.563   5.469 -0.1751 -0.3178 -0.3311
 6132TIP3    H139811   0.677   1.495   5.402 -0.6542 -1.4906  0.7235
 6132TIP3    H239812   0.723   1.534   5.541 -1.2891 -0.2388  0.6033
 6133TIP3   OH239813   5.291   0.251  13.258  0.1033 -0.1024  0.2176
 6133TIP3    H139814   5.314   0.249  13.351  0.0088 -0.0342  0.2436
 6133TIP3    H239815   5.333   0.173  13.221  0.6549  0.2042  0.1928
 6134TIP3   OH239816   0.467   0.362  15.301  0.7002 -0.7332 -0.0093
 6134TIP3    H139817   0.405   0.306  15.255  0.3434 -0.4664  0.1496
 6134TIP3    H239818   0.417   0.402  15.371  0.2724  1.7567 -1.6111
 6135TIP3   OH239819   1.919   4.700  14.001 -0.0678 -0.5440  0.2469
 6135TIP3    H139820   1.841   4.755  13.995  0.6517  0.4619 -0.1472
 6135TIP3    H239821   1.950   4.713  14.090 -0.5880 -1.3030  0.5513
 6136TIP3   OH239822   6.304   5.658  13.220  0.3638  0.7726 -0.6027
 6136TIP3    H139823   6.368   5.597  13.184  0.4911  0.9647 -0.7008
 6136TIP3    H239824   6.350   5.742  13.226  0.3684  0.7305  0.0768
 6137TIP3   OH239825   5.540   4.368  13.703 -0.0359  0.4334 -0.1655
 6137TIP3    H139826   5.582   4.358  13.789 -0.5828  3.1384  0.5014
 6137TIP3    H239827   5.598   4.428  13.656  0.6357 -1.5715 -2.0299
 6138TIP3   OH239828   4.425   4.116   0.029 -0.2368  0.1680  0.7533
 6138TIP3    H139829   4.476   4.168   0.090 -2.0797  0.4489  2.1509
 6138TIP3    H239830   4.415   4.031   0.072 -1.0389  0.1680  0.5944
 6139TIP3   OH239831   0.502   0.367  16.170  0.0012 -0.3138 -0.0439
 6139TIP3    H139832   0.515   0.460  16.186 -0.0136 -0.4931  1.0520
 6139TIP3    H239833   0.590   0.330  16.168  0.0085 -0.2816 -0.5036
 6140TIP3   OH239834   3.177   2.563  10.739 -0.4470 -0.3560  0.5613
 6140TIP3    H139835   3.168   2.489  10.678  0.4326  2.0585 -2.7704
 6140TIP3    H239836   3.087   2.583  10.764 -0.7969 -1.7759  0.5716
 6141TIP3   OH239837   0.753   0.699  14.411 -0.0460  0.0896 -0.2829
 6141TIP3    H139838   0.826   0.669  14.465  1.2561  0.7753 -1.5700
 6141TIP3    H239839   0.764   0.652  14.328 -2.0537 -1.0192  0.0229
 6142TIP3   OH239840   1.996   5.173  11.635  0.1585 -0.2290  0.2555
 6142TIP3    H139841   2.003   5.217  11.550 -1.1815 -2.1393 -0.9196
 6142TIP3    H239842   1.936   5.100  11.620  0.5443 -1.1480  2.6522
 6143TIP3   OH239843   4.972   4.458  11.923 -0.3169  0.3015  0.3113
 6143TIP3    H139844   5.024   4.405  11.984 -1.2237 -1.2846 -0.2217
 6143TIP3    H239845   5.031   4.476  11.850 -0.0909 -0.3117  0.3358
 6144TIP3   OH239846   0.378   5.299  12.229  0.3827  0.0396  0.4181
 6144TIP3    H139847   0.378   5.374  12.169 -2.2946  0.7121  1.1275
 6144TIP3    H239848   0.466   5.300  12.268  0.4292  2.9354  0.4922
 6145TIP3   OH239849   0.749   4.309   5.663  0.1273 -0.4963 -0.6383
 6145TIP3    H139850   0.812   4.354   5.606 -0.3486  0.3901 -0.4781
 6145TIP3    H239851   0.794   4.302   5.747 -0.2727  0.8534 -0.2992
 6146TIP3   OH239852   1.977   4.177   1.054  0.5801 -0.0849 -0.5813
 6146TIP3    H139853   2.044   4.227   1.101  0.0145 -0.1876  0.3623
 6146TIP3    H239854   1.930   4.242   1.002  1.0692  0.0655 -0.8429
 6147TIP3   OH239855   2.302   0.177   4.623  0.3589  0.0116 -0.2629
 6147TIP3    H139856   2.310   0.122   4.701  1.7173 -0.6056 -0.7930
 6147TIP3    H239857   2.370   0.144   4.564 -1.8692 -0.8780 -2.5373
 6148TIP3   OH239858   3.837   1.102  14.523 -0.4112 -0.6977  0.4774
 6148TIP3    H139859   3.766   1.053  14.480 -0.3062 -1.2578  0.9348
 6148TIP3    H239860   3.897   1.035  14.555 -0.0251 -0.2496  0.7089
 6149TIP3   OH239861   2.036   6.450  12.943 -0.4209 -0.0813 -0.0965
 6149TIP3    H139862   2.016   6.357  12.932  0.4226 -0.6092  2.3069
 6149TIP3    H239863   1.993   6.474  13.026  2.9649  0.4728  1.6763
 6150TIP3   OH239864   5.969   5.303   5.182  0.0072 -0.5631 -0.2535
 6150TIP3    H139865   5.955   5.293   5.276 -1.6148  0.4739 -0.3411
 6150TIP3    H239866   5.888   5.270   5.142  0.0738  0.3584 -1.1824
 6151TIP3   OH239867   4.825   0.341   1.676  0.0769  0.2109 -0.3270
 6151TIP3    H139868   4.891   0.368   1.612  3.0284 -2.6031  1.2315
 6151TIP3    H239869   4.866   0.356   1.761 -1.0423 -2.1245  0.7144
 6152TIP3   OH239870   5.110   0.189   1.569  0.1712 -0.3787  0.2342
 6152TIP3    H139871   5.181   0.239   1.608 -0.8400 -0.8098  2.8582
 6152TIP3    H239872   5.129   0.098   1.591 -1.7731 -0.4033  2.2117
 6153TIP3   OH239873   2.410   5.700  11.246 -0.0488 -0.7502 -0.2218
 6153TIP3    H139874   2.325   5.668  11.279 -0.5658  0.3767 -0.4425
 6153TIP3    H239875   2.472   5.675  11.315 -0.8409 -0.0091  0.7872
 6154TIP3   OH239876   3.226   3.639  12.529  0.3236 -0.2396 -0.2259
 6154TIP3    H139877   3.283   3.655  12.604 -1.8018 -1.3112  1.7031
 6154TIP3    H239878   3.245   3.549  12.503  0.0621 -0.3265 -0.1092
 6155TIP3   OH239879   4.004   3.720  12.044 -0.1170 -0.5508  0.3953
 6155TIP3    H139880   4.075   3.784  12.036 -0.0917 -0.5090  0.9117
 6155TIP3    H239881   3.959   3.723  11.960  0.4918 -0.5766  0.0621
 6156TIP3   OH239882   6.054   4.856  11.564  0.1056 -0.1903 -0.8570
 6156TIP3    H139883   5.975   4.836  11.513  0.8511 -0.3306 -1.9751
 6156TIP3    H239884   6.124   4.809  11.520  1.5573  2.9893 -2.2571
 6157TIP3   OH239885   0.650   5.417  16.561 -0.2407 -0.5468  0.5170
 6157TIP3    H139886   0.604   5.383  16.484 -1.0763 -0.1182  0.8203
 6157TIP3    H239887   0.589   5.403  16.634 -0.3092  0.9348  0.7731
 6158TIP3   OH239888   6.266   5.444  14.566  0.2743 -0.7146  0.2075
 6158TIP3    H139889   6.185   5.494  14.570  0.1833 -0.7637 -0.7812
 6158TIP3    H239890   6.261   5.385  14.641  0.2593  0.5389  1.2406
 6159TIP3   OH239891   2.165   6.091  11.072 -0.1175  0.0979  0.0002
 6159TIP3    H139892   2.253   6.062  11.048  0.8060  3.0409 -0.6086
 6159TIP3    H239893   2.179   6.168  11.127 -2.2424  1.5355 -1.2963
 6160TIP3   OH239894   1.080   1.011   2.316  0.0915  0.0646 -0.1041
 6160TIP3    H139895   1.124   0.975   2.393 -0.4524 -0.0894  0.1353
 6160TIP3    H239896   1.087   0.941   2.251  1.0022  0.3869 -0.3756
 6161TIP3   OH239897   4.680   0.167  14.781 -0.4850  0.2034 -0.4215
 6161TIP3    H139898   4.733   0.214  14.717 -0.4444 -0.7735 -1.1277
 6161TIP3    H239899   4.613   0.123  14.729 -1.7691  1.0911  0.4118
 6162TIP3   OH239900   5.924   2.725   1.396 -0.0030  0.0182 -0.0168
 6162TIP3    H139901   6.018   2.722   1.375  0.1053 -1.4077  0.5628
 6162TIP3    H239902   5.904   2.638   1.428 -1.6360  0.1951 -0.4772
 6163TIP3   OH239903   5.052   5.123   5.036  0.1614  0.0674 -0.6588
 6163TIP3    H139904   5.073   5.041   4.992  2.5879  0.9305 -1.2581
 6163TIP3    H239905   5.086   5.191   4.977  0.1394  1.4089  0.8155
 6164TIP3   OH239906   5.480   0.460   3.639 -0.0791 -0.4338  0.0549
 6164TIP3    H139907   5.402   0.427   3.594 -0.8251 -0.2625  1.1518
 6164TIP3    H239908   5.541   0.386   3.640  0.5862 -0.0178 -2.4739
 6165TIP3   OH239909   1.418   4.007   5.108  0.4193  0.0087 -0.7251
 6165TIP3    H139910   1.508   4.017   5.139  0.5308  0.2596 -1.1210
 6165TIP3    H239911   1.374   3.959   5.177  0.2849  1.8664  0.5658
 6166TIP3   OH239912   2.905   6.029  10.317 -0.9444 -0.3115 -0.0558
 6166TIP3    H139913   2.965   5.981  10.373 -0.4424 -1.5199 -1.5864
 6166TIP3    H239914   2.818   5.995  10.340 -0.8014 -0.4245  0.3289
 6167TIP3   OH239915   2.675   1.421  13.925  0.4978  0.3301 -0.4484
 6167TIP3    H139916   2.688   1.403  13.832 -1.3826  1.1093 -0.9112
 6167TIP3    H239917   2.735   1.361  13.970  0.5825 -0.9066 -2.1201
 6168TIP3   OH239918   3.927   3.900   1.636 -0.1513 -0.0378  0.2993
 6168TIP3    H139919   3.921   3.918   1.730  1.5706  0.7125  0.2981
 6168TIP3    H239920   3.891   3.811   1.626 -0.2918 -0.1503  1.6739
 6169TIP3   OH239921   1.628   0.116   0.027 -0.2045 -0.1170 -0.1344
 6169TIP3    H139922   1.697   0.051   0.011  0.9527  0.5919  1.6231
 6169TIP3    H239923   1.576   0.079   0.098 -0.1726  0.3771  0.1579
 6170TIP3   OH239924   5.492   4.095  11.078  0.2508 -0.3461 -0.1070
 6170TIP3    H139925   5.549   4.058  11.145  2.1927  1.1442 -0.8491
 6170TIP3    H239926   5.517   4.187  11.072 -2.3648  0.4279 -0.4068
 6171TIP3   OH239927   6.193   3.456  12.996 -0.0303  0.0159 -0.1831
 6171TIP3    H139928   6.145   3.400  12.935 -1.2371  1.5361 -0.6892
 6171TIP3    H239929   6.126   3.487  13.057  1.1819 -1.7145  2.1976
 6172TIP3   OH239930   4.575   3.652   1.390  0.0813  0.2603 -0.1631
 6172TIP3    H139931   4.659   3.695   1.374 -0.0620  0.6906  0.2005
 6172TIP3    H239932   4.578   3.628   1.483  1.4016 -3.2949 -0.9656
 6173TIP3   OH239933   6.005   0.541  15.686 -0.2325  0.2283  0.0364
 6173TIP3    H139934   5.981   0.536  15.779 -0.1326 -0.1860  0.0425
 6173TIP3    H239935   5.991   0.633  15.663 -0.7656  0.2265  0.3244
 6174TIP3   OH239936   6.776   2.196  13.525 -0.0649 -0.3124 -1.0730
 6174TIP3    H139937   6.844   2.259  13.502  0.7377 -0.7594 -0.0077
 6174TIP3    H239938   6.819   2.135  13.585 -1.2874 -0.8733 -0.7322
 6175TIP3   OH239939   4.342   3.826  16.625 -0.3291 -0.2489  0.3262
 6175TIP3    H139940   4.265   3.770  16.637  0.4431 -1.1715  1.1573
 6175TIP3    H239941   4.399   3.804  16.698  1.3917 -0.6998 -1.0805
 6176TIP3   OH239942   4.052   1.486   5.421  0.2884 -0.6120 -0.0163
 6176TIP3    H139943   3.978   1.465   5.478 -0.7271  0.6245 -0.8201
 6176TIP3    H239944   4.015   1.545   5.355  2.2132  0.8837  0.1599
 6177TIP3   OH239945   4.655   4.889   4.134 -0.2012 -0.5275  0.1103
 6177TIP3    H139946   4.719   4.960   4.124 -0.2121 -0.7998 -2.5486
 6177TIP3    H239947   4.573   4.934   4.154 -0.0486  0.1777 -0.7769
 6178TIP3   OH239948   4.872   3.136   6.133  0.4627  0.0930 -0.3118
 6178TIP3    H139949   4.915   3.089   6.204  1.2883 -0.7785 -1.3555
 6178TIP3    H239950   4.837   3.215   6.174  0.5270 -0.6132  1.1355
 6179TIP3   OH239951   0.641   4.190  16.476 -0.2737  0.3297  0.1593
 6179TIP3    H139952   0.705   4.139  16.525 -1.2167 -0.5596  0.5049
 6179TIP3    H239953   0.693   4.240  16.413  0.8987  0.9193  1.5309
 6180TIP3   OH239954   6.738   4.455   2.267  0.3211 -0.3111  0.1668
 6180TIP3    H139955   6.683   4.398   2.214 -3.1254  1.6894  1.2500
 6180TIP3    H239956   6.761   4.528   2.210  1.1304 -0.7166 -0.0337
 6181TIP3   OH239957   1.014   6.092   5.533 -0.2965  0.3703 -0.9414
 6181TIP3    H139958   1.022   6.179   5.495  1.5456 -0.9922 -4.0410
 6181TIP3    H239959   1.094   6.081   5.585  1.2061 -0.6015 -3.3297
 6182TIP3   OH239960   4.153   2.480   4.269  0.1696  0.0266  0.3809
 6182TIP3    H139961   4.133   2.562   4.314  0.0091  0.1307  0.1169
 6182TIP3    H239962   4.190   2.424   4.338 -1.3651 -0.3050  1.0021
 6183TIP3   OH239963   5.998   0.865  11.708  0.3372 -0.2638  0.6234
 6183TIP3    H139964   6.034   0.846  11.621 -2.9304  0.5854 -1.0586
 6183TIP3    H239965   6.018   0.958  11.723  2.2577 -0.7683  1.6005
 6184TIP3   OH239966   4.325   3.750  13.285  0.2396 -0.2334  0.0446
 6184TIP3    H139967   4.253   3.762  13.223  0.1618  0.4173  0.2527
 6184TIP3    H239968   4.299   3.674  13.337 -0.9779  0.8236  1.0436
 6185TIP3   OH239969   1.600   1.561  13.143  0.0122 -0.0062  0.4291
 6185TIP3    H139970   1.583   1.557  13.237  0.8779 -0.1348  0.5924
 6185TIP3    H239971   1.647   1.480  13.123 -2.6380 -1.3840 -0.6885
 6186TIP3   OH239972   3.860   4.397   5.471 -0.0695  0.8588  0.5456
 6186TIP3    H139973   3.854   4.342   5.549  0.7885  2.4844  1.8238
 6186TIP3    H239974   3.950   4.431   5.472 -0.2335  1.4056 -0.8094
 6187TIP3   OH239975   3.963   2.490   3.007  0.0286  0.2903 -0.0458
 6187TIP3    H139976   3.958   2.540   3.089 -2.3515 -0.6749  0.4733
 6187TIP3    H239977   3.880   2.507   2.963 -0.6744 -2.7323 -0.1057
 6188TIP3   OH239978   3.662   3.074  17.239 -0.7338 -0.3852 -0.1887
 6188TIP3    H139979   3.587   3.095  17.293 -0.1251 -0.1857  0.5891
 6188TIP3    H239980   3.670   2.979  17.245 -0.5616 -0.3463  0.2193
 6189TIP3   OH239981   5.287   3.714   1.133  0.0633  0.1876  0.2037
 6189TIP3    H139982   5.257   3.656   1.063  0.0018  3.0400 -2.3753
 6189TIP3    H239983   5.379   3.689   1.146 -0.9563 -3.1086  2.2303
 6190TIP3   OH239984   2.551   3.347   5.509 -0.1159  0.1156  0.3327
 6190TIP3    H139985   2.629   3.387   5.470 -2.8852  3.1605 -2.6068
 6190TIP3    H239986   2.582   3.262   5.541  4.4950  1.3818 -0.0364
 6191TIP3   OH239987   0.196   1.427  14.748  0.8021 -0.3412  0.2828
 6191TIP3    H139988   0.287   1.401  14.734  0.8483 -0.8483  1.4139
 6191TIP3    H239989   0.165   1.453  14.661  1.6871 -1.2357 -0.3295
 6192TIP3   OH239990   1.845   6.008  13.106 -0.4106 -0.1463  0.4902
 6192TIP3    H139991   1.763   5.958  13.099  0.1884 -1.0514 -0.3304
 6192TIP3    H239992   1.914   5.943  13.094  0.4278  0.6877  0.6633
 6193TIP3   OH239993   2.016   4.996  12.996 -0.6683 -0.0514  0.6541
 6193TIP3    H139994   1.922   5.008  13.012 -0.4800  0.1270  1.6685
 6193TIP3    H239995   2.022   4.910  12.954 -1.3496  0.2479 -0.0682
 6194TIP3   OH239996   4.228   4.316  14.942  0.0917 -0.1250 -0.1584
 6194TIP3    H139997   4.287   4.381  14.979  0.9466 -1.7395  1.4685
 6194TIP3    H239998   4.285   4.260  14.889 -0.2483 -0.7890  0.1717
 6195TIP3   OH239999   5.797   1.576  14.876  0.3967  0.3389  0.1832
 6195TIP3    H140000   5.719   1.552  14.827  0.2712  0.4169  0.3449
 6195TIP3    H240001   5.764   1.612  14.959  0.5993 -1.6749  1.2179
 6196TIP3   OH240002   0.264   1.303   0.025  0.4043  0.2109  0.5391
 6196TIP3    H140003   0.359   1.290   0.032  0.3794 -1.6616 -1.3918
 6196TIP3    H240004   0.240   1.254  -0.054 -2.2429  0.3237  1.2107
 6197TIP3   OH240005   1.735   4.928  11.885 -0.7322  0.2257  0.6921
 6197TIP3    H140006   1.785   5.010  11.893 -2.5378  1.3522  1.1662
 6197TIP3    H240007   1.683   4.939  11.806 -0.5248 -0.7566  0.4076
 6198TIP3   OH240008   6.252   3.353  16.452 -0.5360 -0.0490  0.0182
 6198TIP3    H140009   6.217   3.268  16.478 -0.9115 -0.3828 -1.5340
 6198TIP3    H240010   6.243   3.407  16.531 -3.3487 -0.4932  0.0981
 6199TIP3   OH240011   1.931   4.339   3.516  0.1344  0.1454  0.7367
 6199TIP3    H140012   1.876   4.398   3.465 -0.5952  0.6292  2.0364
 6199TIP3    H240013   1.986   4.397   3.569  0.0416 -0.3286  1.3699
 6200TIP3   OH240014   0.851   0.813  11.067 -0.0584  0.5039  0.6122
 6200TIP3    H140015   0.868   0.811  10.973  1.9456 -0.2121  0.9409
 6200TIP3    H240016   0.774   0.870  11.077  0.0304  1.0281 -1.3879
 6201TIP3   OH240017   2.082   5.383  11.759 -0.4869 -0.1746 -0.0137
 6201TIP3    H140018   2.114   5.382  11.669 -0.9405 -1.3649 -0.1890
 6201TIP3    H240019   2.026   5.305  11.764  0.9748 -1.1823  1.8110
 6202TIP3   OH240020   5.527   1.524  14.794  0.3601 -0.4895  0.0868
 6202TIP3    H140021   5.436   1.515  14.822  0.2019 -0.3545 -0.3807
 6202TIP3    H240022   5.566   1.439  14.816  0.0328 -0.6755 -0.0262
 6203TIP3   OH240023   6.391   1.992  14.210  0.1808  0.4170  0.8587
 6203TIP3    H140024   6.366   1.905  14.180  0.5972  0.9151 -1.0330
 6203TIP3    H240025   6.380   1.988  14.305 -0.3948 -1.4943  0.7575
 6204TIP3   OH240026   5.242   0.527  14.612 -0.0441 -0.3641  0.2159
 6204TIP3    H140027   5.282   0.443  14.636  0.9745  0.0585  0.0383
 6204TIP3    H240028   5.199   0.510  14.529  1.1374 -0.4402 -0.4071
 6205TIP3   OH240029   0.605   0.988   0.969  0.4716 -0.9907  0.3108
 6205TIP3    H140030   0.695   0.999   0.999  0.6508 -0.7671 -0.2847
 6205TIP3    H240031   0.579   1.075   0.938 -0.0614 -0.9817  0.7800
 6206TIP3   OH240032   3.815   3.155   5.420 -0.1867 -0.1540 -0.6769
 6206TIP3    H140033   3.903   3.173   5.389 -0.1552  1.1777  0.1280
 6206TIP3    H240034   3.799   3.221   5.488 -0.3751 -2.6839  1.9484
 6207TIP3   OH240035   0.826   1.248   1.936  0.0736  0.1696  0.2572
 6207TIP3    H140036   0.796   1.182   1.999  1.1060  0.7477  1.3896
 6207TIP3    H240037   0.891   1.202   1.882  1.3338  0.4149  1.5184
 6208TIP3   OH240038   4.203   4.996  10.556 -0.0636  0.1128  0.1240
 6208TIP3    H140039   4.205   5.081  10.512  0.3668  0.6197  1.0917
 6208TIP3    H240040   4.232   5.015  10.645  0.0662 -1.0633  0.3401
 6209TIP3   OH240041   6.221   3.006  12.669 -0.5334  0.2498 -0.1953
 6209TIP3    H140042   6.176   2.976  12.748 -0.1310  1.6855  0.6197
 6209TIP3    H240043   6.306   3.037  12.700 -0.8489  2.0239 -0.9783
 6210TIP3   OH240044   5.243   0.512  12.347 -0.2182  1.0029  0.0296
 6210TIP3    H140045   5.338   0.520  12.336 -0.1528  0.8486  0.4461
 6210TIP3    H240046   5.224   0.566  12.424  0.0134 -1.4986  1.9811
 6211TIP3   OH240047   3.548   5.072   0.911 -0.1401 -0.4865 -0.2426
 6211TIP3    H140048   3.544   5.139   0.843  0.5734 -1.5018 -1.3306
 6211TIP3    H240049   3.527   4.990   0.865 -2.2584 -0.8984  1.2925
 6212TIP3   OH240050   5.771   3.843   1.107 -0.0024 -0.6038  0.5020
 6212TIP3    H140051   5.789   3.845   1.013 -1.9316 -1.1881  0.0865
 6212TIP3    H240052   5.761   3.750   1.128  1.7252 -0.5833  1.5897
 6213TIP3   OH240053   3.221   5.628   3.684  0.2857  0.6642 -0.6724
 6213TIP3    H140054   3.280   5.643   3.758  0.7913  0.7112 -1.0846
 6213TIP3    H240055   3.237   5.538   3.658 -2.3545 -0.5626  1.4475
 6214TIP3   OH240056   1.604   4.872  12.518  0.0382  0.3753 -0.5664
 6214TIP3    H140057   1.536   4.815  12.481  0.0188  1.0045 -1.5324
 6214TIP3    H240058   1.670   4.878  12.449  1.1207 -0.2653  0.3775
 6215TIP3   OH240059   1.185   3.368  11.541  0.2198 -0.7149 -0.4784
 6215TIP3    H140060   1.273   3.333  11.526  0.0329 -0.9926 -0.9363
 6215TIP3    H240061   1.162   3.339  11.629  2.0245  2.3804  1.1916
 6216TIP3   OH240062   6.077   5.977  11.427  0.4303 -0.2920  0.3566
 6216TIP3    H140063   6.155   6.012  11.385  0.3995  0.2850  0.7706
 6216TIP3    H240064   6.096   5.884  11.441  0.7542 -0.3101 -0.1946
 6217TIP3   OH240065   0.296   5.709   5.830 -0.3852 -0.1948 -0.1987
 6217TIP3    H140066   0.264   5.734   5.917 -0.5086  2.0864 -0.8186
 6217TIP3    H240067   0.218   5.681   5.783 -0.8236  1.2475 -0.3860
 6218TIP3   OH240068   1.604   3.952  13.743  0.6580 -0.0630 -0.1248
 6218TIP3    H140069   1.570   3.949  13.654 -1.2576  0.9540  0.5230
 6218TIP3    H240070   1.636   4.041  13.753  0.6021 -0.0898  0.2945
 6219TIP3   OH240071   6.194   2.190  14.478  0.4824 -0.4045 -0.3529
 6219TIP3    H140072   6.220   2.098  14.487  1.1385 -0.1587  0.3264
 6219TIP3    H240073   6.155   2.213  14.563 -2.0907 -0.7715 -1.3409
 6220TIP3   OH240074   1.230   3.252   3.317 -0.3164 -0.2988 -0.3523
 6220TIP3    H140075   1.170   3.223   3.385  0.0315 -0.1328  0.0281
 6220TIP3    H240076   1.259   3.170   3.275 -0.6395 -0.3909 -0.3940
 6221TIP3   OH240077   1.690   6.171  13.452  0.0395  0.0370 -0.0465
 6221TIP3    H140078   1.705   6.196  13.360  2.1129 -0.0430  0.2141
 6221TIP3    H240079   1.725   6.082  13.459 -1.4371 -0.5221  0.5099
 6222TIP3   OH240080   2.722   4.840  14.507  1.1415 -0.7887 -0.1981
 6222TIP3    H140081   2.674   4.912  14.466  0.8120 -0.4377  0.7689
 6222TIP3    H240082   2.734   4.868  14.598 -1.2726 -3.0221  0.9582
 6223TIP3   OH240083   1.680   5.866   2.299 -0.2886 -1.0435 -0.4601
 6223TIP3    H140084   1.767   5.897   2.325 -0.1714 -1.5127 -0.2908
 6223TIP3    H240085   1.660   5.916   2.220  0.3590 -1.2981 -0.7943
 6224TIP3   OH240086   3.975   1.781   3.040  0.0080 -0.0556  0.6224
 6224TIP3    H140087   3.986   1.833   2.960  1.2341 -0.3954  0.5449
 6224TIP3    H240088   3.926   1.704   3.013 -0.5166  0.3371  0.4309
 6225TIP3   OH240089   0.887   0.511   3.286  0.8344 -0.5381  0.2576
 6225TIP3    H140090   0.962   0.500   3.228  0.8110 -2.3743  0.5230
 6225TIP3    H240091   0.847   0.424   3.291 -2.0641  0.5791 -0.8546
 6226TIP3   OH240092   1.141   1.052  10.448  0.4759  0.0407 -0.1725
 6226TIP3    H140093   1.196   1.115  10.399 -0.7514  0.1045 -1.5270
 6226TIP3    H240094   1.200   0.979  10.466  0.6331 -0.7094 -3.1938
 6227TIP3   OH240095   4.567   1.027  16.080  0.1960 -0.4560  0.3146
 6227TIP3    H140096   4.620   0.982  16.145  0.0133 -0.7152  0.2841
 6227TIP3    H240097   4.491   1.059  16.129  0.9692  0.9901  0.6187
 6228TIP3   OH240098   1.181   1.332  15.041  0.6299 -0.4426  0.1084
 6228TIP3    H140099   1.253   1.348  14.980 -0.3960  0.8236 -0.8578
 6228TIP3    H240100   1.116   1.284  14.989  0.0869 -0.0764  0.4340
 6229TIP3   OH240101   4.408   4.674  13.749  0.5322  0.1506  0.3419
 6229TIP3    H140102   4.465   4.712  13.682 -0.8357  0.2414 -0.8152
 6229TIP3    H240103   4.394   4.584  13.719 -0.6394  0.3954  0.1082
 6230TIP3   OH240104   4.652   2.113  15.922 -0.3037  0.4379  0.0914
 6230TIP3    H140105   4.670   2.207  15.926  0.5682  0.3034 -0.2627
 6230TIP3    H240106   4.668   2.089  15.830 -0.2330 -0.1045  0.2372
 6231TIP3   OH240107   3.881   4.682   3.557  0.2498 -0.4370 -0.1339
 6231TIP3    H140108   3.976   4.687   3.549  0.1743  1.8983 -0.4338
 6231TIP3    H240109   3.864   4.715   3.646 -0.3524  1.8509 -1.0245
 6232TIP3   OH240110   1.825   1.829  13.522 -0.2057 -0.1532 -0.1657
 6232TIP3    H140111   1.854   1.860  13.608  2.1514  1.0030 -1.2647
 6232TIP3    H240112   1.794   1.907  13.478  0.2550 -0.3951 -0.9429
 6233TIP3   OH240113   4.591   3.065  11.696 -0.1988 -0.3151  0.0493
 6233TIP3    H140114   4.570   3.146  11.651  1.8194 -0.3679 -1.1297
 6233TIP3    H240115   4.571   2.996  11.632  0.2230 -0.5664  0.1794
 6234TIP3   OH240116   2.332   5.663   3.191  0.4788 -0.1850 -0.0495
 6234TIP3    H140117   2.391   5.626   3.125  0.7872  0.0923  0.0686
 6234TIP3    H240118   2.275   5.591   3.216 -0.2020 -0.0874 -1.2464
 6235TIP3   OH240119   3.674   4.392   1.352 -0.3594  0.0900 -0.3884
 6235TIP3    H140120   3.631   4.326   1.406 -0.7823 -1.2724 -2.2717
 6235TIP3    H240121   3.767   4.374   1.361 -0.2952  1.0466  1.2475
 6236TIP3   OH240122   4.184   3.671   4.668 -0.9575 -0.7046 -0.2744
 6236TIP3    H140123   4.101   3.624   4.667 -1.8686  0.7996  0.8819
 6236TIP3    H240124   4.194   3.705   4.580 -1.0363 -1.7583 -0.7018
 6237TIP3   OH240125   2.949   3.756  16.690  0.6701 -0.1931  0.1401
 6237TIP3    H140126   2.880   3.689  16.694  1.0388 -0.5607  0.3196
 6237TIP3    H240127   3.024   3.712  16.651  1.3187 -0.2432  1.3787
 6238TIP3   OH240128   0.730   6.457  16.154  0.0163 -0.4642 -0.2555
 6238TIP3    H140129   0.655   6.480  16.099  1.2494 -0.0583 -1.8229
 6238TIP3    H240130   0.739   6.363  16.145 -0.1268 -0.4771 -0.2707
 6239TIP3   OH240131   6.063   4.111   3.525 -1.2068 -0.5862 -0.6704
 6239TIP3    H140132   6.031   4.093   3.614 -1.6965 -0.3614 -0.7938
 6239TIP3    H240133   6.046   4.031   3.477  0.9589 -1.4566 -0.0664
 6240TIP3   OH240134   0.291   3.524   0.408 -0.1791 -0.3949 -0.3877
 6240TIP3    H140135   0.248   3.453   0.456 -1.1467  1.0806  1.0590
 6240TIP3    H240136   0.220   3.568   0.362  0.1656  0.4543 -0.1311
 6241TIP3   OH240137   5.836   6.223   5.205  0.4199 -0.0572  0.3793
 6241TIP3    H140138   5.895   6.161   5.163  0.2200  1.2244 -1.9497
 6241TIP3    H240139   5.861   6.308   5.169 -1.1758  0.8518  1.3114
 6242TIP3   OH240140   5.887   1.811   5.044  0.4134 -0.3108 -0.3329
 6242TIP3    H140141   5.858   1.858   4.966 -1.3906 -0.4634  0.2103
 6242TIP3    H240142   5.914   1.725   5.011 -1.5924 -0.8616 -0.6776
 6243TIP3   OH240143   3.592   0.785  15.071  0.0988 -0.5471  0.4161
 6243TIP3    H140144   3.560   0.777  14.981 -0.0372  2.3097  0.1123
 6243TIP3    H240145   3.671   0.839  15.063 -0.8322  1.1819  2.1141
 6244TIP3   OH240146   2.005   6.616  16.084  0.7547  0.1774  0.0694
 6244TIP3    H140147   2.052   6.697  16.102  0.3382  0.8411 -1.6152
 6244TIP3    H240148   2.046   6.581  16.004 -0.3777 -0.2060 -0.3675
 6245TIP3   OH240149   2.929   3.703   4.713 -0.2710  0.4198  0.2443
 6245TIP3    H140150   2.958   3.728   4.625 -0.7208  1.6704  0.4240
 6245TIP3    H240151   2.835   3.688   4.704  0.0337 -1.6200  0.0809
 6246TIP3   OH240152   4.110   0.941   0.124  0.3526 -0.1381  0.4400
 6246TIP3    H140153   4.082   0.869   0.067  0.4513 -0.1880  0.4535
 6246TIP3    H240154   4.031   0.965   0.173  0.1725  0.1581  0.0113
 6247TIP3   OH240155   0.089   5.274   0.116  0.2784 -0.0357  0.3037
 6247TIP3    H140156   0.099   5.326   0.036  0.5870 -1.1062 -0.3852
 6247TIP3    H240157   0.175   5.232   0.127  0.3806  0.4297  1.4586
 6248TIP3   OH240158   5.238   5.903   0.581  0.1441  0.0801 -0.1293
 6248TIP3    H140159   5.148   5.934   0.582  0.3304  0.6372  1.3458
 6248TIP3    H240160   5.242   5.843   0.507 -0.8132  1.8230 -1.6633
 6249TIP3   OH240161   6.430   4.725  10.900 -0.1909 -0.1702 -0.3836
 6249TIP3    H140162   6.402   4.727  10.808 -0.0262 -0.0499 -0.4323
 6249TIP3    H240163   6.390   4.645  10.935 -1.1034  0.3159 -0.2875
 6250TIP3   OH240164   4.142   0.205  13.331 -0.5727  0.5033  0.1055
 6250TIP3    H140165   4.160   0.124  13.379  3.5603 -0.6297 -2.7631
 6250TIP3    H240166   4.173   0.274  13.389 -0.0537 -0.3796  0.9139
 6251TIP3   OH240167   1.024   1.935   2.315  0.6631 -0.4849 -0.0163
 6251TIP3    H140168   1.051   1.889   2.395  0.5407 -0.9226 -0.2266
 6251TIP3    H240169   1.065   2.021   2.322  0.3806 -0.3978  0.6818
 6252TIP3   OH240170   0.565   3.188  13.127  0.4236 -0.1973 -0.6356
 6252TIP3    H140171   0.586   3.236  13.207  0.6434 -0.1054 -0.7462
 6252TIP3    H240172   0.648   3.148  13.101  0.3563 -0.2095 -0.8304
 6253TIP3   OH240173   1.020   6.463   2.230  0.3599 -0.0055  0.2737
 6253TIP3    H140174   0.940   6.507   2.257  0.9018 -0.1746  2.3153
 6253TIP3    H240175   0.996   6.417   2.149 -1.8368 -0.6969  1.2336
 6254TIP3   OH240176   2.716   5.871  10.462  0.2498  0.1010 -0.1569
 6254TIP3    H140177   2.728   5.800  10.525  0.8938 -1.2242 -1.6895
 6254TIP3    H240178   2.625   5.862  10.433 -0.0073  0.6296  0.4605
 6255TIP3   OH240179   5.632   1.377  11.083  0.0076  0.2119  0.0647
 6255TIP3    H140180   5.628   1.303  11.021  0.6838  1.3188 -1.3721
 6255TIP3    H240181   5.699   1.434  11.047  0.2701  1.0202  1.7512
 6256TIP3   OH240182   4.480   5.544   3.514 -0.8257 -0.0428  0.1661
 6256TIP3    H140183   4.546   5.606   3.485 -0.4637  0.6448  2.3010
 6256TIP3    H240184   4.406   5.598   3.541 -1.4045 -0.6860 -0.0987
 6257TIP3   OH240185   6.270   5.861  14.712  0.3496 -0.4610 -0.3867
 6257TIP3    H140186   6.247   5.784  14.765 -1.1049  0.0199 -0.2846
 6257TIP3    H240187   6.229   5.845  14.627 -1.4282  0.9228  0.1440
 6258TIP3   OH240188   4.923   1.315  12.748  0.1379 -0.2420  0.0860
 6258TIP3    H140189   4.909   1.273  12.833  2.0273  0.2773  0.7156
 6258TIP3    H240190   4.993   1.263  12.707  1.6082  1.4628  0.3260
 6259TIP3   OH240191   4.311   3.874   3.148  0.1859 -0.5891 -0.0361
 6259TIP3    H140192   4.273   3.871   3.235  3.2412  0.3644  1.4778
 6259TIP3    H240193   4.239   3.901   3.091 -1.3830  1.1309  2.5657
 6260TIP3   OH240194   5.126   2.422   2.229  0.0681 -0.2075 -0.5965
 6260TIP3    H140195   5.212   2.396   2.196 -0.2148 -0.2141 -1.3430
 6260TIP3    H240196   5.070   2.346   2.212 -0.8463  0.9048 -3.0930
 6261TIP3   OH240197   3.627   1.473  16.249 -0.4200 -0.2746  0.0892
 6261TIP3    H140198   3.577   1.451  16.171 -0.9119 -0.7418  0.5359
 6261TIP3    H240199   3.565   1.519  16.306  0.3642  1.5662 -0.4728
 6262TIP3   OH240200   3.002   0.138  15.408  0.2007 -0.8073  0.1532
 6262TIP3    H140201   2.985   0.225  15.372  0.2260 -1.4740 -1.5789
 6262TIP3    H240202   2.994   0.149  15.502 -0.3964  0.9396 -0.0641
 6263TIP3   OH240203   3.609   4.376  13.161 -1.1394  0.1085  0.0388
 6263TIP3    H140204   3.558   4.457  13.152 -0.6612  0.4676  0.5201
 6263TIP3    H240205   3.651   4.384  13.246  0.1943  0.0823 -0.5982
 6264TIP3   OH240206   1.134   6.674  13.775  0.2030 -0.3084  0.4901
 6264TIP3    H140207   1.071   6.603  13.759 -1.7468  1.2077  1.0104
 6264TIP3    H240208   1.104   6.745  13.719  1.9492  0.2254  0.1963
 6265TIP3   OH240209   2.308   6.616   4.623 -0.0000 -0.2864 -0.4157
 6265TIP3    H140210   2.256   6.644   4.699 -0.2775 -0.9841 -0.3467
 6265TIP3    H240211   2.243   6.599   4.555  0.0670 -1.7906 -0.1323
 6266TIP3   OH240212   1.895   3.428  10.966  0.0502  0.0259  0.4179
 6266TIP3    H140213   1.909   3.334  10.958 -0.0620  0.0274  0.1994
 6266TIP3    H240214   1.802   3.440  10.947 -0.1327  0.0800  1.3102
 6267TIP3   OH240215   6.369   4.440   0.339 -0.0585  0.5078  0.0774
 6267TIP3    H140216   6.391   4.524   0.300 -1.6797  0.0261 -2.0978
 6267TIP3    H240217   6.439   4.381   0.310 -0.2635  0.5781 -0.5913
 6268TIP3   OH240218   1.279   2.065   3.172 -0.1329 -0.2898  0.5899
 6268TIP3    H140219   1.228   2.064   3.253 -2.0190  1.2306 -0.4840
 6268TIP3    H240220   1.228   2.012   3.111 -0.0181  0.5520 -0.2681
 6269TIP3   OH240221   5.064   6.226   5.132 -0.0615  0.7529 -0.2307
 6269TIP3    H140222   5.153   6.195   5.120  0.6058  2.9079 -1.3710
 6269TIP3    H240223   5.013   6.183   5.063  0.4069  0.6696 -0.5245
 6270TIP3   OH240224   0.374   5.377  10.866 -0.1585 -0.2125 -0.1894
 6270TIP3    H140225   0.326   5.459  10.864  1.7029  0.9283 -0.5092
 6270TIP3    H240226   0.336   5.329  10.940 -3.2611 -0.4021 -1.7657
 6271TIP3   OH240227   2.034   6.302  13.552 -0.2969 -0.5496  0.1153
 6271TIP3    H140228   2.090   6.367  13.595  0.1271 -0.9574  0.1929
 6271TIP3    H240229   1.955   6.300  13.606 -0.4842  0.1999 -0.1274
 6272TIP3   OH240230   2.300   1.615   1.630 -0.2575  0.0030 -0.3621
 6272TIP3    H140231   2.303   1.649   1.541 -2.1242 -0.0186 -0.4679
 6272TIP3    H240232   2.320   1.521   1.621  2.2992  0.4850 -0.3745
 6273TIP3   OH240233   6.258   2.875  15.776 -0.2573 -0.2351  0.3074
 6273TIP3    H140234   6.220   2.892  15.689  0.7159  0.3379 -0.0182
 6273TIP3    H240235   6.319   2.947  15.790  0.7897 -1.1770  0.7775
 6274TIP3   OH240236   1.300   0.844  12.682 -0.8044  0.1736 -0.9306
 6274TIP3    H140237   1.368   0.870  12.620 -1.9979  2.7527 -1.2885
 6274TIP3    H240238   1.317   0.895  12.761 -0.3154 -1.8083  0.3147
 6275TIP3   OH240239   0.458   6.647   0.126  0.9030 -0.4549  0.5410
 6275TIP3    H140240   0.466   6.562   0.169  0.4482  0.1065  1.7803
 6275TIP3    H240241   0.407   6.628   0.047 -0.5647 -1.1236  1.5848
 6276TIP3   OH240242   0.643   5.785   0.470 -0.2862 -0.4342  0.1432
 6276TIP3    H140243   0.689   5.727   0.531  0.9288  1.2441  0.9162
 6276TIP3    H240244   0.565   5.813   0.517  0.9458  1.3313  1.2975
 6277TIP3   OH240245   1.638   2.175   2.538  0.4564  0.4463  0.1923
 6277TIP3    H140246   1.629   2.212   2.626  0.4581 -1.6875  1.1478
 6277TIP3    H240247   1.688   2.241   2.490 -1.5054  2.7214  1.0744
 6278TIP3   OH240248   5.523   5.848   1.106  0.4733  0.1273 -0.3087
 6278TIP3    H140249   5.545   5.792   1.181 -1.0445 -0.0628  0.0218
 6278TIP3    H240250   5.531   5.937   1.140 -0.0315  0.0448  0.0278
 6279TIP3   OH240251   4.774   3.515  13.097  0.3869 -0.3158 -0.5820
 6279TIP3    H140252   4.824   3.489  13.174  0.9395 -0.6977 -1.0662
 6279TIP3    H240253   4.699   3.564  13.132 -0.1091 -1.6507  0.2802
 6280TIP3   OH240254   4.657   0.451   5.754  0.0446  0.2050 -0.4207
 6280TIP3    H140255   4.613   0.373   5.788 -1.0759 -0.2531 -2.7123
 6280TIP3    H240256   4.597   0.523   5.772  0.7618  0.4674  1.0622
 6281TIP3   OH240257   3.887   1.687   0.691 -0.3350  0.1234 -0.4276
 6281TIP3    H140258   3.906   1.658   0.602 -0.0506  0.0150 -0.3333
 6281TIP3    H240259   3.938   1.768   0.701  0.8036 -0.6346  0.1265
 6282TIP3   OH240260   3.483   2.434   2.446  0.2779  0.0897  0.1667
 6282TIP3    H140261   3.514   2.523   2.432 -2.6585  1.1334 -0.3021
 6282TIP3    H240262   3.479   2.425   2.541  0.9607  0.2882  0.2214
 6283TIP3   OH240263   0.877   0.631  12.401  0.5603  0.8111  0.3908
 6283TIP3    H140264   0.904   0.562  12.462  1.6773  1.0707  0.2278
 6283TIP3    H240265   0.960   0.662  12.363  0.0407  1.9723  0.1720
 6284TIP3   OH240266   3.570   4.729  11.658  0.5185  0.5744 -0.2752
 6284TIP3    H140267   3.630   4.787  11.612 -0.1737  2.1410  0.7139
 6284TIP3    H240268   3.626   4.661  11.696  1.3227  0.4433 -1.6237
 6285TIP3   OH240269   1.404   1.528   1.045 -0.1754  0.1347 -0.4334
 6285TIP3    H140270   1.389   1.611   1.000 -2.7199  0.6675  1.1416
 6285TIP3    H240271   1.370   1.462   0.986 -1.2209  0.5812 -0.3561
 6286TIP3   OH240272   4.879   5.276   3.872 -0.2152  0.1331 -0.2134
 6286TIP3    H140273   4.957   5.297   3.924  1.0236 -0.4033 -1.7754
 6286TIP3    H240274   4.868   5.351   3.814 -0.4367 -0.1051 -0.4836
 6287TIP3   OH240275   4.719   1.444   0.234 -0.3405 -0.0921 -0.3120
 6287TIP3    H140276   4.659   1.506   0.276 -0.9794 -0.8722 -0.0442
 6287TIP3    H240277   4.667   1.364   0.223 -0.1701  0.0315 -2.5011
 6288TIP3   OH240278   6.199   3.206  13.468  0.2374  0.2095  0.0407
 6288TIP3    H140279   6.274   3.179  13.521 -0.9623 -2.3864  0.5976
 6288TIP3    H240280   6.175   3.292  13.501  0.2967 -0.7771  2.9546
 6289TIP3   OH240281   1.599   0.539  12.895  0.1660  1.0511 -0.4845
 6289TIP3    H140282   1.507   0.512  12.904  0.7536 -1.0774 -0.4424
 6289TIP3    H240283   1.605   0.574  12.806 -0.5398  0.5582 -0.7340
 6290TIP3   OH240284   2.311   4.240   5.391 -0.0347  0.2834  0.3009
 6290TIP3    H140285   2.297   4.331   5.364 -0.4772 -0.1556 -1.0425
 6290TIP3    H240286   2.223   4.204   5.400  0.1413 -0.1384  0.3596
 6291TIP3   OH240287   3.872   0.103  14.879  0.1066  0.3232  0.3260
 6291TIP3    H140288   3.887   0.194  14.853  0.2158  0.1162 -0.3561
 6291TIP3    H240289   3.780   0.086  14.856 -0.2294  0.5745  1.4292
 6292TIP3   OH240290   6.207   6.654  14.392 -0.2298  0.1903  0.5584
 6292TIP3    H140291   6.126   6.603  14.394  0.2777 -0.6268  1.2177
 6292TIP3    H240292   6.254   6.627  14.471  1.7510 -1.1300 -0.9677
 6293TIP3   OH240293   4.470   2.942  16.235 -0.1813 -0.2853  0.1407
 6293TIP3    H140294   4.487   2.881  16.163  1.6891 -1.7880  1.7514
 6293TIP3    H240295   4.547   3.000  16.235 -1.3902  1.4003 -0.6305
 6294TIP3   OH240296   5.367   4.611  16.404  0.1959 -0.0627 -0.0354
 6294TIP3    H140297   5.278   4.645  16.407  0.1609  0.0936 -1.9440
 6294TIP3    H240298   5.356   4.516  16.402  0.1944 -0.1588  1.9032
 6295TIP3   OH240299   3.499   5.526  10.518 -0.2798 -0.3883  0.4658
 6295TIP3    H140300   3.515   5.446  10.468  1.8041 -2.1327  3.6304
 6295TIP3    H240301   3.475   5.497  10.605  1.1652  2.3555  1.9435
 6296TIP3   OH240302   2.732   4.162  11.647  0.0223 -0.1995  0.4659
 6296TIP3    H140303   2.750   4.224  11.717 -1.8205  0.6918  0.2124
 6296TIP3    H240304   2.707   4.216  11.572 -1.0837 -1.2114  0.0675
 6297TIP3   OH240305   4.524   5.386   5.596  0.0128 -0.3276  0.0726
 6297TIP3    H140306   4.492   5.302   5.562 -0.1758 -0.4385  0.5080
 6297TIP3    H240307   4.567   5.363   5.679  0.8845 -0.1287 -0.3140
 6298TIP3   OH240308   3.305   6.645   0.747  0.4258  0.1911  0.0762
 6298TIP3    H140309   3.341   6.734   0.745 -0.3255  0.5127  0.6673
 6298TIP3    H240310   3.369   6.595   0.798  0.7836  0.4193 -0.1440
 6299TIP3   OH240311   2.435   1.175   3.503  0.4180  0.4859  0.6753
 6299TIP3    H140312   2.386   1.192   3.583  0.3376 -0.6584  0.8804
 6299TIP3    H240313   2.428   1.256   3.453 -1.5141  0.4353  0.7920
 6300TIP3   OH240314   6.394   2.687   5.044 -0.0180  0.2387  0.4045
 6300TIP3    H140315   6.392   2.650   4.956 -0.1187  0.1283  0.4537
 6300TIP3    H240316   6.302   2.693   5.069  0.0730 -2.2593  1.5842
 6301TIP3   OH240317   3.699   0.819  13.074 -0.7857  0.3894  0.2012
 6301TIP3    H140318   3.778   0.769  13.094  0.3470  2.3489  0.9775
 6301TIP3    H240319   3.701   0.892  13.136 -3.2950  0.4521  0.3233
 6302TIP3   OH240320   1.882   5.505  15.201  0.4677 -0.7548 -0.0359
 6302TIP3    H140321   1.898   5.498  15.107  1.3419 -0.3494  0.0711
 6302TIP3    H240322   1.892   5.416  15.235 -1.3352 -1.1892 -0.5216
 6303TIP3   OH240323   4.582   6.742   0.310  0.1397  0.1882  0.0294
 6303TIP3    H140324   4.638   6.678   0.354  0.5440  0.5525  0.0634
 6303TIP3    H240325   4.635   6.772   0.236 -0.9803 -1.2657 -1.4091
 6304TIP3   OH240326   6.273   0.446   4.678 -0.0275  0.9944 -0.1802
 6304TIP3    H140327   6.329   0.518   4.648  1.5204 -0.2032 -0.3125
 6304TIP3    H240328   6.304   0.370   4.628 -0.3946 -0.1353  1.2579
 6305TIP3   OH240329   5.405   2.360   1.572 -0.0628 -0.2524 -0.0352
 6305TIP3    H140330   5.462   2.437   1.567  2.0196 -1.5719  1.5241
 6305TIP3    H240331   5.396   2.331   1.481  2.8533 -0.6482 -0.3083
 6306TIP3   OH240332   1.187   5.968  12.301  0.8936  0.6258 -0.2385
 6306TIP3    H140333   1.252   5.986  12.233  0.9839  0.5632 -0.1693
 6306TIP3    H240334   1.103   5.971  12.255  1.0521 -1.0817 -0.6969
 6307TIP3   OH240335   2.598   0.629   5.462  0.2372  0.2185 -0.3681
 6307TIP3    H140336   2.587   0.632   5.367  0.9386 -0.5283 -0.4942
 6307TIP3    H240337   2.589   0.536   5.484  1.1053  0.2382  0.1489
 6308TIP3   OH240338   3.718   6.688  12.518  0.1889  0.1289  0.2095
 6308TIP3    H140339   3.684   6.650  12.436 -0.7939 -1.3781  1.2659
 6308TIP3    H240340   3.739   6.612  12.572  3.0122  1.0459  0.5478
 6309TIP3   OH240341   0.503   4.361  14.548 -0.5101 -0.4196 -0.3202
 6309TIP3    H140342   0.484   4.414  14.625  0.4080 -0.5427 -0.0020
 6309TIP3    H240343   0.588   4.321  14.566 -0.7083 -1.1705 -1.0098
 6310TIP3   OH240344   6.581   6.563   1.208 -0.1458  0.2474 -0.3307
 6310TIP3    H140345   6.637   6.491   1.238  1.1237  0.9751 -0.8508
 6310TIP3    H240346   6.505   6.560   1.266  1.6931  0.9405  2.3030
 6311TIP3   OH240347   4.567   5.318  12.779  0.7984  0.2725  0.1265
 6311TIP3    H140348   4.643   5.356  12.823  0.7641 -1.6246  2.0362
 6311TIP3    H240349   4.587   5.224  12.775 -1.1143 -0.1670 -0.0170
 6312TIP3   OH240350   6.695   1.783   4.417 -0.1193 -0.4145 -0.2861
 6312TIP3    H140351   6.662   1.702   4.454  1.1250 -1.4129 -1.2651
 6312TIP3    H240352   6.705   1.765   4.324 -0.1765  0.9957 -0.5909
 6313TIP3   OH240353   4.057   4.868  11.784 -0.3094  0.6693 -0.5524
 6313TIP3    H140354   4.085   4.896  11.697 -3.8658  2.2741 -1.3513
 6313TIP3    H240355   4.035   4.949  11.830 -0.4667 -0.2688  1.1033
 6314TIP3   OH240356   0.921   4.350  16.491  0.6528  1.5880  0.6566
 6314TIP3    H140357   0.967   4.433  16.501  1.6731  1.1400 -0.2225
 6314TIP3    H240358   0.883   4.353  16.403  0.5823  1.1788  0.6695
 6315TIP3   OH240359   3.020   6.470   2.734 -0.1396  0.3187 -0.6698
 6315TIP3    H140360   2.928   6.485   2.755 -0.6098  1.2965 -3.1123
 6315TIP3    H240361   3.025   6.378   2.711 -0.3789  0.1291  0.0214
 6316TIP3   OH240362   4.600   2.665   0.953  0.0889  0.1037  0.1217
 6316TIP3    H140363   4.674   2.647   0.895 -0.0094 -0.5106  0.1796
 6316TIP3    H240364   4.592   2.760   0.952  0.5023  0.1408 -0.3564
 6317TIP3   OH240365   0.023   4.834  14.335 -0.2190  0.7741  0.1473
 6317TIP3    H140366  -0.025   4.899  14.283 -0.4563 -0.7175 -1.6097
 6317TIP3    H240367  -0.037   4.811  14.406 -0.9288  1.0696 -0.3424
 6318TIP3   OH240368   5.305   1.797  11.986 -0.2832 -0.3144 -0.2469
 6318TIP3    H140369   5.360   1.726  12.019  0.3790  0.5568  0.5888
 6318TIP3    H240370   5.231   1.753  11.944  0.4803 -1.4935 -0.3942
 6319TIP3   OH240371   6.150   5.934   0.540 -0.3561 -0.0252  0.1405
 6319TIP3    H140372   6.151   6.013   0.594 -0.8253 -0.2239  0.4464
 6319TIP3    H240373   6.075   5.884   0.573  0.3673 -0.9366  0.4512
 6320TIP3   OH240374   2.582   1.788  13.534 -0.1304  0.8107  0.5594
 6320TIP3    H140375   2.603   1.725  13.604 -1.4172 -0.9144 -0.5280
 6320TIP3    H240376   2.573   1.734  13.456  1.5479  2.7213 -1.0580
 6321TIP3   OH240377   4.787   1.905   0.477  0.2495 -0.4161  0.3192
 6321TIP3    H140378   4.818   1.915   0.387  0.9322 -0.1260  0.5774
 6321TIP3    H240379   4.714   1.844   0.471  2.0314 -2.6464 -0.0843
 6322TIP3   OH240380   5.480   0.990  13.433 -0.7754  0.0909 -0.4650
 6322TIP3    H140381   5.502   1.030  13.349 -0.6562  0.6592 -0.1714
 6322TIP3    H240382   5.539   1.032  13.495  1.0266 -2.2178 -0.4822
 6323TIP3   OH240383   1.605   6.531   3.949  0.5549  0.1073  0.1047
 6323TIP3    H140384   1.563   6.478   4.017 -0.0881  1.0080  0.4237
 6323TIP3    H240385   1.692   6.550   3.983  0.1117  0.8680  0.8703
 6324TIP3   OH240386   2.265   2.671   3.738  0.5204  0.3344  0.9420
 6324TIP3    H140387   2.223   2.750   3.705 -0.1727 -0.5295 -0.3330
 6324TIP3    H240388   2.337   2.655   3.677  1.1572  0.4202  1.6606
 6325TIP3   OH240389   4.183   1.998   4.588  0.2684 -0.2787 -0.1086
 6325TIP3    H140390   4.232   2.080   4.583 -1.5515  0.9242  0.6471
 6325TIP3    H240391   4.092   2.024   4.582 -0.3437 -2.4004 -1.0659
 6326TIP3   OH240392   4.589   1.626  13.575  0.2646 -0.0174  0.3083
 6326TIP3    H140393   4.582   1.610  13.669  2.1019  0.2982  0.5335
 6326TIP3    H240394   4.666   1.576  13.548 -0.7949 -0.9209 -1.2562
 6327TIP3   OH240395   3.005   5.069   4.802  0.1358 -0.2015 -0.2388
 6327TIP3    H140396   2.996   5.077   4.897  3.7247  2.5887  0.0738
 6327TIP3    H240397   2.988   4.976   4.784 -0.3592 -0.9047  3.1481
 6328TIP3   OH240398   3.857   2.836  12.913 -0.3655 -0.1117  0.2425
 6328TIP3    H140399   3.877   2.767  12.975 -1.2563  0.9239  1.7516
 6328TIP3    H240400   3.762   2.831  12.901 -0.3277  0.2989 -0.3017
 6329TIP3   OH240401   1.315   2.285  15.183 -0.3102 -0.3300  0.1462
 6329TIP3    H140402   1.282   2.219  15.123 -0.0805 -1.6559  1.4104
 6329TIP3    H240403   1.375   2.237  15.241 -0.5037  0.8857  1.4138
 6330TIP3   OH240404   3.754   1.808   5.766  0.7886  0.1289  0.1440
 6330TIP3    H140405   3.837   1.761   5.760  1.0502  0.7883 -2.0846
 6330TIP3    H240406   3.778   1.901   5.761  0.0755  0.4782  2.0605
 6331TIP3   OH240407   0.155   6.430  11.481  0.5215  0.1686 -0.1555
 6331TIP3    H140408   0.131   6.497  11.544 -2.2476  2.8562 -3.6389
 6331TIP3    H240409   0.117   6.349  11.516 -1.0100  1.5314  1.5205
 6332TIP3   OH240410   3.776   4.082  14.753 -0.1753 -0.1659  0.3740
 6332TIP3    H140411   3.742   4.006  14.706 -2.2172  0.6917  0.3813
 6332TIP3    H240412   3.735   4.078  14.839  0.1537  0.6292  0.5826
 6333TIP3   OH240413   4.502   0.747   3.918 -0.1592  0.5265  0.4528
 6333TIP3    H140414   4.498   0.687   3.992  0.4494 -1.8084 -1.3027
 6333TIP3    H240415   4.499   0.691   3.841 -0.3434  2.8242 -1.3215
 6334TIP3   OH240416   0.620   6.293  12.309 -0.3287 -0.6245  0.5973
 6334TIP3    H140417   0.588   6.265  12.224 -1.9694 -1.3801  1.4162
 6334TIP3    H240418   0.712   6.313  12.295 -0.7952  0.2594 -1.5690
 6335TIP3   OH240419   0.857   5.921  15.820  0.2649 -0.4011  0.2999
 6335TIP3    H140420   0.886   6.001  15.777 -2.4846  0.4621 -0.1653
 6335TIP3    H240421   0.836   5.862  15.748 -3.0557  0.5665  0.3165
 6336TIP3   OH240422   6.324   6.221   4.044  0.4419  0.0184  0.3143
 6336TIP3    H140423   6.315   6.314   4.063 -0.3569  0.7038 -2.7832
 6336TIP3    H240424   6.292   6.177   4.122 -1.4563  2.3725  0.9686
 6337TIP3   OH240425   5.278   6.153   1.998 -0.5245 -0.9333 -0.5484
 6337TIP3    H140426   5.234   6.096   2.061  0.5285 -1.2493 -0.0844
 6337TIP3    H240427   5.325   6.217   2.052 -1.6771  0.4086 -1.0522
 6338TIP3   OH240428   0.436   3.513  14.876 -0.4158  0.5254  0.4308
 6338TIP3    H140429   0.366   3.480  14.820 -0.8230 -0.7663  1.6470
 6338TIP3    H240430   0.392   3.575  14.935 -0.3298  0.5375  0.4823
 6339TIP3   OH240431   6.147   1.791  13.479  0.0138  0.1660  0.1220
 6339TIP3    H140432   6.093   1.757  13.408  0.0414 -1.3943  0.8171
 6339TIP3    H240433   6.235   1.795  13.443  0.4997 -2.9531  0.7174
 6340TIP3   OH240434   2.894   0.284  12.945  0.0749 -0.5203  0.2283
 6340TIP3    H140435   2.889   0.351  12.877  1.4513 -2.0534 -1.4710
 6340TIP3    H240436   2.985   0.254  12.944 -0.7039 -3.1676  0.1417
 6341TIP3   OH240437   2.853   6.730  15.262  0.1829  0.0596 -0.3994
 6341TIP3    H140438   2.868   6.656  15.320  2.2015  0.9838  0.3594
 6341TIP3    H240439   2.909   6.799  15.297 -0.2686  1.3705 -2.1381
 6342TIP3   OH240440   5.689   4.628   4.398  0.5777 -0.0238  0.7987
 6342TIP3    H140441   5.748   4.556   4.421  1.8581  1.1313  1.2810
 6342TIP3    H240442   5.730   4.670   4.323 -1.8200 -1.6790 -1.6224
 6343TIP3   OH240443   6.203   2.815   5.877  0.3067  0.3031  0.5826
 6343TIP3    H140444   6.126   2.849   5.833 -0.6829 -1.3281  0.9539
 6343TIP3    H240445   6.215   2.872   5.953 -0.6400  0.4732  0.6175
 6344TIP3   OH240446   3.631   2.058   4.235  0.1937 -0.5255 -0.1789
 6344TIP3    H140447   3.633   2.120   4.308 -0.1270  0.8694 -1.2974
 6344TIP3    H240448   3.567   2.096   4.174  0.3971 -1.6861 -1.1432
 6345TIP3   OH240449   0.370   3.350  12.584  0.5309  0.7408  0.4260
 6345TIP3    H140450   0.286   3.386  12.611 -0.2720 -0.3847 -0.4878
 6345TIP3    H240451   0.413   3.326  12.667  0.3579  2.1074  0.9441
 6346TIP3   OH240452   5.727   6.673   1.202 -0.3608  0.0864  0.2708
 6346TIP3    H140453   5.713   6.738   1.133 -1.5899  0.7266  1.0961
 6346TIP3    H240454   5.641   6.634   1.216  0.3402 -1.6822 -0.1469
 6347TIP3   OH240455   1.889   0.592   1.163  0.5552  0.3053 -0.0629
 6347TIP3    H140456   1.983   0.577   1.154  0.6518  1.3038 -0.8253
 6347TIP3    H240457   1.863   0.534   1.234  1.5845 -0.6512 -0.4282
 6348TIP3   OH240458   5.507   5.528  13.248 -0.0722 -0.0742  0.3061
 6348TIP3    H140459   5.475   5.438  13.247  2.3547 -1.0129 -0.7309
 6348TIP3    H240460   5.535   5.543  13.338 -0.8910 -0.1689  0.5852
 6349TIP3   OH240461   4.175   3.148  15.937  0.5341  0.3245 -0.1779
 6349TIP3    H140462   4.114   3.170  16.007 -1.6016  0.0061 -1.8669
 6349TIP3    H240463   4.146   3.200  15.862  0.3708 -2.1476 -1.9217
 6350TIP3   OH240464   1.989   1.313   0.135  0.2075 -0.2810  0.2459
 6350TIP3    H140465   1.917   1.371   0.162  2.2151  1.2522  2.6534
 6350TIP3    H240466   1.964   1.227   0.168  0.1745  0.5574  2.5313
 6351TIP3   OH240467   5.008   3.767   2.280  0.3027 -0.5798  0.1221
 6351TIP3    H140468   4.950   3.731   2.347  0.3678  0.3952  0.7129
 6351TIP3    H240469   4.950   3.813   2.219  0.3744 -0.2928  0.2694
 6352TIP3   OH240470   5.571   4.719  16.877  0.4877  0.3332  0.4913
 6352TIP3    H140471   5.554   4.798  16.825 -0.7900 -0.7374 -0.7867
 6352TIP3    H240472   5.504   4.720  16.945 -0.1948 -0.1500 -0.1539
 6353TIP3   OH240473   2.270   1.351  14.876 -0.3419 -0.1421 -0.1790
 6353TIP3    H140474   2.278   1.359  14.781  1.1979 -0.9125 -0.1530
 6353TIP3    H240475   2.256   1.257  14.890 -0.6734 -0.0134  0.3418
 6354TIP3   OH240476   2.829   5.240   0.965  0.0787 -0.3407  0.9790
 6354TIP3    H140477   2.799   5.151   0.982  0.9617 -0.8524 -0.0285
 6354TIP3    H240478   2.755   5.296   0.988 -1.1061 -1.4476 -0.0319
 6355TIP3   OH240479   3.186   4.916   0.924  0.2144  1.0426  0.2187
 6355TIP3    H140480   3.133   4.993   0.901  0.5077  1.5619  1.1948
 6355TIP3    H240481   3.169   4.903   1.017  0.4848  0.1660  0.1509
 6356TIP3   OH240482   3.441   3.596   5.008  0.7978  0.2309  0.2243
 6356TIP3    H140483   3.363   3.596   5.063  2.3956 -0.8805  2.6981
 6356TIP3    H240484   3.444   3.508   4.969  0.3200  0.6067 -0.6861
 6357TIP3   OH240485   4.416   4.993   3.401  0.0397 -0.5800 -0.5288
 6357TIP3    H140486   4.428   5.049   3.325  0.2400 -1.5423 -1.2249
 6357TIP3    H240487   4.328   5.014   3.432  0.2684  0.4051 -0.5248
 6358TIP3   OH240488   4.482   1.277   0.224 -0.1991  0.0751 -0.3893
 6358TIP3    H140489   4.453   1.239   0.141 -0.4334  1.8406 -1.1531
 6358TIP3    H240490   4.409   1.263   0.283 -0.6553  0.1650 -0.9231
 6359TIP3   OH240491   3.465   6.610   1.604 -0.3928 -0.9745  0.1113
 6359TIP3    H140492   3.485   6.540   1.542 -1.4813 -0.6006 -0.7026
 6359TIP3    H240493   3.403   6.571   1.666 -1.2311 -0.6878 -0.5154
 6360TIP3   OH240494   0.515   1.372  12.798  0.7588 -0.2544  0.5195
 6360TIP3    H140495   0.527   1.381  12.893 -1.4167 -0.6821  0.8886
 6360TIP3    H240496   0.528   1.460  12.764 -0.1232  0.2725  1.4658
 6361TIP3   OH240497   6.597   5.768  15.638  0.1899  0.3640 -0.6615
 6361TIP3    H140498   6.543   5.813  15.703  0.1661 -0.9830  0.2893
 6361TIP3    H240499   6.677   5.820  15.634 -1.3389  2.7870 -2.5833
 6362TIP3   OH240500   6.486   3.126  12.841  0.1463  0.1278 -0.1424
 6362TIP3    H140501   6.565   3.160  12.883 -0.5726 -0.0075  1.3825
 6362TIP3    H240502   6.432   3.093  12.913 -1.6061  0.8253 -1.0512
 6363TIP3   OH240503   1.975   3.833   1.458  0.4416 -0.0257 -0.2458
 6363TIP3    H140504   2.010   3.875   1.379  1.2830  0.3688  0.3295
 6363TIP3    H240505   2.052   3.802   1.505  0.0158  0.8070  1.0268
 6364TIP3   OH240506   2.248   1.324   5.752  0.4406  0.6332 -0.3170
 6364TIP3    H140507   2.254   1.409   5.709  1.9940  0.5642 -0.3195
 6364TIP3    H240508   2.205   1.341   5.835 -0.9156  1.0935 -1.0915
 6365TIP3   OH240509   3.450   0.740   2.279 -0.1008  0.2426  0.0446
 6365TIP3    H140510   3.484   0.804   2.216 -1.2462  0.6896 -0.1510
 6365TIP3    H240511   3.379   0.786   2.324 -3.5979 -1.9469 -2.7094
 6366TIP3   OH240512   1.109   0.488   2.281 -0.2701  0.3563  0.4033
 6366TIP3    H140513   1.041   0.523   2.224  1.2458  1.5990 -0.7177
 6366TIP3    H240514   1.167   0.562   2.298  2.0719 -1.1529 -0.5446
 6367TIP3   OH240515   6.354   1.665  15.612  0.2125 -0.2140 -0.3869
 6367TIP3    H140516   6.433   1.613  15.626 -0.1285 -0.8627 -0.8624
 6367TIP3    H240517   6.351   1.680  15.518  0.7389  1.3683 -0.1819
 6368TIP3   OH240518   1.313   2.911   5.766 -0.7897  0.3327  0.4485
 6368TIP3    H140519   1.333   2.823   5.798 -1.2732  0.1080  0.1517
 6368TIP3    H240520   1.393   2.941   5.723 -0.8537 -0.2480 -0.0826
 6369TIP3   OH240521   5.212   0.345  11.103  0.2973 -0.4453 -0.1488
 6369TIP3    H140522   5.120   0.371  11.100  0.4406  0.1518  0.3636
 6369TIP3    H240523   5.258   0.412  11.051  0.5422 -0.2361  0.3249
 6370TIP3   OH240524   1.115   0.005   2.543  0.2286 -0.5256  0.0936
 6370TIP3    H140525   1.151  -0.051   2.474 -1.2229 -1.4439  0.0254
 6370TIP3    H240526   1.116  -0.051   2.621 -0.1781 -0.2605  0.2907
 6371TIP3   OH240527   3.221   6.289   1.408  0.1653 -0.2068 -0.0192
 6371TIP3    H140528   3.299   6.257   1.453  0.5154  0.4391 -0.1522
 6371TIP3    H240529   3.226   6.250   1.320  1.0835  0.9090 -0.4968
 6372TIP3   OH240530   5.566   3.466   4.432  0.1896 -0.0947 -0.2802
 6372TIP3    H140531   5.535   3.445   4.520 -0.3790 -1.6857 -0.8267
 6372TIP3    H240532   5.488   3.462   4.377  0.3102  2.0694 -0.7198
 6373TIP3   OH240533   4.110   3.301  15.305 -0.2898  0.1467  0.5298
 6373TIP3    H140534   4.091   3.218  15.261 -0.0974  0.9778 -1.2259
 6373TIP3    H240535   4.187   3.335  15.260 -1.8056  2.4311 -0.5308
 6374TIP3   OH240536   4.925   0.384  11.053  0.5572  0.2886 -0.2799
 6374TIP3    H140537   4.907   0.478  11.059 -0.0264  0.0902  2.1794
 6374TIP3    H240538   4.862   0.352  10.988 -0.9694  1.2394  0.6644
 6375TIP3   OH240539   5.236   1.227   2.140 -0.1803  0.0844 -0.0933
 6375TIP3    H140540   5.314   1.269   2.104  2.3102 -1.3638  3.0806
 6375TIP3    H240541   5.184   1.299   2.177  0.2155  0.9670 -1.2106
 6376TIP3   OH240542   5.117   5.420   1.659  0.0775 -0.1957 -0.3136
 6376TIP3    H140543   5.163   5.337   1.673 -1.2146 -1.1166 -1.2439
 6376TIP3    H240544   5.064   5.431   1.737 -1.7767 -1.6727 -1.2937
 6377TIP3   OH240545   3.614   6.471   5.997 -0.2200 -0.1769 -0.1083
 6377TIP3    H140546   3.558   6.513   5.931  0.5402 -1.2745 -1.5089
 6377TIP3    H240547   3.697   6.518   5.990 -0.5875  0.7099  1.1794
 6378TIP3   OH240548   1.098   5.732   1.988 -0.0835 -0.5384  0.4913
 6378TIP3    H140549   1.054   5.742   2.073 -0.7717 -0.8510  0.1769
 6378TIP3    H240550   1.127   5.820   1.965  1.3841 -0.6503  1.7152
 6379TIP3   OH240551   2.033   3.878   4.007 -0.2083  0.4752  0.3698
 6379TIP3    H140552   2.009   3.967   4.034  0.3785  0.1390  2.1423
 6379TIP3    H240553   1.950   3.832   3.997 -0.4759  0.5928  1.8279
 6380TIP3   OH240554   1.865   3.990   0.234 -0.1998 -0.3909  0.4229
 6380TIP3    H140555   1.823   3.904   0.237  0.1844 -0.6138 -0.3191
 6380TIP3    H240556   1.898   4.004   0.323  1.8124 -2.0871  0.0356
 6381TIP3   OH240557   6.287   5.538  11.401 -0.3075  0.0447 -0.3170
 6381TIP3    H140558   6.323   5.484  11.331 -0.9548 -0.0318 -0.5940
 6381TIP3    H240559   6.356   5.603  11.418 -0.2295  0.2072 -1.1807
 6382TIP3   OH240560   6.183   2.064  16.438 -0.2761  0.3525 -0.0262
 6382TIP3    H140561   6.227   2.005  16.377 -0.9391 -0.6321  0.4284
 6382TIP3    H240562   6.090   2.048  16.425 -0.4454  0.8067  0.5759
 6383TIP3   OH240563   0.504   3.392  16.443 -0.0221 -0.0263 -0.4468
 6383TIP3    H140564   0.443   3.385  16.516 -0.5603 -0.0207 -0.8929
 6383TIP3    H240565   0.499   3.308  16.399  1.1220 -0.4312  0.1510
 6384TIP3   OH240566   6.639   2.900  14.474  0.4847 -0.1544  0.4089
 6384TIP3    H140567   6.696   2.950  14.414 -0.7702 -0.2916 -0.9443
 6384TIP3    H240568   6.695   2.830  14.507  1.2789  0.0575 -0.4399
 6385TIP3   OH240569   3.368   2.246  11.909  0.0514  0.3490  0.4185
 6385TIP3    H140570   3.396   2.205  11.991 -0.0194 -0.7304 -0.0719
 6385TIP3    H240571   3.445   2.292  11.878  0.0347  0.8957  1.1648
 6386TIP3   OH240572   4.557   5.931  12.875 -0.1530 -0.5729  0.6952
 6386TIP3    H140573   4.598   5.972  12.952  0.6457 -0.1724  0.0714
 6386TIP3    H240574   4.538   6.004  12.817 -0.8990 -0.8601  0.5725
 6387TIP3   OH240575   3.779   2.369   4.066 -0.2975  0.3781 -0.4637
 6387TIP3    H140576   3.825   2.320   4.134 -0.2082 -1.0527 -1.5002
 6387TIP3    H240577   3.768   2.457   4.102  0.9637  0.0344  0.8306
 6388TIP3   OH240578   2.631   1.483  16.329 -0.1996  0.3826 -0.4434
 6388TIP3    H140579   2.620   1.410  16.268 -0.4924 -0.9150  1.1017
 6388TIP3    H240580   2.726   1.493  16.336 -0.1019 -0.8585  0.4263
 6389TIP3   OH240581   1.185   6.375   3.178  0.3164 -0.2187 -0.6729
 6389TIP3    H140582   1.278   6.379   3.202  0.4749 -1.4609 -1.0339
 6389TIP3    H240583   1.156   6.288   3.205 -0.6779  0.0534 -0.8205
 6390TIP3   OH240584   0.382   3.821  15.676  0.5090 -0.0504 -0.1632
 6390TIP3    H140585   0.312   3.811  15.612  0.9743 -2.4861 -0.3719
 6390TIP3    H240586   0.359   3.761  15.747  0.2333  2.2479  1.8359
 6391TIP3   OH240587   2.727   2.748   0.046  0.2262  1.1394  0.0189
 6391TIP3    H140588   2.822   2.747   0.054  0.1384  2.1722  1.6532
 6391TIP3    H240589   2.698   2.665   0.083  0.5502 -0.2539 -2.6014
 6392TIP3   OH240590   2.631   0.135  14.753  0.4059  0.1134  0.1124
 6392TIP3    H140591   2.674   0.136  14.667  0.6313 -0.1381  0.2191
 6392TIP3    H240592   2.697   0.098  14.812  0.9000  1.9381  0.7538
 6393TIP3   OH240593   0.929   1.907  15.191 -0.0342  0.0050  0.5785
 6393TIP3    H140594   1.024   1.898  15.182 -0.0331  0.1309  0.4750
 6393TIP3    H240595   0.911   2.000  15.178 -0.1215  0.0569  1.0516
 6394TIP3   OH240596   6.162   2.418  13.968 -0.3460 -0.4231  0.2425
 6394TIP3    H140597   6.191   2.440  14.056  0.4813  1.7422 -0.4846
 6394TIP3    H240598   6.172   2.500  13.919 -3.5946 -0.7332 -1.1609
 6395TIP3   OH240599   2.317   0.600  16.140  0.1020 -0.1367 -0.0564
 6395TIP3    H140600   2.222   0.597  16.131  0.0806  0.0186  0.1069
 6395TIP3    H240601   2.351   0.573  16.055 -0.0881 -0.6589  0.0322
 6396TIP3   OH240602   0.293   4.899   1.255 -0.5502  0.2799  0.8530
 6396TIP3    H140603   0.351   4.832   1.221  0.3434  1.1805  0.5738
 6396TIP3    H240604   0.350   4.960   1.302 -1.2279  1.3110  0.3756
 6397TIP3   OH240605   0.610   6.146   1.565  0.2050 -0.2190  0.3341
 6397TIP3    H140606   0.582   6.110   1.481 -1.4651  2.9193 -0.6140
 6397TIP3    H240607   0.705   6.153   1.557  0.5684 -3.4134  0.3112
 6398TIP3   OH240608   6.398   3.860   1.106  0.1587 -0.8098  0.4180
 6398TIP3    H140609   6.477   3.912   1.123  0.9101 -1.6517 -0.3788
 6398TIP3    H240610   6.422   3.804   1.032 -2.6462  2.2394 -3.2519
 6399TIP3   OH240611   3.028   2.443   2.674  0.1205  0.0565  0.4690
 6399TIP3    H140612   3.092   2.387   2.629 -0.6095 -1.6426  1.4591
 6399TIP3    H240613   3.079   2.487   2.742  0.4156 -0.6846  0.7430
 6400TIP3   OH240614   0.165   4.348  16.613  0.2387  0.3436 -0.0683
 6400TIP3    H140615   0.138   4.436  16.586 -0.2120  0.3191  0.2855
 6400TIP3    H240616   0.157   4.295  16.534 -0.7670  0.3381  0.0314
 6401TIP3   OH240617   3.988   4.461   3.812 -0.0884  0.1859  0.0329
 6401TIP3    H140618   3.991   4.374   3.853  2.2268  1.1207  2.0816
 6401TIP3    H240619   4.017   4.446   3.722  0.2227 -1.1676  0.3316
 6402TIP3   OH240620   2.890   4.894   1.363  0.4660  0.2937 -0.0422
 6402TIP3    H140621   2.851   4.972   1.323 -0.5918 -0.9207 -1.4868
 6402TIP3    H240622   2.955   4.929   1.424  1.1728  2.2753 -1.7958
 6403TIP3   OH240623   2.677   1.686   5.632 -0.5417 -0.4582  0.1152
 6403TIP3    H140624   2.702   1.737   5.709  0.9820 -2.0670  0.7555
 6403TIP3    H240625   2.714   1.734   5.558 -0.9654  0.4541  0.4746
 6404TIP3   OH240626   0.378   6.736  13.122  0.0854 -0.3689 -0.0792
 6404TIP3    H140627   0.312   6.774  13.065 -1.5245 -0.5825  1.5589
 6404TIP3    H240628   0.456   6.729  13.067 -1.3490 -0.5163 -2.2200
 6405TIP3   OH240629   3.756   5.305   1.859 -0.0369 -0.3067  0.4067
 6405TIP3    H140630   3.820   5.250   1.813  1.0504  0.5799  0.8040
 6405TIP3    H240631   3.706   5.348   1.790  0.6038 -0.1111  0.0582
 6406TIP3   OH240632   6.231   5.731  12.425  0.3170 -0.0799 -0.3284
 6406TIP3    H140633   6.258   5.675  12.498  1.0465 -0.8247 -1.1467
 6406TIP3    H240634   6.161   5.785  12.461 -2.1305 -3.1507 -0.0821
 6407TIP3   OH240635   4.894   1.733   4.074  0.0432 -0.0510  0.1515
 6407TIP3    H140636   4.846   1.679   4.011 -1.6640 -0.8256  1.9948
 6407TIP3    H240637   4.895   1.820   4.035 -0.1037 -0.6810 -1.3629
 6408TIP3   OH240638   6.694   1.468  11.521 -0.0795 -0.0991 -0.4186
 6408TIP3    H140639   6.685   1.531  11.450 -3.7595 -0.8182 -0.7542
 6408TIP3    H240640   6.609   1.467  11.564  1.8932  0.2787  4.1327
 6409TIP3   OH240641   4.871   3.279  13.813 -0.0193 -0.1062  0.4129
 6409TIP3    H140642   4.948   3.303  13.762 -1.0772  0.7495 -0.8644
 6409TIP3    H240643   4.827   3.363  13.831 -0.8270 -0.6005  0.8001
 6410TIP3   OH240644   0.753   2.978   2.903  0.0595  0.4893 -0.4930
 6410TIP3    H140645   0.663   3.010   2.902  0.8449  3.1739  1.6379
 6410TIP3    H240646   0.757   2.921   2.980  0.8148  3.0726  1.5579
 6411TIP3   OH240647   0.936   0.438   6.317  0.5510  0.2235 -0.5191
 6411TIP3    H140648   0.845   0.413   6.327  0.5975  0.3129  0.2329
 6411TIP3    H240649   0.986   0.363   6.349  0.7151  0.5601  0.0476
 6412TIP3   OH240650   3.270   1.496   3.250 -0.3984  0.3667 -0.1707
 6412TIP3    H140651   3.330   1.566   3.225  0.1658  0.5092  1.4608
 6412TIP3    H240652   3.270   1.498   3.346 -0.9724 -1.3709 -0.1082
 6413TIP3   OH240653   2.658   1.189  14.879 -0.2009 -0.3109  0.3262
 6413TIP3    H140654   2.714   1.261  14.850  0.4156 -0.9067 -0.0216
 6413TIP3    H240655   2.717   1.132  14.928 -0.7462 -0.4277  0.8540
 6414TIP3   OH240656   1.233   0.009  11.263  0.6070 -0.6619 -0.3916
 6414TIP3    H140657   1.212  -0.060  11.326  0.8596 -0.0035  0.4298
 6414TIP3    H240658   1.161   0.072  11.272  1.8370  0.6335  1.0182
 6415TIP3   OH240659   5.078   3.790  10.993 -0.3597 -0.3909  0.3639
 6415TIP3    H140660   5.014   3.738  11.042  0.3459  0.2509  2.0560
 6415TIP3    H240661   5.125   3.726  10.939  1.0871 -1.7827  3.0184
 6416TIP3   OH240662   2.223   3.086  16.654  0.3158  0.0251 -0.6956
 6416TIP3    H140663   2.309   3.120  16.679  1.1068 -1.7257 -0.8976
 6416TIP3    H240664   2.226   3.082  16.558  0.2490 -0.6217 -0.6730
 6417TIP3   OH240665   6.454   0.973  11.732 -0.2448 -0.0319  0.0131
 6417TIP3    H140666   6.396   0.915  11.683 -0.1453 -0.1607  0.0463
 6417TIP3    H240667   6.450   0.940  11.822 -1.6453  1.1466  0.4256
 6418TIP3   OH240668   2.509   0.747  12.943  0.3182  0.7540  0.6933
 6418TIP3    H140669   2.488   0.832  12.905  0.7884  0.4191 -0.3462
 6418TIP3    H240670   2.511   0.687  12.869 -0.2650 -0.2241  1.4426
 6419TIP3   OH240671   5.797   0.614   0.262 -0.3048 -0.0938  0.5954
 6419TIP3    H140672   5.735   0.610   0.189  0.4831  1.0036 -0.1729
 6419TIP3    H240673   5.808   0.707   0.279  0.3655 -0.3079  1.3824
 6420TIP3   OH240674   4.015   5.648   2.089 -0.5163 -0.1559  0.1544
 6420TIP3    H140675   4.015   5.598   2.007 -1.6643  1.7668 -1.0890
 6420TIP3    H240676   4.107   5.649   2.117 -0.1403 -1.0323 -0.9873
 6421TIP3   OH240677   0.948   4.768   0.044  0.0049  0.1565  0.2255
 6421TIP3    H140678   0.913   4.851   0.074 -0.2810  0.2164 -0.2563
 6421TIP3    H240679   0.912   4.703   0.105 -2.3290  0.0089 -1.2072
 6422TIP3   OH240680   5.618   5.742  14.726  0.1335 -0.5662 -0.4562
 6422TIP3    H140681   5.537   5.786  14.700  0.2864  0.9581  1.3986
 6422TIP3    H240682   5.589   5.664  14.772 -0.2596 -0.4937 -0.5757
 6423TIP3   OH240683   6.513   6.132  15.491 -0.0521 -0.3726 -0.0274
 6423TIP3    H140684   6.452   6.059  15.489  0.3787 -0.7337 -0.0066
 6423TIP3    H240685   6.592   6.099  15.449  0.1571  0.0731  0.0058
 6424TIP3   OH240686   1.587   3.492  17.022  0.3256  0.0942  0.2602
 6424TIP3    H140687   1.621   3.403  17.013 -0.8403 -0.3425 -0.0491
 6424TIP3    H240688   1.651   3.547  16.977  1.8234 -0.3764  1.6993
 6425TIP3   OH240689   2.403   3.872  14.823  0.9488  0.3499  0.2283
 6425TIP3    H140690   2.354   3.803  14.868  2.3146 -1.9770 -1.6139
 6425TIP3    H240691   2.487   3.874  14.868  1.5265 -0.4450 -0.7756
 6426TIP3   OH240692   2.964   5.962   1.571 -0.0523 -0.1733  0.1316
 6426TIP3    H140693   3.005   5.966   1.485  0.9364 -2.4181  0.4449
 6426TIP3    H240694   2.875   5.995   1.556 -0.6473 -2.5562 -2.2731
 6427TIP3   OH240695   2.241   0.724   5.301 -0.6366 -0.0812  0.0742
 6427TIP3    H140696   2.269   0.634   5.316 -0.5967 -0.1679 -0.4950
 6427TIP3    H240697   2.169   0.737   5.363 -0.7680 -0.5672  0.0276
 6428TIP3   OH240698   0.962   4.036   2.198 -0.4172 -0.1674  0.8428
 6428TIP3    H140699   0.937   4.115   2.246  0.4977  1.5302 -1.3048
 6428TIP3    H240700   0.915   4.043   2.115  2.5404  0.1605 -0.9371
 6429TIP3   OH240701   4.106   0.390   3.149  0.5342  0.1866 -0.2084
 6429TIP3    H140702   4.125   0.483   3.141  1.3079  0.1006  0.5020
 6429TIP3    H240703   4.178   0.355   3.202 -1.1506 -0.3171  1.8709
 6430TIP3   OH240704   3.016   3.359  14.935  0.0605 -0.1091  0.2245
 6430TIP3    H140705   2.954   3.411  14.882 -0.7379 -0.2348  1.0054
 6430TIP3    H240706   2.999   3.269  14.909  0.5359 -0.0813 -0.1918
 6431TIP3   OH240707   2.139   2.368  11.725  0.4266  0.5635 -0.5946
 6431TIP3    H140708   2.078   2.416  11.781  0.3962 -1.8533  1.6269
 6431TIP3    H240709   2.084   2.311  11.672  0.5872 -1.1186  0.9260
 6432TIP3   OH240710   2.009   6.749  16.534  0.4599  0.2770 -0.2591
 6432TIP3    H140711   1.942   6.781  16.594  0.4576  2.0434 -1.1267
 6432TIP3    H240712   2.053   6.679  16.581  0.0071  1.1364  1.5073
 6433TIP3   OH240713   5.044   6.042  12.872 -0.3922  0.3141  0.2985
 6433TIP3    H140714   5.058   6.128  12.911 -0.3290  0.0123  0.9446
 6433TIP3    H240715   5.030   6.061  12.779 -1.3610  1.1141  0.5784
 6434TIP3   OH240716   4.389   5.215  17.131 -0.2114  0.5051 -0.3121
 6434TIP3    H140717   4.464   5.158  17.111 -1.4081 -1.9918  1.7425
 6434TIP3    H240718   4.332   5.207  17.054 -0.0438 -0.5849 -0.3449
 6435TIP3   OH240719   3.516   6.469  11.600 -0.1193 -0.2781 -0.3860
 6435TIP3    H140720   3.529   6.449  11.507  0.6909  0.3186 -0.4191
 6435TIP3    H240721   3.603   6.493  11.631 -0.4637 -0.0543  0.4302
 6436TIP3   OH240722   0.067   5.584   5.703 -0.1025 -0.4702  0.7560
 6436TIP3    H140723   0.097   5.552   5.618 -0.7883 -1.1304  0.7491
 6436TIP3    H240724  -0.026   5.561   5.706 -0.7664  1.9656  0.5662
 6437TIP3   OH240725   4.622   1.699  14.016  0.6121 -0.7000 -0.3005
 6437TIP3    H140726   4.564   1.656  14.079  2.2667 -3.7640 -0.6634
 6437TIP3    H240727   4.698   1.725  14.067 -0.0204  1.1512 -0.2475
 6438TIP3   OH240728   1.015   3.547   1.163 -0.4766 -0.5974 -0.2954
 6438TIP3    H140729   0.932   3.567   1.205 -1.1404  0.8523 -2.1506
 6438TIP3    H240730   1.057   3.632   1.149 -0.7189 -0.8693 -3.2671
 6439TIP3   OH240731   0.093   3.268  12.268  0.7092  0.4214 -0.0700
 6439TIP3    H140732   0.076   3.338  12.331  0.1383 -0.8106  1.1835
 6439TIP3    H240733   0.162   3.215  12.307  2.1528  1.0443 -1.6622
 6440TIP3   OH240734   3.460   2.692  11.979  0.2619 -0.1034  0.4005
 6440TIP3    H140735   3.520   2.734  12.040 -0.3551 -0.6862  1.4447
 6440TIP3    H240736   3.421   2.764  11.930  0.4540  0.4105  0.9887
 6441TIP3   OH240737   6.202   5.178  12.638 -0.1377 -0.2275  0.9262
 6441TIP3    H140738   6.174   5.113  12.703 -1.3263 -0.9741 -0.3032
 6441TIP3    H240739   6.270   5.134  12.588 -0.0124 -0.0448  0.9339
 6442TIP3   OH240740   2.538   1.999  14.217  0.2146  0.1803 -0.1281
 6442TIP3    H140741   2.510   2.000  14.308 -1.6204 -1.5812 -0.6184
 6442TIP3    H240742   2.519   1.911  14.186  2.7695  0.0547 -1.6775
 6443TIP3   OH240743   3.007   5.185  12.240  0.5764  0.1214  0.4680
 6443TIP3    H140744   3.084   5.186  12.297  0.0696  0.8791  1.1498
 6443TIP3    H240745   2.955   5.111  12.272  0.6840  0.0362  0.4492
 6444TIP3   OH240746   5.085   6.297   4.499  0.3222  0.2790 -0.4377
 6444TIP3    H140747   5.156   6.357   4.521  0.6784 -0.4386  0.4545
 6444TIP3    H240748   5.115   6.212   4.530 -1.5584  0.2018  1.4371
 6445TIP3   OH240749   1.305   0.076  13.376 -0.1198  0.1343  0.2475
 6445TIP3    H140750   1.227   0.123  13.406 -0.6162 -1.7906  2.2128
 6445TIP3    H240751   1.353   0.054  13.456  0.0453 -2.6837 -0.5166
 6446TIP3   OH240752   5.811   2.440  13.659 -0.2197 -0.3114  0.1684
 6446TIP3    H140753   5.778   2.483  13.580  0.1257 -0.1266  0.1251
 6446TIP3    H240754   5.868   2.505  13.700  1.7331 -1.3161 -0.8277
 6447TIP3   OH240755   5.164   4.688   3.513  0.1713 -0.0320 -0.0582
 6447TIP3    H140756   5.084   4.728   3.480  0.9766  0.9120 -0.9633
 6447TIP3    H240757   5.164   4.599   3.476 -1.6114 -0.9511  1.9369
 6448TIP3   OH240758   5.610   0.035   2.912  0.2824 -0.0265  0.2213
 6448TIP3    H140759   5.646   0.042   2.824  0.9857 -1.1100  0.4184
 6448TIP3    H240760   5.542  -0.032   2.905 -0.2002  0.4398  0.3429
 6449TIP3   OH240761   4.371   3.071   4.703 -0.2954 -0.0379  0.0810
 6449TIP3    H140762   4.355   3.106   4.791  0.6755  0.2886  0.1425
 6449TIP3    H240763   4.300   3.108   4.650 -1.1640 -0.6117  0.8005
 6450TIP3   OH240764   4.777   1.405  14.660 -0.1967 -0.3777 -0.2624
 6450TIP3    H140765   4.821   1.357  14.590  0.1862 -0.5292  0.0764
 6450TIP3    H240766   4.733   1.337  14.712  0.4713 -0.3875  0.3053
 6451TIP3   OH240767   2.736   3.217  15.491 -0.4164  0.1834  0.2456
 6451TIP3    H140768   2.713   3.186  15.403 -0.4485  1.8516 -0.3631
 6451TIP3    H240769   2.830   3.200  15.499  0.2628  2.6419 -1.3192
 6452TIP3   OH240770   3.709   5.757   1.133 -0.0175  0.4489  0.0326
 6452TIP3    H140771   3.743   5.712   1.056  0.5364  0.4043  0.3033
 6452TIP3    H240772   3.676   5.687   1.189 -0.6396  0.4967 -0.2624
 6453TIP3   OH240773   1.637   2.625   6.162 -0.1236 -0.0729 -0.5985
 6453TIP3    H140774   1.696   2.563   6.205 -0.5626  0.7404  1.2882
 6453TIP3    H240775   1.549   2.590   6.177 -0.3082  0.4393 -0.4590
 6454TIP3   OH240776   4.931   0.737  11.555 -0.0274  0.4091 -0.2240
 6454TIP3    H140777   5.018   0.742  11.594  0.4432  0.6633 -1.2760
 6454TIP3    H240778   4.871   0.728  11.629  0.7429  1.9540  0.6136
 6455TIP3   OH240779   3.913   1.879   1.458  0.5615  0.0963 -0.1862
 6455TIP3    H140780   3.980   1.931   1.413  0.1272 -0.1483 -1.1299
 6455TIP3    H240781   3.848   1.943   1.487  2.1758  0.6395  2.6410
 6456TIP3   OH240782   3.667   4.613   5.073 -0.0807  0.3129  0.3315
 6456TIP3    H140783   3.646   4.562   5.152  0.2895 -0.1928  0.1048
 6456TIP3    H240784   3.589   4.667   5.059 -1.3018 -1.5787 -0.5195
 6457TIP3   OH240785   3.938   5.353   5.873  0.5052 -0.0799  0.3793
 6457TIP3    H140786   3.941   5.423   5.938  1.1678 -0.9460  1.3112
 6457TIP3    H240787   4.016   5.299   5.892 -0.8590 -2.0143  0.7773
 6458TIP3   OH240788   5.448   1.393   2.117 -0.1596 -0.3688  0.6567
 6458TIP3    H140789   5.489   1.414   2.201 -0.0307  1.7909  0.1175
 6458TIP3    H240790   5.419   1.478   2.083  3.5548 -0.3989 -3.4390
 6459TIP3   OH240791   4.158   0.330  16.277  0.3320 -0.0235 -0.4210
 6459TIP3    H140792   4.079   0.305  16.326  0.2343 -1.2496 -1.1560
 6459TIP3    H240793   4.222   0.263  16.300  0.7933  0.3157 -0.7173
 6460TIP3   OH240794   3.441   4.774  16.983  0.4292 -0.6638 -0.3187
 6460TIP3    H140795   3.486   4.690  16.989  0.3118 -0.7366 -0.4599
 6460TIP3    H240796   3.465   4.808  16.897  1.6139  0.0950  0.2799
 6461TIP3   OH240797   5.813   5.969  16.995 -0.3310 -0.6963  0.4019
 6461TIP3    H140798   5.809   6.056  16.956  1.0915 -0.2509  1.1533
 6461TIP3    H240799   5.806   5.984  17.089 -0.2658 -1.4048  0.5302
 6462TIP3   OH240800   5.834   0.697   0.910  0.2386  0.1444 -0.1640
 6462TIP3    H140801   5.751   0.682   0.954 -0.1234  0.0676 -0.8665
 6462TIP3    H240802   5.840   0.792   0.902  0.8513  0.2295  1.0722
 6463TIP3   OH240803   2.559   1.495   4.731 -0.4405 -0.2200  0.1006
 6463TIP3    H140804   2.642   1.542   4.738 -0.4425 -0.1987 -0.0105
 6463TIP3    H240805   2.492   1.563   4.736 -0.4172 -0.0837 -1.1179
 6464TIP3   OH240806   4.572   1.305   4.795  0.3643  0.5538  0.1628
 6464TIP3    H140807   4.493   1.354   4.815 -0.1358 -0.7154  1.4158
 6464TIP3    H240808   4.603   1.273   4.879  0.8636 -0.9882 -0.5647
 6465TIP3   OH240809   3.005   0.845   2.822 -0.6057 -0.6976 -0.0097
 6465TIP3    H140810   2.995   0.821   2.915 -0.7313  0.0305  0.1724
 6465TIP3    H240811   2.925   0.813   2.780 -1.0554 -0.0644  0.3438
 6466TIP3   OH240812   4.341   5.452  13.562 -0.1317  0.6875 -0.0663
 6466TIP3    H140813   4.358   5.468  13.655  1.1206  0.8284 -0.2948
 6466TIP3    H240814   4.405   5.507  13.517  2.0472 -2.2557 -0.9324
 6467TIP3   OH240815   0.979   4.801  14.585 -0.2562  0.3131 -0.4542
 6467TIP3    H140816   0.960   4.819  14.493 -1.1552 -1.8100 -0.7389
 6467TIP3    H240817   1.075   4.795  14.589 -0.0455  2.6519 -0.7419
 6468TIP3   OH240818   0.590   0.809   2.564  0.5311  0.3425  0.0497
 6468TIP3    H140819   0.593   0.901   2.592 -1.9527  0.3293  0.5151
 6468TIP3    H240820   0.666   0.769   2.606  0.4955  1.7231  1.5204
 6469TIP3   OH240821   2.999   6.137   3.870  0.5609 -0.5594  0.0781
 6469TIP3    H140822   3.037   6.131   3.783 -0.0659  0.8588 -0.3130
 6469TIP3    H240823   3.000   6.046   3.903 -0.0166 -1.2675 -1.7467
 6470TIP3   OH240824   6.633   0.223   4.816 -0.5659  0.0421 -0.3350
 6470TIP3    H140825   6.707   0.258   4.866 -0.6447 -0.1018 -0.1145
 6470TIP3    H240826   6.621   0.286   4.745 -0.7174  0.4735  0.0644
 6471TIP3   OH240827   2.042   0.600   0.925  0.2909 -0.1287  0.3311
 6471TIP3    H140828   1.969   0.545   0.955 -0.1327  0.0351 -0.3681
 6471TIP3    H240829   2.002   0.686   0.910  0.7856  0.1600  0.6678
 6472TIP3   OH240830   4.716   6.411   1.001 -0.0600  0.3150 -0.6287
 6472TIP3    H140831   4.674   6.330   0.971  0.1047  0.2913 -0.8004
 6472TIP3    H240832   4.806   6.386   1.022 -0.1221  0.3714 -0.2901
 6473TIP3   OH240833   4.648   3.097   1.916 -0.0215 -0.1197  0.8332
 6473TIP3    H140834   4.673   3.140   1.834  0.2324 -0.2607  0.8377
 6473TIP3    H240835   4.666   3.004   1.901  0.4533 -0.0914  1.2099
 6474TIP3   OH240836   1.222   5.812   4.867 -0.0371  0.1823  0.2502
 6474TIP3    H140837   1.180   5.897   4.855  0.0115 -0.1257 -3.0059
 6474TIP3    H240838   1.150   5.750   4.876 -0.1724  0.2153 -0.5625
 6475TIP3   OH240839   5.970   5.047  15.887 -0.0013  0.0811 -0.4360
 6475TIP3    H140840   6.047   5.023  15.938  0.0100 -0.9450 -0.9102
 6475TIP3    H240841   5.974   4.991  15.809 -0.2162  1.3340 -1.3939
 6476TIP3   OH240842   4.428   4.756   4.482  0.3178 -0.1816  0.2915
 6476TIP3    H140843   4.418   4.677   4.428 -0.3795 -0.4556  0.8042
 6476TIP3    H240844   4.424   4.724   4.572 -1.8978  0.6159  0.5394
 6477TIP3   OH240845   6.673   2.302   4.450  0.9278 -0.2519 -0.4668
 6477TIP3    H140846   6.763   2.336   4.447  0.8735 -0.1103 -0.4938
 6477TIP3    H240847   6.622   2.364   4.398  1.0913 -1.1766 -1.7935
 6478TIP3   OH240848   6.067   4.939   6.459  0.1790 -0.1551 -0.0080
 6478TIP3    H140849   6.057   5.024   6.504 -0.5703 -0.2163 -0.0534
 6478TIP3    H240850   6.148   4.948   6.409  0.4720  0.2884  0.5381
 6479TIP3   OH240851   4.535   0.690  11.994 -0.0750  0.2518  0.5273
 6479TIP3    H140852   4.490   0.727  11.918  1.8739 -1.0190 -1.3690
 6479TIP3    H240853   4.514   0.597  11.991  0.6332  0.0667  1.0963
 6480TIP3   OH240854   4.620   0.609  16.231  0.2661  0.1059 -0.5680
 6480TIP3    H140855   4.644   0.701  16.239 -0.3590  0.2506 -0.3476
 6480TIP3    H240856   4.534   0.610  16.188  0.6956 -0.4165 -1.4688
 6481TIP3   OH240857   4.111   0.250  15.744 -0.2842  0.6667  0.2499
 6481TIP3    H140858   4.022   0.216  15.736 -0.0696  0.1038  0.2065
 6481TIP3    H240859   4.112   0.294  15.829 -0.1561 -0.7470  1.0138
 6482TIP3   OH240860   1.901   0.954  16.721 -0.2183 -0.3950 -0.1746
 6482TIP3    H140861   1.849   0.878  16.697 -1.8332  0.2729  0.9876
 6482TIP3    H240862   1.934   0.934  16.808  1.4644 -0.7769 -0.8716
 6483TIP3   OH240863   3.046   2.499  11.782 -0.3026 -0.2398 -0.8924
 6483TIP3    H140864   3.135   2.489  11.749 -0.5597 -1.1310 -1.3553
 6483TIP3    H240865   3.048   2.579  11.834  0.8140 -0.3548 -0.7412
 6484TIP3   OH240866   5.438   4.103   3.481 -0.0476  0.1621  0.1271
 6484TIP3    H140867   5.419   4.164   3.409 -2.5406  1.8264  1.9825
 6484TIP3    H240868   5.402   4.019   3.452  0.0182  0.5115 -1.0075
 6485TIP3   OH240869   5.987   2.508  16.099  0.0354 -0.4701 -0.1940
 6485TIP3    H140870   5.924   2.553  16.154 -0.0294 -0.2220 -0.4661
 6485TIP3    H240871   5.991   2.561  16.019 -0.4146 -1.2240 -0.7232
 6486TIP3   OH240872   1.598   0.558  16.895 -0.0838  0.3153 -0.2398
 6486TIP3    H140873   1.567   0.619  16.963  0.5790  1.6035 -1.0554
 6486TIP3    H240874   1.586   0.471  16.934  0.6530  1.0234  1.6887
 6487TIP3   OH240875   4.470   0.862   6.610 -0.0714 -0.3391  0.0155
 6487TIP3    H140876   4.539   0.876   6.544  0.1752  0.6253  0.4603
 6487TIP3    H240877   4.475   0.940   6.665 -1.8509 -0.0164 -0.2431
 6488TIP3   OH240878   0.654   3.635   1.937  0.3039 -0.1158 -0.6703
 6488TIP3    H140879   0.707   3.591   1.871  0.1936 -0.0805 -0.7809
 6488TIP3    H240880   0.666   3.728   1.920  1.6795 -0.0467  0.4384
 6489TIP3   OH240881   3.940   0.967  14.192  0.1018  0.3935  0.7987
 6489TIP3    H140882   3.882   0.905  14.237 -0.8997  2.0832  1.9244
 6489TIP3    H240883   3.927   0.947  14.099 -2.3106  0.6712  0.9984
 6490TIP3   OH240884   4.025   0.251  10.975 -0.1308 -0.1538 -0.1210
 6490TIP3    H140885   3.973   0.326  10.946 -2.8548 -1.5424  0.8094
 6490TIP3    H240886   4.041   0.201  10.895 -0.4738  0.1326 -0.3749
 6491TIP3   OH240887   4.737   5.298   1.810 -0.0622  0.4219  0.2390
 6491TIP3    H140888   4.756   5.389   1.785 -0.6206  0.3409 -0.5195
 6491TIP3    H240889   4.818   5.267   1.850 -0.3671  1.7328  1.9489
 6492TIP3   OH240890   4.541   2.879  12.573 -0.4397  0.1211 -0.1448
 6492TIP3    H140891   4.582   2.943  12.515 -0.9869  0.1344 -0.5176
 6492TIP3    H240892   4.571   2.794  12.540  1.5812  0.1776  1.2958
 6493TIP3   OH240893   3.336   0.817  12.944  0.0404  0.4567 -0.1249
 6493TIP3    H140894   3.253   0.862  12.961 -0.0870 -0.0397  0.5797
 6493TIP3    H240895   3.363   0.783  13.029  0.9450  0.5610 -0.3618
 6494TIP3   OH240896   5.250   5.182  14.910  0.1015  0.4042  0.2523
 6494TIP3    H140897   5.194   5.165  14.834 -0.8102  2.5211  0.3812
 6494TIP3    H240898   5.276   5.095  14.940 -1.4921 -0.5866 -1.0271
 6495TIP3   OH240899   2.697   3.091   0.910 -0.4131 -0.1943  0.2754
 6495TIP3    H140900   2.658   3.098   0.823 -1.8377  2.7958  0.9999
 6495TIP3    H240901   2.622   3.091   0.970  0.3806  4.4505  1.6861
 6496TIP3   OH240902   5.744   1.786   4.274 -0.0331 -0.6438 -0.1681
 6496TIP3    H140903   5.678   1.777   4.343  0.4474 -0.4516  0.3287
 6496TIP3    H240904   5.816   1.835   4.316  0.5723 -1.1495 -0.5922
 6497TIP3   OH240905   4.592   0.874   1.903 -0.5936 -0.3439 -0.6637
 6497TIP3    H140906   4.547   0.925   1.836  0.9203  0.3364 -1.2048
 6497TIP3    H240907   4.671   0.926   1.924 -0.1906 -1.3516  0.4369
 6498TIP3   OH240908   3.928   0.116  12.894 -0.0555 -1.0041  0.0344
 6498TIP3    H140909   3.954   0.125  12.986  1.5372 -0.6273 -0.4220
 6498TIP3    H240910   3.836   0.090  12.898  0.3838 -2.4822  1.7592
 6499TIP3   OH240911   1.572   2.988   3.709  0.1790 -0.0875 -0.0024
 6499TIP3    H140912   1.512   2.966   3.638  0.1771 -2.0341  0.5651
 6499TIP3    H240913   1.605   3.075   3.685 -0.2357 -0.4437 -2.1036
 6500TIP3   OH240914   0.589   2.431  11.373  0.4069  0.2941 -0.2323
 6500TIP3    H140915   0.564   2.471  11.456 -0.4074  2.3563 -1.3990
 6500TIP3    H240916   0.508   2.391  11.341  0.2274  1.1535 -0.8872
 6501TIP3   OH240917   1.528   5.956  16.863  0.1329  0.2992  0.5626
 6501TIP3    H140918   1.519   5.957  16.959 -1.1336  0.8073  0.4686
 6501TIP3    H240919   1.605   5.903  16.846 -0.1207 -0.5202  1.8425
 6502TIP3   OH240920   5.257   0.798   5.334  0.0476  0.4714 -0.2405
 6502TIP3    H140921   5.281   0.739   5.404  0.5109 -0.2501 -0.9962
 6502TIP3    H240922   5.161   0.802   5.337 -0.0250 -0.7516 -0.5212
 6503TIP3   OH240923   0.581   3.478   2.547  0.0478 -0.7654 -0.0983
 6503TIP3    H140924   0.561   3.384   2.549 -0.8451 -0.5713  0.4794
 6503TIP3    H240925   0.647   3.487   2.478  0.9641 -1.9679  0.5879
 6504TIP3   OH240926   1.923   3.011   1.573  0.2091 -0.0348 -0.0615
 6504TIP3    H140927   2.011   3.007   1.608 -0.5418  0.4679  1.9948
 6504TIP3    H240928   1.868   2.974   1.642 -1.0384 -2.1064 -2.0142
 6505TIP3   OH240929   4.272   4.113  12.832  0.1133 -0.7988  0.4518
 6505TIP3    H140930   4.233   4.184  12.781 -2.0595 -4.3298 -3.4714
 6505TIP3    H240931   4.216   4.106  12.910 -0.4235  0.9539  0.2565
 6506TIP3   OH240932   3.689   3.531   2.659  0.1715  0.4536  0.1929
 6506TIP3    H140933   3.641   3.585   2.721 -0.4746 -0.6581  0.6856
 6506TIP3    H240934   3.692   3.583   2.579  0.2285  1.5236  0.8802
 6507TIP3   OH240935   1.342   5.403   1.362 -0.3666 -0.1424  0.0084
 6507TIP3    H140936   1.364   5.464   1.432  3.2653 -1.0271 -0.1786
 6507TIP3    H240937   1.371   5.318   1.395  0.6278 -0.7046 -2.1562
 6508TIP3   OH240938   2.378   0.851  15.869 -0.3244 -0.4023  0.3100
 6508TIP3    H140939   2.382   0.758  15.846 -0.4953 -0.2516 -0.3271
 6508TIP3    H240940   2.310   0.856  15.937 -0.7780 -0.6458 -0.1220
 6509TIP3   OH240941   3.373   6.678   4.102  0.5071 -0.0162 -0.1597
 6509TIP3    H140942   3.324   6.753   4.069 -0.2905 -0.4985 -0.1074
 6509TIP3    H240943   3.405   6.706   4.188  1.6361  0.8432 -0.8398
 6510TIP3   OH240944   0.162   6.574   6.632  0.0194 -0.2787 -0.0835
 6510TIP3    H140945   0.204   6.492   6.606  1.0365  0.1415  0.1774
 6510TIP3    H240946   0.217   6.643   6.593 -0.4873  0.2822  0.1820
 6511TIP3   OH240947   6.464   3.399   0.931  0.4400  0.2317 -0.3206
 6511TIP3    H140948   6.439   3.356   0.849 -0.5487 -1.3946  0.7993
 6511TIP3    H240949   6.546   3.356   0.956 -0.8124 -1.4586  1.0644
 6512TIP3   OH240950   4.273   6.489  13.875  0.4364 -0.9016 -0.0038
 6512TIP3    H140951   4.357   6.489  13.920  1.2347 -0.7314 -1.4470
 6512TIP3    H240952   4.270   6.572  13.829 -0.3895 -1.0460 -0.2323
 6513TIP3   OH240953   4.226   3.747   0.416 -0.8005  0.2239 -0.2928
 6513TIP3    H140954   4.191   3.770   0.330  0.4727 -1.3876 -1.3129
 6513TIP3    H240955   4.319   3.729   0.400 -0.4468  0.2539  1.5071
 6514TIP3   OH240956   5.213   0.196  15.938  0.4778  0.3752 -0.2273
 6514TIP3    H140957   5.270   0.129  15.976  0.2829  0.8180  0.8737
 6514TIP3    H240958   5.161   0.228  16.012 -1.0442  0.1479 -1.1610
 6515TIP3   OH240959   0.047   1.771  13.633 -0.6676 -0.0660  0.3048
 6515TIP3    H140960   0.099   1.691  13.621  0.6253  0.3705  2.3286
 6515TIP3    H240961  -0.036   1.741  13.670 -0.0998 -0.5111  1.2744
 6516TIP3   OH240962   4.630   1.490   1.486 -0.3089 -0.1960 -0.3039
 6516TIP3    H140963   4.673   1.418   1.439 -0.9220 -0.0037 -1.1978
 6516TIP3    H240964   4.643   1.566   1.429  0.2670  0.3882  0.5992
 6517TIP3   OH240965   1.469   0.565   4.035 -0.6739 -0.2125 -0.3989
 6517TIP3    H140966   1.412   0.641   4.048 -1.5042 -0.6495 -1.3782
 6517TIP3    H240967   1.437   0.500   4.099 -0.4391 -0.0026 -0.0667
 6518TIP3   OH240968   3.271   0.239  15.242  0.4514 -0.0347 -0.9980
 6518TIP3    H140969   3.324   0.319  15.245  3.1777 -1.7398  1.2400
 6518TIP3    H240970   3.303   0.192  15.164  0.0578  0.2477 -1.3382
 6519TIP3   OH240971   0.002   2.924   1.013 -0.4417 -0.1351  0.7410
 6519TIP3    H140972   0.031   2.933   0.922 -0.9843  1.8963  0.7238
 6519TIP3    H240973   0.082   2.921   1.064 -0.1050  2.0611  0.4259
 6520TIP3   OH240974   0.722   6.481  14.617 -0.0224 -0.1280 -0.1668
 6520TIP3    H140975   0.709   6.554  14.556 -0.1011 -0.0737 -0.0857
 6520TIP3    H240976   0.734   6.404  14.561  0.3567 -0.0057 -0.2588
 6521TIP3   OH240977   1.827   1.439  14.187  0.3413  0.4561 -0.3338
 6521TIP3    H140978   1.912   1.448  14.142  0.0062  0.8259 -0.9005
 6521TIP3    H240979   1.780   1.373  14.135  0.5231 -0.2244  0.3548
 6522TIP3   OH240980   5.993   6.382  11.495 -0.1669 -0.1213  0.2701
 6522TIP3    H140981   6.051   6.308  11.475  1.3946  1.8418 -3.4755
 6522TIP3    H240982   5.909   6.358  11.458  0.5144  0.1351 -1.5480
 6523TIP3   OH240983   1.949   3.340   3.100 -0.1537 -0.0032  0.0440
 6523TIP3    H140984   1.995   3.333   3.016  0.0529  1.9490 -0.0574
 6523TIP3    H240985   1.864   3.378   3.078  0.9525  3.3539  0.8859
 6524TIP3   OH240986   3.739   3.107  15.592  0.0133 -0.0900  0.2601
 6524TIP3    H140987   3.814   3.164  15.608  1.3732 -1.7962  0.2879
 6524TIP3    H240988   3.729   3.106  15.497 -1.1025  1.4584  0.3198
 6525TIP3   OH240989   4.207   4.657  15.352  0.2995  0.3398  0.0755
 6525TIP3    H140990   4.221   4.636  15.444  0.8878 -0.5007 -0.1931
 6525TIP3    H240991   4.265   4.597  15.305  0.9104  1.5715 -0.7949
 6526TIP3   OH240992   0.565   6.652   4.399  0.3571  0.0745 -0.2303
 6526TIP3    H140993   0.573   6.726   4.338 -0.4755 -1.0901 -1.8147
 6526TIP3    H240994   0.647   6.605   4.391  0.6199  0.4313  0.2793
 6527TIP3   OH240995   0.196   3.483  12.768 -0.0337  0.3148  0.0709
 6527TIP3    H140996   0.220   3.518  12.854  1.3850  0.9150 -0.5407
 6527TIP3    H240997   0.153   3.556  12.724 -0.8633 -0.0277  0.3044
 6528TIP3   OH240998   1.064   1.775   4.097  0.0968 -0.4838 -0.2257
 6528TIP3    H140999   1.117   1.729   4.031  0.0222 -0.5311 -0.2518
 6528TIP3    H241000   0.989   1.809   4.048 -0.2972 -1.0748 -0.0376
 6529TIP3   OH241001   3.311   4.591   3.061 -0.1696 -0.1556  0.5443
 6529TIP3    H141002   3.237   4.600   3.122 -0.3415 -0.8203  0.4468
 6529TIP3    H241003   3.271   4.596   2.974  0.0957  0.9440  0.4691
 6530TIP3   OH241004   3.825   6.340   5.369  0.1481 -0.0133  0.2599
 6530TIP3    H141005   3.778   6.347   5.452 -0.9076 -1.6090 -0.1462
 6530TIP3    H241006   3.880   6.262   5.378  1.8645  1.1515  0.2848
 6531TIP3   OH241007   1.127   0.856  11.702  0.3886  0.2480 -0.8160
 6531TIP3    H141008   1.039   0.821  11.713  0.3608  0.7150  0.6982
 6531TIP3    H241009   1.140   0.859  11.607 -1.3153  0.3794 -1.0832
 6532TIP3   OH241010   5.430   3.473   3.893 -0.1813  0.0018 -0.0163
 6532TIP3    H141011   5.335   3.480   3.885 -0.3153  0.2305  1.4941
 6532TIP3    H241012   5.458   3.559   3.924  0.7072  0.3650 -1.6965
 6533TIP3   OH241013   3.645   3.584  14.934 -0.2141 -0.2592 -0.3478
 6533TIP3    H141014   3.573   3.521  14.926 -1.0318  0.5155  0.6381
 6533TIP3    H241015   3.654   3.621  14.846 -0.8182 -0.5814 -0.5543
 6534TIP3   OH241016   4.297   0.643   3.128 -0.2327 -0.1122  0.2635
 6534TIP3    H141017   4.320   0.604   3.211 -1.1695 -2.4750 -0.4988
 6534TIP3    H241018   4.347   0.594   3.063  0.4209  1.6237 -0.6285
 6535TIP3   OH241019   0.188   4.385  10.899 -0.1865 -0.5224 -0.2961
 6535TIP3    H141020   0.135   4.332  10.840  0.0358  0.3844 -1.3258
 6535TIP3    H241021   0.278   4.368  10.872 -0.1202  0.5016 -0.7450
 6536TIP3   OH241022   1.683   5.124  17.137  0.0177 -0.1626  0.3081
 6536TIP3    H141023   1.740   5.183  17.186  0.0102  1.1618 -1.2089
 6536TIP3    H241024   1.599   5.171  17.132 -0.1016 -0.4661 -0.6194
 6537TIP3   OH241025   4.041   6.134   0.672 -0.0231 -0.0175  0.2333
 6537TIP3    H141026   3.982   6.173   0.737  0.3642  0.1777  0.4760
 6537TIP3    H241027   4.015   6.175   0.589 -0.3726 -0.0984  0.3008
 6538TIP3   OH241028   4.966   4.355  11.579 -0.2545  0.1312  0.1091
 6538TIP3    H141029   4.987   4.430  11.635 -0.0690 -0.6094  1.0611
 6538TIP3    H241030   4.970   4.280  11.638 -3.4631 -0.3275 -0.1141
 6539TIP3   OH241031   5.566   5.907   6.774 -0.4486  0.6073  0.1112
 6539TIP3    H141032   5.613   5.980   6.735 -1.5678  0.7506 -1.0187
 6539TIP3    H241033   5.634   5.840   6.787 -0.0597  0.4239 -2.4145
 6540TIP3   OH241034   4.506   4.934   3.766 -0.0840  0.0772  0.3970
 6540TIP3    H141035   4.592   4.908   3.798 -0.2866 -1.8071 -0.4412
 6540TIP3    H241036   4.516   4.940   3.671 -0.7073  0.5594  0.3528
 6541TIP3   OH241037   6.121   0.234  13.728 -0.2449  0.3725  0.1058
 6541TIP3    H141038   6.216   0.243  13.737 -0.2799 -0.5103  1.5830
 6541TIP3    H241039   6.086   0.285  13.801 -0.8807 -0.0606  0.1040
 6542TIP3   OH241040   1.756   6.684   3.138 -0.5378  0.9011  0.1297
 6542TIP3    H141041   1.758   6.632   3.058  1.0945  1.6367 -0.3475
 6542TIP3    H241042   1.790   6.769   3.112 -1.9779  1.8481  1.1641
 6543TIP3   OH241043   6.590   6.773  16.262 -0.5309  0.1242 -0.0214
 6543TIP3    H141044   6.585   6.689  16.309 -2.9808  1.1203  1.7606
 6543TIP3    H241045   6.516   6.770  16.201 -0.5181  0.8970 -0.0791
 6544TIP3   OH241046   2.966   0.356  12.112 -0.1089  0.3483 -0.5741
 6544TIP3    H141047   2.965   0.350  12.016 -0.7660  0.8940 -0.6121
 6544TIP3    H241048   3.008   0.275  12.141 -0.3438 -0.0451 -1.3070
 6545TIP3   OH241049   5.464   5.664   2.575  1.0200 -0.5133 -0.1327
 6545TIP3    H141050   5.518   5.674   2.497  2.9123 -0.2653  1.1476
 6545TIP3    H241051   5.433   5.574   2.572  2.3131 -0.9658 -0.4383
 6546TIP3   OH241052   4.426   0.546  14.894  0.3458 -0.2405  0.7630
 6546TIP3    H141053   4.513   0.584  14.906  1.0505 -1.2076 -0.8584
 6546TIP3    H241054   4.366   0.621  14.897  1.4192  0.6764  0.2403
 6547TIP3   OH241055   2.855   2.617   6.385  0.4787  0.9235  0.4644
 6547TIP3    H141056   2.926   2.667   6.344 -0.4256  0.8091 -1.3134
 6547TIP3    H241057   2.775   2.658   6.352 -0.2792 -0.9845 -0.1655
 6548TIP3   OH241058   0.237   4.302   3.763 -0.4589  0.5374 -0.4048
 6548TIP3    H141059   0.154   4.255   3.751 -1.0237  1.0034  1.3196
 6548TIP3    H241060   0.296   4.238   3.802 -1.7374  1.4680  3.5791
 6549TIP3   OH241061   3.158   0.985  12.693 -0.6368 -0.0089 -0.5282
 6549TIP3    H141062   3.124   1.045  12.758 -0.6034  0.1867 -0.6913
 6549TIP3    H241063   3.095   0.913  12.692 -1.0691  0.3682 -0.8548
 6550TIP3   OH241064   2.501   0.079   5.659 -0.4022 -0.0023 -0.0035
 6550TIP3    H141065   2.584   0.031   5.667 -0.7601 -0.4791  1.1210
 6550TIP3    H241066   2.450   0.051   5.735 -1.3621  0.7507 -0.3472
 6551TIP3   OH241067   6.719   6.360  14.727 -0.2287  0.5007  0.0484
 6551TIP3    H141068   6.709   6.431  14.663 -2.6559  0.1842 -0.0311
 6551TIP3    H241069   6.747   6.284  14.676  1.8970  1.2121  0.0580
 6552TIP3   OH241070   1.316   2.845  12.217 -0.1926 -0.1672  0.2004
 6552TIP3    H141071   1.352   2.770  12.170  2.3881  1.2680 -0.2977
 6552TIP3    H241072   1.226   2.819  12.237 -0.2089 -2.3847 -2.1261
 6553TIP3   OH241073   4.588   0.313  15.934 -0.2514  0.1399  0.3012
 6553TIP3    H141074   4.626   0.374  15.870 -1.5907  0.0375 -0.6260
 6553TIP3    H241075   4.662   0.287  15.988  1.0186 -0.0408 -1.4229
 6554TIP3   OH241076   2.137   1.086  16.213  0.2888 -0.6080 -0.4968
 6554TIP3    H141077   2.101   1.056  16.296 -1.6109  0.1788 -0.9730
 6554TIP3    H241078   2.230   1.066  16.218 -0.0042 -1.7262  1.2887
 6555TIP3   OH241079   6.381   5.638  12.706 -0.3146 -0.5246  0.5664
 6555TIP3    H141080   6.326   5.571  12.664 -1.8155  1.4461 -0.8272
 6555TIP3    H241081   6.446   5.661  12.638 -1.2766  1.0212  0.1215
 6556TIP3   OH241082   4.659   5.953   1.413 -0.4254  0.1895 -0.5421
 6556TIP3    H141083   4.747   5.929   1.382 -0.2606  0.1466 -0.0431
 6556TIP3    H241084   4.667   6.047   1.433 -0.5003  0.1886 -0.5116
 6557TIP3   OH241085   3.080   2.720   5.523  0.5818  0.8197 -0.0024
 6557TIP3    H141086   3.083   2.768   5.606  1.0526 -1.5891  1.4735
 6557TIP3    H241087   2.998   2.670   5.527  0.8488  0.3006 -0.7702
 6558TIP3   OH241088   3.448   6.253   2.744 -0.0278  0.2322  0.6865
 6558TIP3    H141089   3.378   6.288   2.799 -0.8816 -1.5520  0.7896
 6558TIP3    H241090   3.425   6.161   2.731  0.3775  0.4732 -2.3400
 6559TIP3   OH241091   5.206   5.401  12.678  0.5969 -0.5956 -0.2366
 6559TIP3    H141092   5.283   5.424  12.626  0.8544  0.6504  0.6343
 6559TIP3    H241093   5.134   5.397  12.615  0.5086  2.8511 -0.5320
 6560TIP3   OH241094   4.461   5.775   4.343  0.4697  0.0129  0.3185
 6560TIP3    H141095   4.408   5.704   4.378 -0.8284  0.7187 -0.1714
 6560TIP3    H241096   4.398   5.840   4.311  1.4361  2.9006  3.5818
 6561TIP3   OH241097   4.807   3.546   2.670  0.1310  0.1189  0.0297
 6561TIP3    H141098   4.857   3.471   2.638  1.2475  0.8644 -0.0217
 6561TIP3    H241099   4.775   3.518   2.756  2.1428  0.2265  0.8630
 6562TIP3   OH241100   6.466   3.191   4.913 -1.0117 -0.2049 -0.5482
 6562TIP3    H141101   6.541   3.157   4.961  0.2171  2.3458 -0.5081
 6562TIP3    H241102   6.499   3.206   4.824 -2.0780 -0.9713 -1.0889
 6563TIP3   OH241103   5.400   4.646  11.792  0.0150 -0.0760  0.1699
 6563TIP3    H141104   5.465   4.618  11.728 -0.9558 -1.3211 -0.3083
 6563TIP3    H241105   5.349   4.714  11.748 -0.1361 -0.3635 -0.1038
 6564TIP3   OH241106   4.547   5.564  14.908 -0.5955 -0.5983 -0.2225
 6564TIP3    H141107   4.532   5.471  14.927  0.3304 -1.0967 -1.7786
 6564TIP3    H241108   4.522   5.574  14.816 -1.2789  0.8547  0.0909
 6565TIP3   OH241109   0.890   5.897   1.594  0.8955 -0.9269 -0.7817
 6565TIP3    H141110   0.798   5.876   1.575  0.2387  0.6843  0.4019
 6565TIP3    H241111   0.936   5.878   1.512 -0.4864 -1.7235 -1.4163
 6566TIP3   OH241112   4.317   3.852   6.189 -0.2669  0.1356 -0.0392
 6566TIP3    H141113   4.359   3.893   6.113 -1.3961  1.2746 -0.0843
 6566TIP3    H241114   4.274   3.924   6.235 -0.6342 -0.7157  1.0069
 6567TIP3   OH241115   2.651   0.165   4.302  0.1067 -0.4364 -0.3208
 6567TIP3    H141116   2.599   0.231   4.348  2.3720  1.8739 -0.8445
 6567TIP3    H241117   2.623   0.082   4.340 -1.7686  0.9167  1.5077
 6568TIP3   OH241118   6.412   6.500  17.183  0.2348 -0.1763 -0.6830
 6568TIP3    H141119   6.433   6.547  17.103 -0.5077 -0.6995 -1.1892
 6568TIP3    H241120   6.492   6.452  17.205  0.9443  1.1491 -0.2572
 6569TIP3   OH241121   5.660   3.898   5.588  0.6755  0.3788 -0.3073
 6569TIP3    H141122   5.726   3.937   5.645  1.9972  0.0341 -1.5248
 6569TIP3    H241123   5.706   3.884   5.505 -1.3413  1.5132 -1.7213
 6570TIP3   OH241124   6.679   2.960   2.974  0.0633  0.1123 -0.3064
 6570TIP3    H141125   6.699   2.868   2.994 -1.6433  0.0839  1.6455
 6570TIP3    H241126   6.747   3.010   3.019 -0.3890 -0.1590  0.7127
 6571TIP3   OH241127   5.765   4.528   6.068 -0.3782 -0.1440 -0.0053
 6571TIP3    H141128   5.685   4.548   6.117 -1.4118 -2.0932 -0.7804
 6571TIP3    H241129   5.757   4.580   5.988 -0.5915  0.1216  0.1868
 6572TIP3   OH241130   1.982   1.885   6.497 -0.0372 -0.3749  0.3915
 6572TIP3    H141131   2.029   1.843   6.425 -0.1056 -1.0028  0.7022
 6572TIP3    H241132   1.921   1.818   6.527  0.1907 -0.2146  1.2170
 6573TIP3   OH241133   4.660   5.414  13.411  0.9326 -0.1641 -1.0392
 6573TIP3    H141134   4.647   5.505  13.384  1.3926  0.6321  1.2067
 6573TIP3    H241135   4.679   5.419  13.504 -1.4830 -2.7911 -0.2644
 6574TIP3   OH241136   3.595   4.250  14.076 -0.5839 -0.2631  0.5481
 6574TIP3    H141137   3.668   4.282  14.022 -1.0286  0.1350  0.1784
 6574TIP3    H241138   3.517   4.287  14.035 -1.0558 -1.2885  0.5114
 6575TIP3   OH241139   0.971   5.333   0.204  0.0153  0.1189  0.3025
 6575TIP3    H141140   1.017   5.253   0.179  1.4388  0.9112  0.2715
 6575TIP3    H241141   0.914   5.353   0.130 -0.4060 -0.8918  0.3460
 6576TIP3   OH241142   6.233   2.410  15.584  0.4765 -0.5303  0.5011
 6576TIP3    H141143   6.287   2.336  15.557 -1.9060 -2.2043 -0.0541
 6576TIP3    H241144   6.201   2.447  15.502 -0.9352 -0.9840  0.8166
 6577TIP3   OH241145   3.049   3.427   4.934  0.1135 -0.3454 -0.0888
 6577TIP3    H141146   3.098   3.422   4.852 -0.9572  1.6349 -0.9277
 6577TIP3    H241147   3.108   3.469   4.995 -0.1915  1.3160 -0.8737
 6578TIP3   OH241148   6.327   3.429  10.961 -0.1154  0.6462  0.6191
 6578TIP3    H141149   6.255   3.469  10.913  1.0045  2.7208  0.5798
 6578TIP3    H241150   6.401   3.432  10.900  0.3788 -0.1474  1.1599
 6579TIP3   OH241151   0.008   5.649  16.801  0.2858  0.5380 -0.4670
 6579TIP3    H141152   0.018   5.584  16.731 -1.0139 -0.3090  0.0875
 6579TIP3    H241153  -0.056   5.711  16.768  0.7383  0.9469 -0.5821
 6580TIP3   OH241154   6.707   6.200   0.746  0.0497 -0.5432  0.0686
 6580TIP3    H141155   6.777   6.199   0.811  0.0349 -1.0896  0.0843
 6580TIP3    H241156   6.747   6.163   0.667  0.8256  2.4409 -1.0790
 6581TIP3   OH241157   5.998   0.201  14.641 -0.0690  0.0594 -0.0917
 6581TIP3    H141158   6.055   0.267  14.601 -0.1086 -0.4322 -0.9992
 6581TIP3    H241159   5.963   0.152  14.566  0.6801 -1.5888  0.6019
 6582TIP3   OH241160   1.973   0.514  11.024 -0.3430 -0.4458  0.1805
 6582TIP3    H141161   1.936   0.578  11.084  0.5219  0.9905 -0.7555
 6582TIP3    H241162   1.909   0.507  10.954  0.4092  0.9090 -0.6878
 6583TIP3   OH241163   4.219   1.930   1.768 -0.9863 -0.5702 -0.1993
 6583TIP3    H141164   4.219   1.990   1.694  2.5785 -0.1501 -0.0259
 6583TIP3    H241165   4.158   1.861   1.743 -0.5612 -0.0140 -3.1657
 6584TIP3   OH241166   4.760   1.637  13.786  0.1970 -0.4557 -0.0829
 6584TIP3    H141167   4.820   1.698  13.743  0.6577  0.3098  1.5648
 6584TIP3    H241168   4.726   1.686  13.861 -0.7788 -1.6506  0.2924
 6585TIP3   OH241169   4.255   3.680   2.096 -0.3650 -0.0369 -0.2170
 6585TIP3    H141170   4.348   3.686   2.072 -0.1679 -0.0786  0.5257
 6585TIP3    H241171   4.230   3.591   2.073 -0.1396 -0.1270 -0.1096
 6586TIP3   OH241172   3.070   6.471  15.087  0.1352 -0.7345 -0.0261
 6586TIP3    H141173   3.090   6.494  14.997 -0.0987 -1.0063 -0.1524
 6586TIP3    H241174   3.039   6.552  15.127  0.4648 -0.5602 -0.1217
 6587TIP3   OH241175   0.388   3.544   3.317  0.8105  0.5946  0.4339
 6587TIP3    H141176   0.313   3.587   3.274  1.2287  1.7035  0.7910
 6587TIP3    H241177   0.450   3.528   3.246 -0.6984 -2.6544 -0.3888
 6588TIP3   OH241178   1.872   2.878  12.630  0.2427 -0.4397 -0.2747
 6588TIP3    H141179   1.934   2.807  12.646  0.0331 -1.0812 -2.1274
 6588TIP3    H241180   1.924   2.947  12.590  0.0125 -0.4500 -0.5929
 6589TIP3   OH241181   4.441   1.883  14.693  0.0436  0.9050 -0.6538
 6589TIP3    H141182   4.443   1.973  14.660  1.0991  1.7088  1.4288
 6589TIP3    H241183   4.527   1.870  14.734 -0.4734 -0.6768  0.0262
 6590TIP3   OH241184   4.455   4.406   5.290  0.0774 -0.3993  0.6370
 6590TIP3    H141185   4.431   4.433   5.379  0.4871 -0.8626  0.8928
 6590TIP3    H241186   4.394   4.336   5.269 -2.1216  1.7421 -0.6802
 6591TIP3   OH241187   4.720   0.685  13.205  0.4494  0.5036 -0.0234
 6591TIP3    H141188   4.744   0.659  13.293  2.4088  0.9877 -0.3766
 6591TIP3    H241189   4.715   0.603  13.156  0.6536  0.3368  0.2336
 6592TIP3   OH241190   6.460   6.251   4.967  0.1729 -0.1845  0.1902
 6592TIP3    H141191   6.397   6.291   4.907  1.1040 -0.5101 -1.0492
 6592TIP3    H241192   6.438   6.158   4.968  0.7349 -0.3344 -0.4097
 6593TIP3   OH241193   1.300   0.558   1.046  0.4442 -0.2674 -0.2302
 6593TIP3    H141194   1.241   0.612   0.994 -0.9203 -1.0255  0.4766
 6593TIP3    H241195   1.364   0.525   0.983  0.2571  0.7307 -0.9753
 6594TIP3   OH241196   2.176   3.136  14.479 -0.1165  0.3860 -0.1673
 6594TIP3    H141197   2.250   3.195  14.467  0.4184  0.4223  2.6561
 6594TIP3    H241198   2.099   3.191  14.471  0.3110  1.0701  0.3468
 6595TIP3   OH241199   2.595   4.511   4.541 -0.3457 -0.5156 -0.0226
 6595TIP3    H141200   2.513   4.506   4.493 -1.0249 -0.3251  1.0764
 6595TIP3    H241201   2.660   4.476   4.481 -1.6114 -3.0974 -0.0007
 6596TIP3   OH241202   0.390   4.723   1.552 -0.2712 -0.4688 -0.0176
 6596TIP3    H141203   0.359   4.813   1.560 -0.3904 -0.6032  1.2339
 6596TIP3    H241204   0.471   4.730   1.501  0.3020  0.4899  0.9778
 6597TIP3   OH241205   4.328   4.692  11.960  0.1891 -0.0665  0.5087
 6597TIP3    H141206   4.276   4.733  12.030 -0.4251  0.3755 -0.1891
 6597TIP3    H241207   4.400   4.753  11.944 -0.4141  0.4945 -0.1457
 6598TIP3   OH241208   5.547   3.682   4.647  0.0420  0.0017  0.0501
 6598TIP3    H141209   5.532   3.774   4.667  0.2585 -0.2364  1.4108
 6598TIP3    H241210   5.530   3.674   4.554 -0.6433  1.2846  0.0531
 6599TIP3   OH241211   5.760   5.069  16.058 -0.5806 -0.2683  0.7012
 6599TIP3    H141212   5.754   5.160  16.084 -0.4696 -0.7279  2.4618
 6599TIP3    H241213   5.836   5.066  15.999 -1.2099  0.9219 -0.2102
 6600TIP3   OH241214   4.733   4.156  11.928 -0.0612 -0.4253  0.3820
 6600TIP3    H141215   4.670   4.097  11.886  0.7822 -0.0722 -1.4974
 6600TIP3    H241216   4.680   4.230  11.959 -0.6422 -0.3323 -0.7880
 6601TIP3   OH241217   1.404   5.256   4.164 -0.3628 -1.0600 -0.3618
 6601TIP3    H141218   1.447   5.174   4.185 -0.9847 -0.9408  1.5280
 6601TIP3    H241219   1.322   5.254   4.214 -0.2970  0.7929 -0.1095
 6602TIP3   OH241220   5.511   1.690  12.863  0.2311  0.4473 -0.5916
 6602TIP3    H141221   5.566   1.753  12.816  0.0345  0.4413 -0.8326
 6602TIP3    H241222   5.570   1.618  12.884  0.7550  1.2556  0.7787
 6603TIP3   OH241223   6.134   2.520   3.940  0.0153  0.2415  0.4411
 6603TIP3    H141224   6.174   2.468   4.009 -1.5604 -0.5906  0.7855
 6603TIP3    H241225   6.143   2.468   3.861  0.3529  0.4401  0.3470
 6604TIP3   OH241226   2.434   1.661  16.323  0.3572  0.6465 -0.0943
 6604TIP3    H141227   2.365   1.611  16.366  1.3420 -0.0113  0.7667
 6604TIP3    H241228   2.499   1.596  16.297  0.4089  1.1884 -1.4034
 6605TIP3   OH241229   0.044   0.907  13.862  0.0619  0.0287  0.0668
 6605TIP3    H141230   0.068   0.868  13.777  0.6059  3.7834 -1.6856
 6605TIP3    H241231   0.114   0.880  13.921  0.2154 -1.8625 -0.8745
 6606TIP3   OH241232   0.388   3.843   6.776  0.4907  0.0800  0.1347
 6606TIP3    H141233   0.306   3.891   6.790 -0.7638 -0.8409 -3.1608
 6606TIP3    H241234   0.419   3.872   6.691  1.5575 -2.3802 -0.4019
 6607TIP3   OH241235   3.807   4.752   3.040 -0.6343  0.0179 -0.2820
 6607TIP3    H141236   3.824   4.685   3.106  1.2685 -0.6024 -1.3277
 6607TIP3    H241237   3.741   4.809   3.079 -2.5567 -2.6123  0.5328
 6608TIP3   OH241238   5.682   5.610   0.411  0.3438 -0.3564 -0.2163
 6608TIP3    H141239   5.664   5.670   0.483  0.7163 -0.6619  0.1342
 6608TIP3    H241240   5.660   5.523   0.445 -0.1478 -0.4282 -0.7054
 6609TIP3   OH241241   4.242   3.219  13.684 -0.6524 -0.8263 -0.5054
 6609TIP3    H141242   4.225   3.312  13.701 -0.3711 -0.6735 -1.0444
 6609TIP3    H241243   4.154   3.181  13.674 -0.7679 -0.5938 -0.3997
 6610TIP3   OH241244   6.505   3.042   0.036 -0.4795 -0.2283 -0.0769
 6610TIP3    H141245   6.444   3.115   0.036 -1.2132 -0.8337 -0.4205
 6610TIP3    H241246   6.550   3.049   0.121 -0.1363  0.9385 -0.3335
 6611TIP3   OH241247   0.937   1.876   3.067 -0.4795  0.0169  0.5039
 6611TIP3    H141248   1.017   1.824   3.073 -0.5766 -0.5274 -1.9140
 6611TIP3    H241249   0.965   1.959   3.028 -1.2817 -0.9958 -2.5303
 6612TIP3   OH241250   5.484   2.648   5.410  0.0630 -0.0504 -0.2805
 6612TIP3    H141251   5.541   2.720   5.436 -1.6876  1.4935 -0.5428
 6612TIP3    H241252   5.415   2.647   5.476 -0.4410 -0.8678 -0.8023
 6613TIP3   OH241253   1.018   4.396   2.839  0.1542  0.4806  0.3870
 6613TIP3    H141254   0.949   4.437   2.892 -0.7666  0.1645 -0.5379
 6613TIP3    H241255   0.996   4.303   2.839 -0.2682  0.5587 -1.1081
 6614TIP3   OH241256   5.704   0.947  13.688 -1.2409 -0.0705 -0.3392
 6614TIP3    H141257   5.762   0.878  13.721 -1.5621  0.1746  0.7688
 6614TIP3    H241258   5.647   0.967  13.762 -1.5814  0.9220 -0.8642
 6615TIP3   OH241259   5.721   0.516  16.294  0.1007  0.1297 -0.2598
 6615TIP3    H141260   5.685   0.441  16.247  0.5907 -1.5726  1.9195
 6615TIP3    H241261   5.799   0.482  16.338  1.2249  2.3218 -0.4157
 6616TIP3   OH241262   4.308   4.184   5.262 -0.1416  0.4265  0.5856
 6616TIP3    H141263   4.241   4.116   5.268  0.2308  0.0070  0.1164
 6616TIP3    H241264   4.335   4.182   5.171  1.2864 -0.1766  0.9969
 6617TIP3   OH241265   0.610   6.747  17.041 -0.3069  0.2889  0.0531
 6617TIP3    H141266   0.568   6.832  17.053  0.6177  0.7005  0.4733
 6617TIP3    H241267   0.684   6.747  17.102 -0.2381 -0.7844  0.0021
 6618TIP3   OH241268   2.942   2.408   3.221 -0.0768  0.6149 -0.2586
 6618TIP3    H141269   3.004   2.335   3.213  0.3196  1.1349 -2.3917
 6618TIP3    H241270   2.875   2.375   3.282  1.7863 -0.2790  1.4529
 6619TIP3   OH241271   5.128   4.270   0.712 -0.1276 -0.4946  0.1036
 6619TIP3    H141272   5.170   4.216   0.779  0.2330 -1.3612 -0.7748
 6619TIP3    H241273   5.045   4.225   0.695 -0.8679  0.5126  0.9484
 6620TIP3   OH241274   4.597   0.495   0.647  0.2363 -0.0280  0.3569
 6620TIP3    H141275   4.541   0.447   0.708 -0.8013  1.8422  0.9652
 6620TIP3    H241276   4.684   0.495   0.688 -0.2599  0.4996  1.4554
 6621TIP3   OH241277   0.426   0.056  13.543  0.2856 -0.5891 -0.3644
 6621TIP3    H141278   0.468   0.010  13.470 -0.0650  0.2794 -1.1411
 6621TIP3    H241279   0.362  -0.006  13.577  1.6291 -1.6448  0.3400
 6622TIP3   OH241280   6.316   4.380   4.951 -0.4694  0.1882 -0.3800
 6622TIP3    H141281   6.396   4.328   4.957 -0.8357 -0.2989  0.5109
 6622TIP3    H241282   6.305   4.417   5.038 -1.9794 -0.9449 -0.0351
 6623TIP3   OH241283   2.656   1.122   3.320 -0.1521  0.1357  0.1530
 6623TIP3    H141284   2.568   1.123   3.358  0.2032  0.7371  0.9789
 6623TIP3    H241285   2.655   1.194   3.257 -0.4147 -0.2090 -0.2473
 6624TIP3   OH241286   1.680   6.390   5.039 -0.2634  0.6250 -0.4133
 6624TIP3    H141287   1.712   6.311   4.995 -0.7813 -0.2144  0.6679
 6624TIP3    H241288   1.687   6.459   4.973 -2.7548 -0.9112 -2.4544
 6625TIP3   OH241289   4.704   5.609  16.493 -0.2127  0.0424  0.2242
 6625TIP3    H141290   4.671   5.564  16.571 -1.2729  2.6882  1.4279
 6625TIP3    H241291   4.786   5.649  16.521  0.4964 -0.7170 -0.6930
 6626TIP3   OH241292   0.402   5.586  16.134 -0.4860  0.0244 -0.3106
 6626TIP3    H141293   0.322   5.550  16.096 -0.0122 -1.1447 -0.2319
 6626TIP3    H241294   0.372   5.658  16.189 -1.4671 -0.2704 -0.4470
 6627TIP3   OH241295   5.422   5.927   5.043 -0.6724  0.2362  0.2666
 6627TIP3    H141296   5.486   5.951   5.109 -0.5459  0.3622  0.0979
 6627TIP3    H241297   5.446   5.978   4.965  2.8660 -4.0855 -1.9514
 6628TIP3   OH241298   1.722   3.156   3.152 -0.0761 -0.5654 -0.4601
 6628TIP3    H141299   1.744   3.242   3.117  0.5360 -0.8617 -0.8177
 6628TIP3    H241300   1.675   3.113   3.080 -2.3302  0.2268  0.4407
 6629TIP3   OH241301   4.198   2.590  13.912 -0.0251 -0.2569  0.0432
 6629TIP3    H141302   4.137   2.582  13.838  0.5516  0.2544 -0.4961
 6629TIP3    H241303   4.239   2.504  13.919  1.4247  0.2324 -1.5834
 6630TIP3   OH241304   6.581   0.906  16.191 -0.3952 -0.0753 -0.0794
 6630TIP3    H141305   6.579   0.994  16.228  0.1952  0.3752 -1.1001
 6630TIP3    H241306   6.601   0.849  16.266  0.3716  0.7782  0.3705
 6631TIP3   OH241307   0.722   2.692   4.124 -0.5026  0.9028 -0.5504
 6631TIP3    H141308   0.761   2.779   4.121  0.0552  0.6749 -0.1623
 6631TIP3    H241309   0.747   2.658   4.211 -2.3684  1.1216  0.1195
 6632TIP3   OH241310   6.096   4.144   6.437 -0.3855  0.1785  0.1103
 6632TIP3    H141311   6.080   4.225   6.389  0.4466  0.0865 -0.3278
 6632TIP3    H241312   6.160   4.167   6.504  0.5905 -0.3271 -0.6338
 6633TIP3   OH241313   4.165   0.175  12.635  0.6453 -0.0191 -0.0415
 6633TIP3    H141314   4.073   0.167  12.611  0.5052  1.3802 -0.0409
 6633TIP3    H241315   4.191   0.087  12.661 -1.1363 -0.1500  1.4924
 6634TIP3   OH241316   1.563   5.369  11.088 -0.0818 -0.2285 -0.7592
 6634TIP3    H141317   1.475   5.356  11.052 -0.1107 -1.1875 -0.3741
 6634TIP3    H241318   1.588   5.283  11.122  1.2046 -0.0908 -1.2975
 6635TIP3   OH241319   4.874   3.921   4.034  0.1828  0.2110 -0.0315
 6635TIP3    H141320   4.862   3.996   4.093 -0.4657  0.3291 -0.3055
 6635TIP3    H241321   4.837   3.847   4.083  1.1978 -0.0243  0.4130
 6636TIP3   OH241322   6.501   1.844  10.788 -0.4075  0.3156 -0.6511
 6636TIP3    H141323   6.537   1.878  10.870  0.5709 -1.7798 -0.1521
 6636TIP3    H241324   6.427   1.902  10.769  0.1303  1.6521  0.9944
 6637TIP3   OH241325   2.567   4.515  12.057  0.6562 -0.0608  0.0580
 6637TIP3    H141326   2.499   4.452  12.031  0.3586  0.5291 -0.6295
 6637TIP3    H241327   2.619   4.468  12.122 -1.1059 -0.1308  1.5114
 6638TIP3   OH241328   0.399   1.484  16.004 -0.1006  0.0508  0.0082
 6638TIP3    H141329   0.348   1.465  16.083  2.7109  1.9592  2.4904
 6638TIP3    H241330   0.465   1.415  16.002 -1.0274 -0.8571 -1.6512
 6639TIP3   OH241331   2.589   2.877  15.885 -0.0530 -0.5306 -0.1348
 6639TIP3    H141332   2.565   2.806  15.826 -4.9084 -0.6961  1.5752
 6639TIP3    H241333   2.571   2.957  15.835 -2.0071 -0.6767  0.2233
 6640TIP3   OH241334   3.763   4.235  11.761  0.1949  0.5293  0.3973
 6640TIP3    H141335   3.854   4.259  11.777  0.0102  2.4461 -1.0581
 6640TIP3    H241336   3.765   4.186  11.678 -0.1369  1.1265  0.0252
 6641TIP3   OH241337   3.513   3.554   0.537 -0.1080  0.1226 -0.1318
 6641TIP3    H141338   3.601   3.528   0.567  0.2832 -0.3844 -1.6358
 6641TIP3    H241339   3.454   3.496   0.585  0.5202 -0.8808 -0.5342
 6642TIP3   OH241340   3.393   3.933  12.774  0.5681  0.5177  0.0118
 6642TIP3    H141341   3.384   4.028  12.769 -0.9005  0.3543 -2.3001
 6642TIP3    H241342   3.481   3.915  12.741  1.4039  1.1036  1.8196
 6643TIP3   OH241343   4.737   4.072   3.223 -0.0707 -0.4621 -0.1190
 6643TIP3    H141344   4.796   4.024   3.165 -0.0727  0.4252 -0.8683
 6643TIP3    H241345   4.748   4.029   3.308  1.7303 -0.2551 -0.2149
 6644TIP3   OH241346   3.698   4.086  17.122  0.3511 -0.3788  0.3574
 6644TIP3    H141347   3.653   4.121  17.199 -2.0282  0.1881 -1.1619
 6644TIP3    H241348   3.629   4.080  17.055  2.2923 -0.9046 -1.7190
 6645TIP3   OH241349   5.014   3.066   0.239  0.6946 -0.0930  0.4735
 6645TIP3    H141350   5.012   3.122   0.317  2.3462 -0.0320  0.5200
 6645TIP3    H241351   5.003   3.127   0.166  1.2409  0.1372  0.5784
 6646TIP3   OH241352   6.214   3.523  12.522 -0.2261 -0.0404  0.0435
 6646TIP3    H141353   6.217   3.583  12.596 -0.5837  0.9677 -0.7432
 6646TIP3    H241354   6.306   3.509  12.499 -0.1508  1.2187 -0.5405
 6647TIP3   OH241355   4.668   3.129   1.288  0.5415 -0.4367  0.0701
 6647TIP3    H141356   4.714   3.077   1.354  0.7459 -1.0409 -0.5287
 6647TIP3    H241357   4.712   3.107   1.206 -0.3249 -0.4458 -0.4075
 6648TIP3   OH241358   2.459   3.966  13.891 -0.3572  0.4934  0.2723
 6648TIP3    H141359   2.422   4.019  13.962 -0.6113  1.8601 -0.8229
 6648TIP3    H241360   2.547   4.004  13.877 -0.8590  1.2309 -1.0811
 6649TIP3   OH241361   3.535   6.530   4.909 -0.8110  0.1602  0.1211
 6649TIP3    H141362   3.591   6.472   4.857  0.5697  0.7616  0.8741
 6649TIP3    H241363   3.501   6.594   4.845 -1.1164 -0.5549 -0.4456
 6650TIP3   OH241364   6.417   5.275   3.183  0.2414  0.1450 -0.4712
 6650TIP3    H141365   6.384   5.300   3.269  0.2430 -1.1234 -0.0861
 6650TIP3    H241366   6.511   5.287   3.188  0.0572  2.3831 -1.1078
 6651TIP3   OH241367   5.611   6.090   1.216  0.6079 -0.5231  0.8333
 6651TIP3    H141368   5.669   6.157   1.180  0.1998 -1.8017 -2.5677
 6651TIP3    H241369   5.537   6.139   1.252 -0.0649  0.9836 -2.2581
 6652TIP3   OH241370   0.724   6.689   4.912  0.0073  0.4088 -0.2365
 6652TIP3    H141371   0.796   6.731   4.959  1.4984 -0.2476 -1.8725
 6652TIP3    H241372   0.759   6.605   4.884 -0.9391  0.6403 -2.2168
 6653TIP3   OH241373   4.518   3.971  15.692  0.0386  0.5795 -0.3164
 6653TIP3    H141374   4.479   4.057  15.711 -0.6476  0.4702 -1.1573
 6653TIP3    H241375   4.602   3.991  15.651  0.3413  0.8335  0.4172
 6654TIP3   OH241376   3.292   0.857  16.806  0.4689  0.2390  0.7791
 6654TIP3    H141377   3.375   0.814  16.786  0.8229  0.1793  2.2661
 6654TIP3    H241378   3.268   0.825  16.893 -0.5885  1.0524  0.8180
 6655TIP3   OH241379   6.013   5.114  14.188  0.1758 -0.0427 -0.3059
 6655TIP3    H141380   6.015   5.053  14.261  0.4083 -0.8401 -0.9600
 6655TIP3    H241381   6.105   5.126  14.165  0.0908  0.0099 -0.6223
 6656TIP3   OH241382   3.183   6.629   0.050 -0.2880 -0.0520 -0.2609
 6656TIP3    H141383   3.135   6.546   0.047 -0.4339 -0.0883  1.6113
 6656TIP3    H241384   3.116   6.696   0.036 -0.2009 -0.2233 -1.5857
 6657TIP3   OH241385   3.209   0.095  13.151 -0.3653  0.2667 -0.0408
 6657TIP3    H141386   3.251   0.012  13.128  1.3459  1.6879 -2.5385
 6657TIP3    H241387   3.126   0.070  13.191  0.6039 -2.6279  0.4003
 6658TIP3   OH241388   2.108   1.077   0.299 -0.1320 -0.0341 -0.2732
 6658TIP3    H141389   2.138   0.986   0.297  2.7888  0.7586  1.7088
 6658TIP3    H241390   2.135   1.113   0.215 -1.6325 -1.0038 -1.2240
 6659TIP3   OH241391   0.879   5.940  16.887  0.0324 -0.5106 -0.2911
 6659TIP3    H141392   0.878   5.915  16.795  2.8877  0.0017 -0.5667
 6659TIP3    H241393   0.866   6.035  16.886 -2.8425 -0.8199  0.1381
 6660TIP3   OH241394   6.165   5.259   6.352  0.4119  0.4628  0.8496
 6660TIP3    H141395   6.148   5.250   6.446  1.3505  0.9193  1.0760
 6660TIP3    H241396   6.252   5.222   6.339  0.3397  0.5134  0.1798
 6661TIP3   OH241397   6.280   3.304  11.367  0.0940 -0.3987 -0.1356
 6661TIP3    H141398   6.193   3.266  11.359 -0.0137 -0.4688  1.0889
 6661TIP3    H241399   6.265   3.398  11.372 -0.0322 -0.4641  1.1425
 6662TIP3   OH241400   4.470   2.196   0.064 -0.8928 -0.4426  0.0098
 6662TIP3    H141401   4.503   2.174  -0.024  1.3888  0.4382  0.5881
 6662TIP3    H241402   4.391   2.142   0.073  0.1812 -2.4733 -1.6239
 6663TIP3   OH241403   0.863   3.434   0.945 -0.5973 -0.3329 -0.3804
 6663TIP3    H141404   0.770   3.452   0.952 -0.2460  1.8360 -0.7798
 6663TIP3    H241405   0.905   3.499   1.001  0.6724 -1.8859  0.5732
 6664TIP3   OH241406   2.001   0.908   4.460 -0.3251  0.2692 -0.0137
 6664TIP3    H141407   1.955   0.828   4.433  0.9044  0.6896 -4.0563
 6664TIP3    H241408   1.951   0.979   4.421  0.6697  1.1532  0.2669
 6665TIP3   OH241409   5.055   3.299  10.999  0.1868 -0.5441  0.1137
 6665TIP3    H141410   4.964   3.311  11.027  0.3614  0.3485  0.3246
 6665TIP3    H241411   5.082   3.217  11.041 -0.7204 -1.1660 -0.4854
 6666TIP3   OH241412   4.281   4.432   3.082  0.2871 -0.3571 -0.0047
 6666TIP3    H141413   4.321   4.468   3.161  0.7486  0.2996 -0.5282
 6666TIP3    H241414   4.249   4.346   3.109  1.3576 -0.5705  0.6301
 6667TIP3   OH241415   2.253   2.294   1.745  0.6263 -0.2806  0.2735
 6667TIP3    H141416   2.334   2.273   1.791  0.4181  1.3242  1.5100
 6667TIP3    H241417   2.198   2.335   1.812 -1.1049 -1.0502 -0.6039
 6668TIP3   OH241418   0.059   3.647  11.382 -0.2537 -0.0251 -0.4825
 6668TIP3    H141419   0.049   3.735  11.418 -1.2684  0.0138 -0.8169
 6668TIP3    H241420   0.149   3.643  11.351  0.8836 -0.2586  2.5627
 6669TIP3   OH241421   3.374   2.987   0.469 -0.5896 -0.1726  0.2320
 6669TIP3    H141422   3.282   3.009   0.451 -0.6941 -1.3356 -0.8219
 6669TIP3    H241423   3.370   2.904   0.516 -0.0644 -1.3032 -1.6115
 6670TIP3   OH241424   1.383   4.159  16.572  0.0145  0.0024 -0.5786
 6670TIP3    H141425   1.358   4.248  16.596 -0.0994 -0.3212  0.5953
 6670TIP3    H241426   1.477   4.156  16.588 -0.2833 -0.6375  1.4003
 6671TIP3   OH241427   2.516   0.387   5.816 -0.0859 -1.0545  0.1688
 6671TIP3    H141428   2.487   0.332   5.889  0.3004 -0.6663  0.6279
 6671TIP3    H241429   2.610   0.399   5.832  0.2370 -1.8817 -1.0020
 6672TIP3   OH241430   0.994   2.809  15.710 -0.5775 -0.1479 -0.4971
 6672TIP3    H141431   1.065   2.825  15.772 -1.5738  1.5654  0.2795
 6672TIP3    H241432   1.036   2.807  15.625  0.7726 -2.1649  0.1463
 6673TIP3   OH241433   0.723   0.470   3.818 -0.1782  0.3368  0.5607
 6673TIP3    H141434   0.796   0.452   3.879  0.4605  0.9987  0.0117
 6673TIP3    H241435   0.765   0.475   3.732 -1.0283 -0.2431  0.1072
 6674TIP3   OH241436   3.336   5.429  13.541  0.1828  0.1979 -0.0338
 6674TIP3    H141437   3.263   5.367  13.531 -1.7256  1.7124  2.9204
 6674TIP3    H241438   3.409   5.375  13.571 -1.0260 -0.8726  1.1589
 6675TIP3   OH241439   4.371   4.701  14.897  0.3979  0.0453  0.0154
 6675TIP3    H141440   4.410   4.615  14.914 -0.0514  0.0238  0.9993
 6675TIP3    H241441   4.383   4.749  14.979 -1.6270  0.0360  0.3546
 6676TIP3   OH241442   6.389   4.616  16.273  0.1367 -0.1212 -0.1620
 6676TIP3    H141443   6.361   4.642  16.186 -1.4213 -1.1155  0.0094
 6676TIP3    H241444   6.352   4.528  16.285 -0.3237  0.2994  1.7852
 6677TIP3   OH241445   6.695   2.336  12.068  0.4590  0.0405 -0.0185
 6677TIP3    H141446   6.614   2.343  12.119  0.0431  0.7164 -0.7568
 6677TIP3    H241447   6.726   2.427  12.060  0.2034  0.0184 -1.4677
 6678TIP3   OH241448   3.400   3.612  16.721  0.0086  0.9124  0.0878
 6678TIP3    H141449   3.447   3.634  16.801  0.7400  2.3327 -0.7016
 6678TIP3    H241450   3.468   3.607  16.654 -0.7813  1.4980 -0.7818
 6679TIP3   OH241451   3.058   5.609  16.555  0.2465  0.4082  0.3640
 6679TIP3    H141452   3.034   5.640  16.642 -1.9318 -2.2463  0.8313
 6679TIP3    H241453   3.052   5.687  16.499  1.6840  2.1747  2.4869
 6680TIP3   OH241454   1.928   2.976   3.259 -0.0543 -0.2621 -0.3347
 6680TIP3    H141455   1.890   3.061   3.237 -0.0479 -0.0330  0.5286
 6680TIP3    H241456   1.898   2.918   3.189  0.5311  0.6039 -1.3326
 6681TIP3   OH241457   3.999   4.047   5.872 -0.2925  0.5932 -0.4247
 6681TIP3    H141458   4.039   4.134   5.863 -0.1733  0.8513  1.9366
 6681TIP3    H241459   4.070   3.986   5.851  0.3387  1.0655  0.3013
 6682TIP3   OH241460   5.146   4.524  11.707 -0.5895 -0.2720 -0.1930
 6682TIP3    H141461   5.211   4.575  11.755 -0.7332  0.3533 -0.6607
 6682TIP3    H241462   5.189   4.501  11.625 -0.1574 -1.7760  0.3981
 6683TIP3   OH241463   5.390   3.402   1.377 -0.1749  0.3330 -0.0772
 6683TIP3    H141464   5.319   3.419   1.438 -0.9332 -2.3315 -0.0867
 6683TIP3    H241465   5.455   3.354   1.428  1.6625  2.6276 -0.0918
 6684TIP3   OH241466   5.278   4.826  15.832 -0.5306  0.0030  0.0135
 6684TIP3    H141467   5.187   4.853  15.823 -0.3286  0.3502 -1.0469
 6684TIP3    H241468   5.274   4.738  15.871 -1.4619 -1.4280 -3.0326
 6685TIP3   OH241469   3.002   5.559  16.069  0.2524  0.0877  0.1136
 6685TIP3    H141470   3.022   5.639  16.021 -0.6132 -0.4734 -1.2336
 6685TIP3    H241471   3.081   5.542  16.121  0.3400  1.9420  0.6474
 6686TIP3   OH241472   0.774   2.259   2.297 -0.1958 -0.3377 -0.2568
 6686TIP3    H141473   0.818   2.290   2.218 -0.8599  1.9733  0.1869
 6686TIP3    H241474   0.845   2.246   2.360  0.1250  0.3693 -0.4594
 6687TIP3   OH241475   3.360   6.436  12.761 -0.0337  0.8051 -0.4642
 6687TIP3    H141476   3.276   6.477  12.783 -0.5892  0.0940 -1.1965
 6687TIP3    H241477   3.336   6.358  12.710  0.9459 -0.6796  1.1998
 6688TIP3   OH241478   3.987   4.952   4.954 -0.3608  0.0283  0.1417
 6688TIP3    H141479   4.026   4.925   4.871  0.0865  0.8008  0.0955
 6688TIP3    H241480   3.953   4.870   4.991  0.0030 -0.4289 -0.4974
 6689TIP3   OH241481   5.659   0.121  14.954  0.2957  0.1730  0.6302
 6689TIP3    H141482   5.721   0.088  14.889  1.6353  1.8428  0.9772
 6689TIP3    H241483   5.646   0.047  15.014  0.7224 -0.7047 -0.3298
 6690TIP3   OH241484   2.775   1.719  12.745 -0.0188  0.4142 -0.0527
 6690TIP3    H141485   2.697   1.742  12.795 -0.1308  1.0201 -0.4821
 6690TIP3    H241486   2.840   1.693  12.810 -0.7924 -0.7554  0.2631
 6691TIP3   OH241487   4.319   0.899   6.390 -0.1151  0.9558  0.4165
 6691TIP3    H141488   4.412   0.912   6.412  0.1062 -2.0983  1.6720
 6691TIP3    H241489   4.272   0.948   6.457  0.5626  1.2801  0.6734
 6692TIP3   OH241490   2.076   4.091   4.652 -0.4302 -0.2152 -0.1050
 6692TIP3    H141491   1.991   4.054   4.629  0.1546 -2.1084  0.6594
 6692TIP3    H241492   2.133   4.067   4.580 -0.6238  1.5978 -0.9321
 6693TIP3   OH241493   1.679   6.506  15.160  0.1525 -0.2245  0.4684
 6693TIP3    H141494   1.640   6.539  15.241 -1.2785  1.1209 -0.6923
 6693TIP3    H241495   1.756   6.457  15.188  0.7193  1.6759  2.5263
 6694TIP3   OH241496   1.004   1.461   2.408 -0.0531  0.3102  0.4342
 6694TIP3    H141497   1.024   1.390   2.468  1.3868  0.4222  0.1031
 6694TIP3    H241498   0.932   1.427   2.354 -0.5571 -0.2208  1.4165
 6695TIP3   OH241499   3.718   0.388   2.563 -0.1117 -0.2007 -0.5406
 6695TIP3    H141500   3.757   0.418   2.481  0.5612  0.2662 -0.0719
 6695TIP3    H241501   3.641   0.338   2.537 -1.2241  1.8185 -1.3808
 6696TIP3   OH241502   0.381   3.312  11.045  0.1579  0.0919 -0.2447
 6696TIP3    H141503   0.428   3.338  10.966  1.0965 -0.3664  0.1466
 6696TIP3    H241504   0.418   3.227  11.068 -3.0084 -1.8428 -1.6432
 6697TIP3   OH241505   3.800   0.152   1.329  0.1972 -0.0339  0.0633
 6697TIP3    H141506   3.837   0.139   1.242  2.8664 -3.5166  1.4572
 6697TIP3    H241507   3.866   0.204   1.375  0.2880 -0.8184  0.8334
 6698TIP3   OH241508   0.692   0.914   4.659 -0.1162  0.1650 -0.4412
 6698TIP3    H141509   0.708   0.962   4.578  1.1271  0.1687 -0.2162
 6698TIP3    H241510   0.639   0.839   4.633  0.8425 -0.2051 -1.3853
 6699TIP3   OH241511   0.368   3.220  11.973 -0.1284  0.0563  0.2295
 6699TIP3    H141512   0.422   3.297  11.954 -2.0053  1.3232 -0.2200
 6699TIP3    H241513   0.278   3.248  11.954 -0.8520 -2.3472 -0.2422
 6700TIP3   OH241514   6.113   4.977  13.458  0.2260  0.1588 -0.1523
 6700TIP3    H141515   6.066   5.002  13.538  0.6074  0.6823 -0.0858
 6700TIP3    H241516   6.097   4.883  13.449 -2.6881  0.6512 -1.3515
 6701TIP3   OH241517   1.172   0.021  15.212  0.3290 -0.2465  0.1455
 6701TIP3    H141518   1.152   0.026  15.118 -1.4324  0.2558  0.5091
 6701TIP3    H241519   1.267   0.025  15.216  0.4450 -0.1897 -1.6180
 6702TIP3   OH241520   4.061   3.352   4.878 -0.0252  0.2006  0.2725
 6702TIP3    H141521   4.028   3.273   4.922  0.0544  0.2200  0.3688
 6702TIP3    H241522   4.065   3.329   4.786  2.0871 -0.6667  0.5266
 6703TIP3   OH241523   3.241   6.412   5.764  0.1329  0.8222  0.2310
 6703TIP3    H141524   3.185   6.487   5.745 -0.0221  0.7785  0.5060
 6703TIP3    H241525   3.211   6.344   5.704 -0.8843  0.4292  1.1445
 6704TIP3   OH241526   4.856   3.295   2.061  0.8545  0.1712  0.3464
 6704TIP3    H141527   4.933   3.317   2.009  2.0494 -2.0154  1.0649
 6704TIP3    H241528   4.808   3.232   2.008 -0.0430  0.8998  0.2594
 6705TIP3   OH241529   5.448   0.971  12.052  0.1542 -0.0128 -0.4938
 6705TIP3    H141530   5.530   0.971  12.002  1.0514 -0.3268  0.9266
 6705TIP3    H241531   5.475   0.979  12.143 -1.4341  0.3265 -0.0153
 6706TIP3   OH241532   1.691   2.580   0.453  0.4063 -0.0599 -0.0771
 6706TIP3    H141533   1.596   2.594   0.450  0.0203 -1.6651  1.7404
 6706TIP3    H241534   1.721   2.639   0.522  0.7313  0.4463 -0.6520
 6707TIP3   OH241535   5.764   1.212   2.114 -0.1924 -0.1278 -0.3347
 6707TIP3    H141536   5.759   1.307   2.124  0.0167 -0.0832 -0.6325
 6707TIP3    H241537   5.838   1.198   2.056  0.3233 -0.5308  0.4115
 6708TIP3   OH241538   1.971   2.461  15.601 -0.2746 -0.4285 -0.1331
 6708TIP3    H141539   1.983   2.478  15.507 -0.4602 -0.0958 -0.0968
 6708TIP3    H241540   2.008   2.373  15.614 -1.3848 -1.0053 -0.7591
 6709TIP3   OH241541   6.008   5.214   2.160 -0.0536 -0.9078 -0.1731
 6709TIP3    H141542   6.046   5.250   2.079 -1.5390 -0.4840 -0.7090
 6709TIP3    H241543   5.937   5.273   2.182  0.1692 -1.1580  1.3411
 6710TIP3   OH241544   3.458   1.444  16.029  0.0661 -0.2425  0.4664
 6710TIP3    H141545   3.429   1.481  15.945 -0.4359 -1.0199  0.2871
 6710TIP3    H241546   3.413   1.496  16.095 -0.1383 -0.1165  0.2306
 6711TIP3   OH241547   0.057   2.720  11.051  0.2634 -0.9571 -0.4121
 6711TIP3    H141548   0.036   2.627  11.049 -0.3672 -0.8185 -0.4734
 6711TIP3    H241549   0.141   2.727  11.006 -0.2395 -1.3503 -1.4527
 6712TIP3   OH241550   1.515   4.481  13.634  0.1640 -0.2129 -0.5271
 6712TIP3    H141551   1.452   4.409  13.622 -0.4747  0.1527  0.5064
 6712TIP3    H241552   1.467   4.545  13.686  1.4010  0.0883  0.2579
 6713TIP3   OH241553   2.351   5.627   6.280  0.4326 -0.0253  0.2071
 6713TIP3    H141554   2.277   5.670   6.236 -0.6136 -0.3891  1.5512
 6713TIP3    H241555   2.363   5.545   6.232  0.7643  0.5547 -0.7514
 6714TIP3   OH241556   1.177   3.847  14.218 -0.1652 -0.9085  0.3278
 6714TIP3    H141557   1.202   3.835  14.309 -1.1344 -1.1734  0.5785
 6714TIP3    H241558   1.102   3.906  14.222  1.2442  1.0343 -0.4958
 6715TIP3   OH241559   6.697   6.047   5.309  0.2327 -0.0462  0.2515
 6715TIP3    H141560   6.668   5.958   5.332 -1.3418  0.5550  0.7301
 6715TIP3    H241561   6.714   6.042   5.215 -0.3604 -0.7348  0.1633
 6716TIP3   OH241562   4.597   6.397   4.817  0.2037 -0.2382  0.3742
 6716TIP3    H141563   4.668   6.452   4.784 -0.2063  0.1159  0.0618
 6716TIP3    H241564   4.622   6.308   4.791  0.9707 -0.2342  1.0674
 6717TIP3   OH241565   1.427   3.717   0.172 -0.0934  0.9547 -0.4373
 6717TIP3    H141566   1.442   3.757   0.087  0.3522 -0.3867 -1.0187
 6717TIP3    H241567   1.505   3.738   0.223  0.2293  0.6395 -0.8040
 6718TIP3   OH241568   0.249   2.774  13.800 -0.0863  0.2541  0.1336
 6718TIP3    H141569   0.210   2.862  13.796 -0.6751  0.0581  1.2236
 6718TIP3    H241570   0.294   2.764  13.716 -0.9852  1.1459 -0.4746
 6719TIP3   OH241571   1.675   4.009  15.905 -0.1390 -0.2074 -0.0238
 6719TIP3    H141572   1.769   4.005  15.886 -0.0493  0.3290  0.2750
 6719TIP3    H241573   1.650   4.099  15.885 -0.4037 -0.1110  0.7103
 6720TIP3   OH241574   3.550   3.171  14.061  0.1307 -0.4031  0.2581
 6720TIP3    H141575   3.486   3.195  14.127 -1.2075 -0.4734 -0.9760
 6720TIP3    H241576   3.619   3.125  14.110  0.2274  1.3615  1.8809
 6721TIP3   OH241577   4.411   4.759   4.760  0.0682  0.4350  0.0897
 6721TIP3    H141578   4.408   4.792   4.849 -0.4592 -0.3785  0.3923
 6721TIP3    H241579   4.504   4.758   4.737  0.1630  1.1410  0.4351
 6722TIP3   OH241580   0.905   1.515   3.281  0.1276  0.5673  0.3555
 6722TIP3    H141581   0.818   1.506   3.241 -0.3951 -0.5347  1.6691
 6722TIP3    H241582   0.958   1.450   3.236  0.7972  2.3743 -1.6474
 6723TIP3   OH241583   5.204   5.169   5.647  0.1370 -0.0770  0.0241
 6723TIP3    H141584   5.118   5.160   5.687  0.3174 -0.7047  0.2921
 6723TIP3    H241585   5.233   5.079   5.632  1.4968  0.0649  1.5857
 6724TIP3   OH241586   6.091   4.544  14.702 -0.2577 -0.0185 -0.5097
 6724TIP3    H141587   6.141   4.500  14.632 -0.5308 -1.1603 -0.0096
 6724TIP3    H241588   5.999   4.530  14.678 -0.3540 -0.4374  0.0856
 6725TIP3   OH241589   3.033   6.491  10.939 -0.2752 -0.1587  0.3266
 6725TIP3    H141590   2.950   6.530  10.912  0.1543 -0.2649 -1.2203
 6725TIP3    H241591   3.036   6.407  10.894  1.4016  0.5686 -1.0416
 6726TIP3   OH241592   5.186   2.617   1.426  0.3153 -0.8697 -0.3360
 6726TIP3    H141593   5.146   2.572   1.352  0.0796  0.7828 -1.2587
 6726TIP3    H241594   5.280   2.611   1.410  0.3473 -1.9277  0.1279
 6727TIP3   OH241595   4.360   4.298  13.264 -0.0518 -0.2206 -0.7483
 6727TIP3    H141596   4.299   4.372  13.262 -0.1452 -0.2531  0.3153
 6727TIP3    H241597   4.323   4.239  13.330  0.8586 -0.4750 -0.4566
 6728TIP3   OH241598   5.871   2.334  12.756 -0.1838 -0.1719 -0.1169
 6728TIP3    H141599   5.836   2.247  12.737 -2.9636  0.0539  3.0178
 6728TIP3    H241600   5.964   2.320  12.772 -0.5109 -2.4961  0.0023
 6729TIP3   OH241601   0.548   5.378   2.284 -0.1691  0.3896  0.4643
 6729TIP3    H141602   0.571   5.333   2.365 -1.4432  1.2698  1.3539
 6729TIP3    H241603   0.477   5.327   2.246  0.4530 -0.0458 -0.1500
 6730TIP3   OH241604   3.240   1.773  13.673 -0.0249 -0.0561 -0.1214
 6730TIP3    H141605   3.154   1.786  13.715 -0.3650 -0.6132 -0.6431
 6730TIP3    H241606   3.265   1.684  13.697 -1.4363 -1.4208 -3.1862
 6731TIP3   OH241607   6.029   2.683   4.177  0.4719 -0.2095 -0.2758
 6731TIP3    H141608   6.016   2.633   4.257 -1.1129  0.6140  0.0172
 6731TIP3    H241609   6.058   2.618   4.112 -1.3244 -1.5047  0.1390
 6732TIP3   OH241610   3.634   5.417   1.620 -0.5413  0.2063 -1.1709
 6732TIP3    H141611   3.646   5.341   1.563  1.4087 -0.3799 -0.0868
 6732TIP3    H241612   3.539   5.428   1.626 -0.8626 -1.8277 -1.7829
 6733TIP3   OH241613   0.043   3.246  15.457  0.2664  0.2110 -0.6128
 6733TIP3    H141614   0.002   3.174  15.409  0.9570 -1.5123  1.2432
 6733TIP3    H241615  -0.030   3.295  15.495 -0.2944  1.5700 -3.1965
 6734TIP3   OH241616   1.703   4.561  15.095  0.3702 -0.6266 -0.1880
 6734TIP3    H141617   1.614   4.563  15.059  0.7323  3.7158 -1.3931
 6734TIP3    H241618   1.755   4.609  15.031  2.7251  0.4834  2.3699
 6735TIP3   OH241619   5.412   3.604  11.748  0.2150  0.0828  0.3696
 6735TIP3    H141620   5.435   3.529  11.694 -1.2671 -1.5876  1.9031
 6735TIP3    H241621   5.490   3.621  11.801  0.6148 -0.2660 -0.1010
 6736TIP3   OH241622   0.230   1.333  15.480 -0.2232 -0.3898  0.0217
 6736TIP3    H141623   0.307   1.287  15.513  0.0471 -0.4023 -0.6034
 6736TIP3    H241624   0.264   1.390  15.411 -0.3154  1.8128  1.6664
 6737TIP3   OH241625   4.400   4.341   0.404  0.1202 -0.0868 -0.4573
 6737TIP3    H141626   4.394   4.396   0.482 -0.7980  1.8391 -1.8173
 6737TIP3    H241627   4.320   4.359   0.355  1.0627 -0.5636 -2.2656
 6738TIP3   OH241628   3.466   0.391   3.363  0.4071  0.7669 -0.0870
 6738TIP3    H141629   3.439   0.316   3.415 -0.8917  1.7739  0.7254
 6738TIP3    H241630   3.551   0.416   3.400  0.0764  0.7155  0.7156
 6739TIP3   OH241631   2.462   3.862   4.554 -0.5018 -0.2159  0.5103
 6739TIP3    H141632   2.452   3.801   4.480 -0.9380 -2.9113  2.6038
 6739TIP3    H241633   2.395   3.928   4.539 -0.5258 -0.6196 -1.5180
 6740TIP3   OH241634   5.035   1.282  13.842 -0.5574  0.5994  0.0924
 6740TIP3    H141635   5.067   1.232  13.767  1.3269  0.1469  1.1428
 6740TIP3    H241636   5.092   1.358  13.847  0.3285 -0.1149  1.8978
 6741TIP3   OH241637   5.713   4.610  16.516 -0.5075 -0.5954 -0.3329
 6741TIP3    H141638   5.731   4.593  16.608  1.6091  0.2055 -0.5423
 6741TIP3    H241639   5.749   4.534  16.470  1.3419  0.4263 -0.6734
 6742TIP3   OH241640   1.137   3.173   0.238 -0.0593 -0.1451 -0.0988
 6742TIP3    H141641   1.180   3.129   0.165  0.7267  0.5085 -0.0445
 6742TIP3    H241642   1.078   3.236   0.197  1.4926  1.2978 -0.2116
 6743TIP3   OH241643   1.957   4.618   1.591  0.0671  0.1981  0.0843
 6743TIP3    H141644   1.966   4.675   1.515  0.2666  1.2095  0.8584
 6743TIP3    H241645   1.893   4.662   1.647  0.9196  0.1384  1.1227
 6744TIP3   OH241646   5.531   1.375   5.495 -0.0368  0.1621 -0.4801
 6744TIP3    H141647   5.438   1.381   5.516 -0.3724 -2.3885 -0.8825
 6744TIP3    H241648   5.573   1.347   5.577 -0.0982 -1.4938 -0.9745
 6745TIP3   OH241649   2.439   6.736   5.891 -0.0350 -0.0093  0.2842
 6745TIP3    H141650   2.392   6.771   5.966 -0.8425  0.5918 -0.4892
 6745TIP3    H241651   2.378   6.676   5.849 -0.0881  0.6510 -0.6325
 6746TIP3   OH241652   2.426   4.492  16.502 -0.3239 -0.5825 -0.3744
 6746TIP3    H141653   2.467   4.493  16.588 -0.6552  0.7142 -0.1962
 6746TIP3    H241654   2.411   4.400  16.483 -0.9676 -0.8727  1.3206
 6747TIP3   OH241655   1.957   4.910  14.803  0.2236 -0.3932  0.2477
 6747TIP3    H141656   1.863   4.928  14.803 -0.1078 -1.9904  0.6186
 6747TIP3    H241657   1.992   4.964  14.732 -0.5384  2.1829  1.6775
 6748TIP3   OH241658   4.760   2.412   3.646 -0.0278  0.0310 -0.1693
 6748TIP3    H141659   4.840   2.381   3.603  0.7332  2.7282 -0.8743
 6748TIP3    H241660   4.691   2.397   3.581  0.4573  0.4584 -0.8033
 6749TIP3   OH241661   5.834   5.609  13.243 -0.0958 -0.1258  0.5693
 6749TIP3    H141662   5.802   5.520  13.232 -0.0428 -0.1852  0.8660
 6749TIP3    H241663   5.848   5.617  13.338  2.9164 -0.8617  0.2957
 6750TIP3   OH241664   4.044   4.158  12.961 -0.6502 -0.3174 -0.0433
 6750TIP3    H141665   4.029   4.201  13.045  1.4104  0.5546 -0.0675
 6750TIP3    H241666   3.961   4.114  12.942 -1.2135 -0.4866  2.3921
 6751TIP3   OH241667   6.367   0.959  13.221  0.0518  0.7775  0.3642
 6751TIP3    H141668   6.345   0.867  13.236 -1.3700  1.2362  1.2412
 6751TIP3    H241669   6.297   0.992  13.165  1.2606  1.0283 -1.0623
 6752TIP3   OH241670   4.379   1.474   5.128  0.2312  0.2723  0.2219
 6752TIP3    H141671   4.361   1.550   5.184  0.4400 -0.0044  0.6691
 6752TIP3    H241672   4.450   1.428   5.173 -0.2457 -0.4667  0.2239
 6753TIP3   OH241673   0.482   0.504  13.915  0.0335  0.4852 -0.4614
 6753TIP3    H141674   0.492   0.470  14.004 -2.4672 -1.3298 -0.7654
 6753TIP3    H241675   0.477   0.427  13.860  0.9165  1.5683 -2.1569
 6754TIP3   OH241676   6.422   0.714   6.303 -0.0014 -0.7914  0.4742
 6754TIP3    H141677   6.436   0.634   6.253 -1.1951  0.3886 -2.0040
 6754TIP3    H241678   6.509   0.742   6.330  0.7033 -1.6863 -0.7719
 6755TIP3   OH241679   2.453   1.326   1.815 -0.3977 -0.0979  0.0433
 6755TIP3    H141680   2.407   1.332   1.732 -0.5679 -0.2627  0.1243
 6755TIP3    H241681   2.529   1.271   1.797  1.8949  3.1542 -1.0226
 6756TIP3   OH241682   0.890   4.476  14.197 -0.2694  0.4069  0.1851
 6756TIP3    H141683   0.977   4.468  14.236  0.4532  0.1597 -1.3656
 6756TIP3    H241684   0.846   4.543  14.248  1.3850  1.6278  0.0925
 6757TIP3   OH241685   6.330   2.525   2.593  0.1685 -0.2555 -0.3407
 6757TIP3    H141686   6.415   2.494   2.625 -0.6391 -2.5097 -0.1818
 6757TIP3    H241687   6.267   2.484   2.652 -1.0793  0.3407 -1.2363
 6758TIP3   OH241688   1.649   1.923  14.376 -0.2197  0.2235  0.3052
 6758TIP3    H141689   1.711   1.952  14.443  1.2967  2.2638 -1.8498
 6758TIP3    H241690   1.571   1.977  14.391  0.1028  0.6583  0.4212
 6759TIP3   OH241691   3.590   3.597   4.233  0.1704  0.3970  0.2211
 6759TIP3    H141692   3.662   3.657   4.254 -1.4147  2.4526  0.1461
 6759TIP3    H241693   3.564   3.560   4.318  1.5146 -0.6828  0.2007
 6760TIP3   OH241694   2.973   5.808   5.745 -0.3583  0.5701 -0.1025
 6760TIP3    H141695   3.060   5.770   5.734  0.0375  1.3160  0.3794
 6760TIP3    H241696   2.984   5.900   5.723 -1.5199  0.2597 -2.2541
 6761TIP3   OH241697   2.290   3.837  16.651 -0.0617 -0.3179  0.0274
 6761TIP3    H141698   2.202   3.851  16.688 -0.9171 -0.0883 -1.9386
 6761TIP3    H241699   2.328   3.925  16.647 -0.9896  0.0471 -1.9164
 6762TIP3   OH241700   4.309   3.865   1.070 -0.0333  0.4313 -0.2641
 6762TIP3    H141701   4.265   3.802   1.126 -0.8060  1.3935  0.2575
 6762TIP3    H241702   4.399   3.834   1.064  0.0928  0.3475  1.5850
 6763TIP3   OH241703   0.013   4.644   4.198 -0.9005 -0.5228  0.1038
 6763TIP3    H141704   0.020   4.644   4.293 -0.8124  0.8590  0.1049
 6763TIP3    H241705  -0.012   4.733   4.175 -0.1730 -0.6351 -1.2229
 6764TIP3   OH241706   5.571   0.118   2.281  0.3879  0.3822 -0.4252
 6764TIP3    H141707   5.480   0.089   2.292  0.8067 -0.9547 -0.2839
 6764TIP3    H241708   5.571   0.208   2.313 -0.8360  0.3369 -0.2153
 6765TIP3   OH241709   3.856   6.208   4.341 -0.0273 -0.3470  0.2557
 6765TIP3    H141710   3.828   6.132   4.393  0.4763 -0.0406  0.9895
 6765TIP3    H241711   3.824   6.189   4.253  0.5682 -1.6933  0.2919
 6766TIP3   OH241712   6.182   3.422  11.909 -0.0288 -0.3878 -0.0527
 6766TIP3    H141713   6.181   3.342  11.960  1.9770 -0.6546 -0.3607
 6766TIP3    H241714   6.270   3.458  11.920 -0.7365  1.5778 -0.2394
 6767TIP3   OH241715   5.958   3.070  14.762  0.3034  0.4488 -0.7278
 6767TIP3    H141716   5.950   3.131  14.689 -1.8992  2.5208  1.1013
 6767TIP3    H241717   6.025   3.108  14.818 -0.4368  0.7507 -0.0250
 6768TIP3   OH241718   2.269   5.633  15.561  0.5397  0.0838 -0.0460
 6768TIP3    H141719   2.340   5.570  15.568  0.8627  0.5461  0.9984
 6768TIP3    H241720   2.248   5.635  15.468  2.9339  1.0484 -0.6400
 6769TIP3   OH241721   0.390   6.668   5.206 -0.2763  0.0961 -0.1370
 6769TIP3    H141722   0.386   6.744   5.148 -0.2174 -0.0648 -0.3530
 6769TIP3    H241723   0.406   6.705   5.293 -0.8201  0.3716 -0.1459
 6770TIP3   OH241724   3.794   1.678   2.461 -0.3682 -0.0703 -0.0370
 6770TIP3    H141725   3.845   1.626   2.400 -1.4542 -0.2679 -0.8066
 6770TIP3    H241726   3.839   1.762   2.466  1.5643 -1.1189  1.4291
 6771TIP3   OH241727   4.449   2.199   3.158 -0.2125 -0.0925 -0.0540
 6771TIP3    H141728   4.404   2.115   3.170  0.0588 -0.3476 -0.7847
 6771TIP3    H241729   4.452   2.211   3.063 -1.5363  1.4385  0.0407
 6772TIP3   OH241730   4.829   5.860   0.191 -0.0493  0.1993  0.1139
 6772TIP3    H141731   4.879   5.879   0.271 -0.6932 -1.6484  1.0031
 6772TIP3    H241732   4.738   5.862   0.219 -0.3196  0.2275 -0.7505
 6773TIP3   OH241733   1.625   4.423   1.339  0.4313 -0.3879  0.5301
 6773TIP3    H141734   1.583   4.361   1.280  0.7487 -0.7195  0.6483
 6773TIP3    H241735   1.696   4.373   1.379  1.4467  0.3663 -0.2583
 6774TIP3   OH241736   6.203   5.414  12.287  0.3701 -0.7246  0.7588
 6774TIP3    H141737   6.132   5.371  12.241 -0.2530 -0.8382  1.7841
 6774TIP3    H241738   6.241   5.474  12.223 -1.6373  0.4732  0.6286
 6775TIP3   OH241739   6.585   2.806   4.415 -0.4437 -0.1207  0.0415
 6775TIP3    H141740   6.501   2.769   4.388 -0.4425 -1.2665  1.4493
 6775TIP3    H241741   6.564   2.859   4.492  0.2257 -1.2239  1.0155
 6776TIP3   OH241742   0.201   3.105   4.439  0.0431 -0.2579 -0.3437
 6776TIP3    H141743   0.257   3.158   4.382  1.5896  0.3009  1.5966
 6776TIP3    H241744   0.228   3.127   4.528 -1.2331 -2.2065  0.6140
 6777TIP3   OH241745   3.884   4.207  13.679  0.3214 -0.2956  0.1633
 6777TIP3    H141746   3.913   4.117  13.694 -2.8584 -1.1346  2.3392
 6777TIP3    H241747   3.911   4.255  13.758  0.5345  0.2701 -0.2421
 6778TIP3   OH241748   4.733   0.668  13.972 -0.0568  0.3270  0.7655
 6778TIP3    H141749   4.804   0.729  13.948 -2.1905  2.2636 -1.1565
 6778TIP3    H241750   4.675   0.720  14.027 -1.6020 -0.1169 -0.3773
 6779TIP3   OH241751   2.266   2.534   0.643  0.2217  0.0089 -0.2955
 6779TIP3    H141752   2.327   2.575   0.581  0.1866  2.0325  0.9195
 6779TIP3    H241753   2.315   2.527   0.725 -0.9511  1.1614  0.5458
 6780TIP3   OH241754   5.518   3.293   6.754  0.3927  0.2231  0.3665
 6780TIP3    H141755   5.477   3.367   6.798  2.0790  0.6264  1.3163
 6780TIP3    H241756   5.612   3.311   6.758  0.7772 -1.4290 -0.3754
 6781TIP3   OH241757   0.140   1.143  15.084  0.1047 -0.1534 -0.3689
 6781TIP3    H141758   0.226   1.186  15.083  0.7050 -1.2483  1.0396
 6781TIP3    H241759   0.129   1.110  14.995  1.6669 -0.9640 -0.2962
 6782TIP3   OH241760   6.060   4.078   2.423 -0.2362 -0.0618 -0.6020
 6782TIP3    H141761   6.078   4.013   2.491 -2.3799  2.1304  2.3334
 6782TIP3    H241762   6.093   4.160   2.460 -2.4892  1.4105 -1.6463
 6783TIP3   OH241763   4.220   3.512  15.870 -0.0853  0.1345 -0.4859
 6783TIP3    H141764   4.219   3.497  15.776  2.3777 -0.2693 -0.5216
 6783TIP3    H241765   4.169   3.592  15.883 -1.4000 -0.4174 -1.9881
 6784TIP3   OH241766   2.242   5.312   4.220  0.2089  1.3352  0.2658
 6784TIP3    H141767   2.317   5.370   4.211  1.5690 -0.2688  0.6912
 6784TIP3    H241768   2.248   5.253   4.145 -0.3964  0.9511  0.5102
 6785TIP3   OH241769   5.659   3.109  14.825 -0.3466  0.5876 -0.2304
 6785TIP3    H141770   5.593   3.100  14.894 -0.9475  1.1967 -0.7082
 6785TIP3    H241771   5.739   3.133  14.871 -0.5561  0.2327  0.3216
 6786TIP3   OH241772   1.108   2.928   1.801  0.7722 -0.6927  0.0172
 6786TIP3    H141773   1.153   2.866   1.859 -0.8236 -0.9324  1.0865
 6786TIP3    H241774   1.146   3.013   1.823 -0.1950 -0.6878  1.9444
 6787TIP3   OH241775   2.979   1.409   3.481  0.0725  0.0897  0.2817
 6787TIP3    H141776   2.973   1.327   3.432 -1.9848 -0.2683  1.0369
 6787TIP3    H241777   3.044   1.391   3.550 -0.0004 -0.7432  0.1427
 6788TIP3   OH241778   5.378   1.337   6.153 -0.2969  0.3908 -0.0558
 6788TIP3    H141779   5.387   1.378   6.239 -1.3869  1.7994 -0.5749
 6788TIP3    H241780   5.467   1.331   6.120  0.1625 -0.3491  1.2338
 6789TIP3   OH241781   4.726   6.671   1.793  0.3643 -0.5864 -0.3520
 6789TIP3    H141782   4.751   6.580   1.778 -0.2650 -0.5716 -1.6507
 6789TIP3    H241783   4.735   6.683   1.888  3.2587 -1.1227 -0.4722
 6790TIP3   OH241784   1.983   0.166   3.608 -0.5835 -0.0791 -0.1509
 6790TIP3    H141785   1.927   0.103   3.655  0.3980 -0.0748  1.0736
 6790TIP3    H241786   2.054   0.185   3.669  0.5824  0.1851 -1.5297
 6791TIP3   OH241787   4.333   3.431  14.375 -0.2305 -0.7881  0.0986
 6791TIP3    H141788   4.365   3.368  14.310  0.1249  0.2199 -0.7403
 6791TIP3    H241789   4.367   3.515  14.344 -1.0706 -0.1265  0.9483
 6792TIP3   OH241790   1.688   1.428   3.488  0.0838 -0.1729 -0.2238
 6792TIP3    H141791   1.698   1.474   3.572  1.7505  0.6880 -0.8459
 6792TIP3    H241792   1.610   1.466   3.449  0.0548  0.3809  0.3493
 6793TIP3   OH241793   1.856   4.971   5.501  0.0117 -0.0257  0.1636
 6793TIP3    H141794   1.831   5.061   5.524 -0.0476 -0.2556  1.0453
 6793TIP3    H241795   1.947   4.979   5.473 -1.1789  0.9806 -4.0692
 6794TIP3   OH241796   2.754   0.685   0.508  0.5308  0.2542 -0.3308
 6794TIP3    H141797   2.690   0.626   0.546  2.2640 -1.8628 -0.4834
 6794TIP3    H241798   2.746   0.766   0.558 -1.1053 -0.5076  0.7122
 6795TIP3   OH241799   2.718   0.168   1.735  0.3302  0.0397  0.9662
 6795TIP3    H141800   2.777   0.205   1.669 -0.0154  0.1999  0.7446
 6795TIP3    H241801   2.766   0.178   1.818  0.4847  0.4557  0.8323
 6796TIP3   OH241802   4.197   4.213  13.978 -0.4553  0.5794  0.1858
 6796TIP3    H141803   4.240   4.288  13.937  0.1444 -0.0356 -0.3253
 6796TIP3    H241804   4.149   4.250  14.052  1.5492  1.2021  1.2418
 6797TIP3   OH241805   0.010   0.115   0.535  0.3799 -0.4184 -0.7036
 6797TIP3    H141806  -0.046   0.182   0.496  0.7710  0.4045  0.1119
 6797TIP3    H241807   0.080   0.164   0.579 -0.1429 -1.2849  1.1775
 6798TIP3   OH241808   4.620   4.566  12.331  0.1107  0.1389 -0.0579
 6798TIP3    H141809   4.682   4.560  12.258  0.4568  1.3146  0.1187
 6798TIP3    H241810   4.534   4.572  12.289  0.3476  1.3632 -0.4099
 6799TIP3   OH241811   2.690   2.668   5.345 -0.5929  0.2123 -0.3012
 6799TIP3    H141812   2.764   2.636   5.397 -0.9503 -2.2308 -1.1755
 6799TIP3    H241813   2.614   2.657   5.402 -0.7374 -0.7421 -0.6570
 6800TIP3   OH241814   4.043   3.688   2.689  0.3823  0.6879  0.0405
 6800TIP3    H141815   4.128   3.688   2.734 -0.2733 -3.1260  1.7047
 6800TIP3    H241816   3.980   3.709   2.758 -0.2046  1.5523 -0.7379
 6801TIP3   OH241817   2.193   5.230   3.520  0.3301  0.0362 -0.0819
 6801TIP3    H141818   2.136   5.254   3.594 -0.3292  0.2302 -0.6461
 6801TIP3    H241819   2.273   5.282   3.534  0.4735 -0.4195  0.8465
 6802TIP3   OH241820   4.379   5.516   1.690  0.1384 -0.0588  0.2958
 6802TIP3    H141821   4.462   5.521   1.738 -0.3079  1.5300  0.9587
 6802TIP3    H241822   4.361   5.606   1.663 -0.6700 -0.6039 -1.0868
 6803TIP3   OH241823   4.621   2.223   0.803  0.2828  0.1713 -0.2320
 6803TIP3    H141824   4.583   2.135   0.806 -1.2550  0.8008 -0.5499
 6803TIP3    H241825   4.562   2.277   0.855  1.5768  0.9081  0.5225
 6804TIP3   OH241826   0.898   2.103  14.900  0.6493 -0.6520 -0.1737
 6804TIP3    H141827   0.806   2.082  14.915  0.6433  0.9750  2.5626
 6804TIP3    H241828   0.897   2.153  14.819 -0.9762 -0.0476  0.1726
 6805TIP3   OH241829   2.818   5.739   2.549 -0.7819 -0.3887  0.0213
 6805TIP3    H141830   2.756   5.667   2.562  0.0667 -0.9247  1.3295
 6805TIP3    H241831   2.900   5.696   2.524  0.0656 -0.0207  1.9752
 6806TIP3   OH241832   0.969   5.862   5.370 -0.3748  0.0374  0.0101
 6806TIP3    H141833   0.953   5.917   5.446 -1.9784  0.3694 -0.5239
 6806TIP3    H241834   0.971   5.924   5.296  1.3195 -0.2564 -0.2240
 6807TIP3   OH241835   3.875   0.567  12.034  0.4887 -0.7836  0.0214
 6807TIP3    H141836   3.953   0.611  11.999  1.4316 -1.9013  0.6623
 6807TIP3    H241837   3.908   0.511  12.104 -0.9077 -1.2459  0.3435
 6808TIP3   OH241838   2.944   1.439  16.044  0.3001  0.1838  0.1886
 6808TIP3    H141839   2.919   1.350  16.069  3.6745 -0.5423  1.5931
 6808TIP3    H241840   2.931   1.491  16.124  0.4310  0.4627  0.0309
 6809TIP3   OH241841   1.291   6.548   5.497 -0.1938  1.0068 -0.0174
 6809TIP3    H141842   1.371   6.513   5.458 -0.0150  1.1640  0.2025
 6809TIP3    H241843   1.303   6.533   5.591 -0.4251  1.0269  0.0138
 6810TIP3   OH241844   2.596   5.529   0.537  0.4676 -0.2871  0.1163
 6810TIP3    H141845   2.685   5.512   0.504  1.4273  0.1967  2.3119
 6810TIP3    H241846   2.587   5.624   0.534 -0.0610 -0.3443 -0.2419
 6811TIP3   OH241847   0.672   1.878  16.518 -0.0603 -0.5545 -0.6211
 6811TIP3    H141848   0.609   1.807  16.509  0.9108 -1.4686 -0.2983
 6811TIP3    H241849   0.757   1.838  16.502  0.4778  0.6136 -0.8207
 6812TIP3   OH241850   4.104   5.348  11.434 -0.3256  0.0329 -0.3905
 6812TIP3    H141851   4.011   5.372  11.429 -1.2219 -1.9901  3.0330
 6812TIP3    H241852   4.115   5.282  11.366 -1.0594  1.1131 -1.6001
 6813TIP3   OH241853   4.805   0.606   4.852 -0.3227  0.3145 -0.6368
 6813TIP3    H141854   4.837   0.606   4.942 -1.4906  1.9686 -0.1663
 6813TIP3    H241855   4.863   0.546   4.805 -1.2296 -2.6704  1.7442
 6814TIP3   OH241856   0.932   0.612   2.936  0.0115 -0.9818  0.4250
 6814TIP3    H141857   1.004   0.616   2.999  0.2501 -0.8862  0.1461
 6814TIP3    H241858   0.873   0.546   2.972  0.5038 -1.4622  0.3698
 6815TIP3   OH241859   4.894   4.832   3.045 -0.0959 -0.0990 -0.2851
 6815TIP3    H141860   4.910   4.758   3.104 -0.2373 -1.2574 -1.6387
 6815TIP3    H241861   4.975   4.840   2.995 -0.6280 -0.3683 -1.2130
 6816TIP3   OH241862   0.020   0.092  16.432 -0.3012  0.0092 -0.3191
 6816TIP3    H141863  -0.037   0.069  16.359  0.0836  1.5209 -1.1418
 6816TIP3    H241864  -0.039   0.117  16.503 -0.6714 -1.1541 -0.1956
 6817TIP3   OH241865   3.016   0.071  14.458  0.1840  0.6717  0.0460
 6817TIP3    H141866   3.042  -0.020  14.478 -1.8581  0.2949  1.2059
 6817TIP3    H241867   2.955   0.094  14.527 -1.5297  1.9477 -1.7968
 6818TIP3   OH241868   5.069   0.783  17.193  0.4018  0.2263 -0.5736
 6818TIP3    H141869   5.015   0.860  17.209 -0.1100 -0.0215 -1.0637
 6818TIP3    H241870   5.046   0.755  17.104 -2.0697 -2.5202  0.7497
 6819TIP3   OH241871   2.490   2.008   2.331 -0.1907 -0.0951  0.1301
 6819TIP3    H141872   2.491   1.957   2.250  0.1496 -0.5264  0.4009
 6819TIP3    H241873   2.466   2.096   2.304  0.1412 -0.1883 -0.4736
 6820TIP3   OH241874   4.051   1.931  16.113  0.0154 -0.1362 -0.1267
 6820TIP3    H141875   4.116   1.960  16.049  1.5830  0.3750  1.6011
 6820TIP3    H241876   3.967   1.959  16.076  0.8943  0.5700 -1.7042
 6821TIP3   OH241877   6.704   3.469  12.103  0.5738  0.3722 -0.1608
 6821TIP3    H141878   6.735   3.501  12.018 -1.1436 -1.6308 -1.6295
 6821TIP3    H241879   6.774   3.410  12.132  0.3219 -0.4386 -1.1469
 6822TIP3   OH241880   5.460   2.909   1.375  0.6140  0.1480 -1.3011
 6822TIP3    H141881   5.420   2.962   1.306  3.3700  1.4611 -2.0690
 6822TIP3    H241882   5.553   2.933   1.372  1.3522 -2.0101  0.8847
 6823TIP3   OH241883   2.399   0.859   3.963  0.2669 -0.5644 -0.6158
 6823TIP3    H141884   2.481   0.808   3.959  1.2310  0.8276  0.4750
 6823TIP3    H241885   2.332   0.795   3.987  1.4394 -1.3374  0.7196
 6824TIP3   OH241886   5.950   1.787  14.746 -0.1233  0.6899 -0.2198
 6824TIP3    H141887   5.947   1.838  14.665 -1.6647  0.7311 -0.1758
 6824TIP3    H241888   5.889   1.715  14.731  0.3038  0.1449  0.5599
 6825TIP3   OH241889   6.762   5.888   1.234  0.3208  0.1732  0.1755
 6825TIP3    H141890   6.737   5.875   1.143  0.3825 -0.2737  0.2199
 6825TIP3    H241891   6.680   5.886   1.283  0.1832  1.4126  0.0276
 6826TIP3   OH241892   3.399   6.521  13.898  0.5972  0.5122  0.1518
 6826TIP3    H141893   3.374   6.429  13.905 -2.6925  1.3949  2.1283
 6826TIP3    H241894   3.490   6.524  13.928  0.9749 -2.1204 -0.5268
 6827TIP3   OH241895   5.954   5.998   3.580  0.2123 -0.5912  0.0444
 6827TIP3    H141896   5.868   5.963   3.557  0.7982 -1.0133 -1.6430
 6827TIP3    H241897   5.947   6.018   3.674 -0.8793 -3.1326  0.6061
 6828TIP3   OH241898   0.158   1.890   1.816  0.3273  0.4112  0.1296
 6828TIP3    H141899   0.132   1.978   1.789  1.3742 -0.0163 -2.5068
 6828TIP3    H241900   0.253   1.887   1.804  0.8803 -0.0430  3.5680
 6829TIP3   OH241901   6.314   0.341   4.242 -0.0289  0.5125 -0.2596
 6829TIP3    H141902   6.271   0.257   4.227 -0.1153  0.3054  1.0633
 6829TIP3    H241903   6.407   0.322   4.236 -0.0605  0.6743 -1.6484
 6830TIP3   OH241904   2.147   4.674   4.824 -0.3970 -0.0589  0.1121
 6830TIP3    H141905   2.187   4.708   4.743  1.0483 -0.0075  0.8136
 6830TIP3    H241906   2.209   4.698   4.893  0.3916 -3.4525  0.7623
 6831TIP3   OH241907   4.761   2.655  12.008  0.3630 -0.5956 -0.2628
 6831TIP3    H141908   4.770   2.750  12.013  0.9978 -0.7212  2.9279
 6831TIP3    H241909   4.844   2.621  12.043 -0.2649 -2.3241 -0.3469
 6832TIP3   OH241910   0.157   4.130  13.275  0.7573 -0.6268  0.1301
 6832TIP3    H141911   0.248   4.157  13.261  0.7320  1.0579  2.6394
 6832TIP3    H241912   0.110   4.167  13.200  2.0643 -1.3513 -1.1008
 6833TIP3   OH241913   0.826   0.158   0.410  0.1377 -0.0829  0.0706
 6833TIP3    H141914   0.901   0.100   0.415  0.6064  0.4930 -0.1167
 6833TIP3    H241915   0.772   0.135   0.486  0.0020 -1.1660 -0.3482
 6834TIP3   OH241916   0.631   2.379  14.930 -0.3618 -0.1779  0.2350
 6834TIP3    H141917   0.548   2.359  14.974 -0.5637  0.5941  0.2217
 6834TIP3    H241918   0.619   2.348  14.841 -0.9495  0.6655  0.0123
 6835TIP3   OH241919   5.395   2.163   6.520 -0.0229 -0.1846  1.0742
 6835TIP3    H141920   5.468   2.175   6.460  0.0340 -2.0981  0.7253
 6835TIP3    H241921   5.433   2.176   6.607  0.5531 -0.4117  0.8552
 6836TIP3   OH241922   6.493   5.987   4.886 -0.2239 -0.6049  0.3268
 6836TIP3    H141923   6.534   5.927   4.823 -0.9884 -1.6669  0.8022
 6836TIP3    H241924   6.417   5.939   4.919 -0.3562  0.2813  1.3910
 6837TIP3   OH241925   4.085   3.202  14.124  0.0063 -0.4056 -0.2863
 6837TIP3    H141926   4.167   3.245  14.104  0.7089 -1.5490  0.0499
 6837TIP3    H241927   4.051   3.247  14.201  0.0275  0.4173 -0.7439
 6838TIP3   OH241928   5.516   2.229   0.486 -0.3186 -0.7764  0.5332
 6838TIP3    H141929   5.603   2.268   0.485  0.1017 -1.6630  1.0837
 6838TIP3    H241930   5.528   2.143   0.527 -1.2886 -1.3056 -0.2272
 6839TIP3   OH241931   1.503   2.557   0.101  0.2507 -0.4833  0.4728
 6839TIP3    H141932   1.427   2.615   0.106  0.5880 -0.1186  1.9553
 6839TIP3    H241933   1.578   2.615   0.110  0.7420 -0.8055 -1.2922
 6840TIP3   OH241934   6.568   2.493   0.705 -0.3619 -0.2425 -0.1121
 6840TIP3    H141935   6.521   2.444   0.772  0.3242  0.5338  0.9797
 6840TIP3    H241936   6.639   2.537   0.753  0.1642  0.3139 -1.3562
 6841TIP3   OH241937   5.258   0.606   6.189 -0.1386 -0.3277 -0.1896
 6841TIP3    H141938   5.198   0.680   6.178 -0.1611 -0.4826 -1.1929
 6841TIP3    H241939   5.261   0.592   6.283 -0.0912  0.9798  0.0271
 6842TIP3   OH241940   5.996   2.472  11.950 -0.0994 -0.8987  0.0069
 6842TIP3    H141941   5.986   2.444  12.041  0.2253 -0.6148  0.1330
 6842TIP3    H241942   6.051   2.550  11.956  0.3143 -1.1538 -0.4798
 6843TIP3   OH241943   5.730   4.117   4.401  0.2326  0.0400  0.1454
 6843TIP3    H141944   5.819   4.119   4.437 -0.3188 -0.7241  1.6177
 6843TIP3    H241945   5.679   4.175   4.458 -0.9998 -2.3772  1.6438
 6844TIP3   OH241946   1.821   5.178  12.535 -0.1030 -0.0903 -0.0098
 6844TIP3    H141947   1.916   5.164  12.534  0.1139  1.2395  0.5553
 6844TIP3    H241948   1.790   5.136  12.455  0.9199 -0.7805 -0.0606
 6845TIP3   OH241949   5.981   4.350  15.586 -0.0892 -0.1279 -0.8167
 6845TIP3    H141950   6.060   4.381  15.630 -0.4494 -0.5613  0.1692
 6845TIP3    H241951   5.954   4.273  15.636 -1.1401  0.0116 -1.1382
 6846TIP3   OH241952   1.285   4.850  13.950  0.5953 -0.3841  0.7135
 6846TIP3    H141953   1.372   4.842  13.911  0.9598  0.0336  1.4400
 6846TIP3    H241954   1.238   4.773  13.916  0.1445  1.1051 -2.4109
 6847TIP3   OH241955   3.457   5.983  16.386  0.1315  0.2709  0.6545
 6847TIP3    H141956   3.510   5.976  16.465 -1.7119 -2.0737  1.8316
 6847TIP3    H241957   3.371   5.950  16.412 -0.9938  0.8575 -1.9598
 6848TIP3   OH241958   2.151   4.342   1.197 -0.0518 -0.0244 -0.0789
 6848TIP3    H141959   2.106   4.421   1.170  0.7323  0.5621  0.2846
 6848TIP3    H241960   2.210   4.370   1.268 -1.4509 -1.3487  1.7247
 6849TIP3   OH241961   5.088   2.747   2.255 -0.4346  0.3219  0.5134
 6849TIP3    H141962   5.162   2.740   2.315 -0.3517 -1.1354  0.2935
 6849TIP3    H241963   5.115   2.698   2.177 -2.0163 -1.2268  0.8563
 6850TIP3   OH241964   3.506   4.810   0.784 -0.0246  0.5970 -0.5394
 6850TIP3    H141965   3.411   4.800   0.773  0.2023 -2.3589 -0.6018
 6850TIP3    H241966   3.544   4.749   0.721  1.7810 -1.4501  2.2780
 6851TIP3   OH241967   0.820   5.137   0.362  0.2390 -0.5175  0.1441
 6851TIP3    H141968   0.854   5.206   0.419  0.0979 -0.2594 -0.0838
 6851TIP3    H241969   0.826   5.058   0.415 -0.3183 -0.2050  0.6963
 6852TIP3   OH241970   4.787   1.540   5.969  0.7280  0.4816 -0.5040
 6852TIP3    H141971   4.773   1.451   5.935  1.9555  0.2082 -0.3198
 6852TIP3    H241972   4.783   1.531   6.064 -0.9774  0.9586 -0.4938
 6853TIP3   OH241973   0.468   5.686   3.133 -0.2506  0.0219 -0.0240
 6853TIP3    H141974   0.484   5.623   3.203  0.3762  0.2458  0.0437
 6853TIP3    H241975   0.481   5.636   3.052 -2.4387 -0.6336 -0.0521
 6854TIP3   OH241976   1.944   6.186  12.923 -0.1655  0.1670  0.4710
 6854TIP3    H141977   1.879   6.220  12.862  1.1326  2.8256  0.4309
 6854TIP3    H241978   1.893   6.135  12.986 -2.0707  0.8397 -0.4440
 6855TIP3   OH241979   3.739   6.540  15.191  0.3152 -0.1142  0.6368
 6855TIP3    H141980   3.688   6.479  15.245 -0.5355 -1.3359 -1.4320
 6855TIP3    H241981   3.699   6.625  15.206 -1.7648 -0.8912 -0.1728
 6856TIP3   OH241982   0.069   0.776   3.802  0.0382 -0.0183 -0.2250
 6856TIP3    H141983   0.065   0.749   3.711 -0.1236  0.1508 -0.2683
 6856TIP3    H241984  -0.019   0.808   3.822 -0.7612 -2.6030  0.8061
 6857TIP3   OH241985   5.973   3.105   0.172 -0.3650  0.1212  0.0542
 6857TIP3    H141986   5.902   3.167   0.155  0.9736  1.8319  0.3833
 6857TIP3    H241987   6.034   3.153   0.228  1.2586 -1.1251 -0.5607
 6858TIP3   OH241988   4.294   4.592  16.733  0.0835  0.0400  0.1323
 6858TIP3    H141989   4.244   4.630  16.805 -0.2089  0.1488 -0.1256
 6858TIP3    H241990   4.354   4.661  16.706  0.4846 -0.1469  0.5503
 6859TIP3   OH241991   2.654   1.798  16.118 -0.0393 -0.3523 -0.0354
 6859TIP3    H141992   2.636   1.704  16.109  2.6623 -1.0948  1.3440
 6859TIP3    H241993   2.568   1.836  16.137 -1.5455 -2.1961 -2.4963
 6860TIP3   OH241994   3.259   1.799   4.203 -0.0439 -0.3469  0.1698
 6860TIP3    H141995   3.251   1.818   4.110 -1.1908  0.2689  0.3763
 6860TIP3    H241996   3.169   1.797   4.235  0.3135 -0.9581  1.1902
 6861TIP3   OH241997   1.368   2.881   1.249  0.0649 -0.2091  0.2735
 6861TIP3    H141998   1.347   2.816   1.182  1.0090  1.3306 -1.6483
 6861TIP3    H241999   1.282   2.912   1.280 -0.4195 -0.4472 -0.7779
 6862TIP3   OH242000   4.728   1.262   2.554 -0.3121 -0.5100  0.6406
 6862TIP3    H142001   4.781   1.234   2.480 -0.9942 -0.0042 -0.0607
 6862TIP3    H242002   4.735   1.191   2.617  0.2183 -0.9851  0.0611
 6863TIP3   OH242003   2.795   5.398  11.220  0.4651  0.1717 -0.0877
 6863TIP3    H142004   2.768   5.321  11.270 -0.6514  1.5003  1.4966
 6863TIP3    H242005   2.853   5.365  11.152 -1.5977 -2.3201 -0.7774
 6864TIP3   OH242006   5.934   3.134  16.707 -0.1978  0.3944 -0.4105
 6864TIP3    H142007   5.985   3.062  16.668  2.0324  0.6503  1.7459
 6864TIP3    H242008   5.949   3.125  16.801 -0.8882  2.9551  0.0144
 6865TIP3   OH242009   5.789   2.206  15.109  0.0387  0.0386 -0.0359
 6865TIP3    H142010   5.781   2.169  15.021 -1.3970 -0.0978  0.1252
 6865TIP3    H242011   5.700   2.235  15.131  0.1910 -0.7013  1.6911
 6866TIP3   OH242012   5.428   2.850  11.340  0.1841 -0.2682  0.8165
 6866TIP3    H142013   5.419   2.861  11.245 -0.3827  3.4869  1.1398
 6866TIP3    H242014   5.393   2.763  11.357  2.6993 -2.1732 -2.6236
 6867TIP3   OH242015   3.437   1.613  15.816 -0.3877 -0.3301  0.0689
 6867TIP3    H142016   3.489   1.681  15.858 -0.4321  1.3997 -2.4542
 6867TIP3    H242017   3.500   1.561  15.766 -0.5625 -1.1164  0.6464
 6868TIP3   OH242018   6.590   1.181   4.142 -0.9230 -0.5910 -0.2725
 6868TIP3    H142019   6.603   1.100   4.191  0.2647 -1.3518 -1.7706
 6868TIP3    H242020   6.570   1.153   4.053  1.7117  0.6696 -1.3762
 6869TIP3   OH242021   0.330   6.057   5.563 -0.1494 -0.4070  0.4495
 6869TIP3    H142022   0.258   6.078   5.504 -0.8100 -2.7412  0.3523
 6869TIP3    H242023   0.289   6.044   5.649  0.1267 -1.6511  0.4158
 6870TIP3   OH242024   4.957   3.884   4.566  0.2518  0.5366  0.3375
 6870TIP3    H142025   4.866   3.910   4.581  0.2312 -0.7125  2.8737
 6870TIP3    H242026   4.989   3.856   4.652  1.9090 -2.4984 -1.1070
 6871TIP3   OH242027   0.280   3.084  15.359 -0.3758  0.1011  0.3605
 6871TIP3    H142028   0.236   3.156  15.404 -1.8948  0.1454 -1.1402
 6871TIP3    H242029   0.222   3.009  15.371  0.5356 -0.5666  0.7484
 6872TIP3   OH242030   3.942   3.312   0.228  0.1988 -0.4477  0.4606
 6872TIP3    H142031   4.027   3.317   0.271  0.0241  1.9121  0.6600
 6872TIP3    H242032   3.879   3.316   0.300 -0.0883 -1.2537  0.2564
 6873TIP3   OH242033   6.397   0.039  17.176  0.1470 -0.1639  0.2373
 6873TIP3    H142034   6.461   0.098  17.136 -1.4041  1.0025 -0.6066
 6873TIP3    H242035   6.378  -0.026  17.108  0.3323 -0.4483  0.4511
 6874TIP3   OH242036   0.266   4.434  13.432  0.7951  0.0197 -0.0798
 6874TIP3    H142037   0.356   4.407  13.450  1.2476  1.8945  0.8121
 6874TIP3    H242038   0.271   4.530  13.426 -1.1520  0.1720  0.0869
 6875TIP3   OH242039   6.644   4.953   4.445  0.4009 -0.5690  0.1595
 6875TIP3    H142040   6.548   4.962   4.444  0.4548  0.0484  0.2068
 6875TIP3    H242041   6.676   5.042   4.432  0.9762 -0.4088  2.3038
 6876TIP3   OH242042   3.573   5.512   3.460  0.4011  0.1084 -0.0776
 6876TIP3    H142043   3.641   5.546   3.518  2.1524 -0.0473 -1.9134
 6876TIP3    H242044   3.517   5.587   3.441 -0.0767  0.2064  1.5948
 6877TIP3   OH242045   6.376   1.774  13.030  0.2121 -0.0691 -0.1189
 6877TIP3    H142046   6.446   1.839  13.026  0.7646 -0.3366  2.7012
 6877TIP3    H242047   6.401   1.708  12.966  0.3691  1.7663 -2.0522
 6878TIP3   OH242048   5.814   4.673   2.006  0.3501  0.1722 -0.3862
 6878TIP3    H142049   5.858   4.707   2.084 -0.6639  1.0340 -0.1657
 6878TIP3    H242050   5.732   4.636   2.039  1.4753 -2.7794 -0.5863
 6879TIP3   OH242051   5.736   1.255   5.078  0.1967 -0.3124  0.3298
 6879TIP3    H142052   5.693   1.328   5.032  1.3661 -1.5472 -3.0589
 6879TIP3    H242053   5.754   1.191   5.009  2.7289 -2.1251  2.4708
 6880TIP3   OH242054   4.666   2.231  12.349 -0.4463  0.7299 -0.1002
 6880TIP3    H142055   4.613   2.178  12.289  1.7645 -0.9103 -0.7638
 6880TIP3    H242056   4.666   2.318  12.310  0.6187 -0.1978 -2.4117
 6881TIP3   OH242057   0.978   2.420  14.719 -0.0666 -0.5688 -0.0363
 6881TIP3    H142058   1.019   2.409  14.805 -1.2894 -2.3721  0.3628
 6881TIP3    H242059   0.932   2.338  14.703 -0.7075  0.1082 -1.9825
 6882TIP3   OH242060   5.909   6.340   5.605 -0.6818  0.2924  0.3075
 6882TIP3    H142061   5.880   6.413   5.659 -0.6729 -0.1241  0.8796
 6882TIP3    H242062   5.845   6.271   5.621 -0.5801  0.1048 -0.0789
 6883TIP3   OH242063   3.250   0.250   5.294 -1.0166 -0.4561  0.0730
 6883TIP3    H142064   3.273   0.253   5.387 -1.3000 -1.7842  0.2045
 6883TIP3    H242065   3.155   0.240   5.294 -0.8952 -1.7017 -0.3219
 6884TIP3   OH242066   0.411   1.340   5.705 -0.4015 -0.2201  0.0680
 6884TIP3    H142067   0.456   1.366   5.785  1.9444 -2.4479 -0.3867
 6884TIP3    H242068   0.345   1.278   5.734  0.0242 -0.5516  0.3390
 6885TIP3   OH242069   1.996   1.249   4.043  0.0140  0.0492 -0.6409
 6885TIP3    H142070   2.019   1.156   4.048  1.7471  0.5133  1.8560
 6885TIP3    H242071   1.900   1.250   4.047 -0.0039 -1.6198  0.4561
 6886TIP3   OH242072   0.879   4.875   4.101 -0.1571  0.1582 -0.3253
 6886TIP3    H142073   0.799   4.898   4.055  0.1173  0.7674 -0.5122
 6886TIP3    H242074   0.893   4.948   4.162  0.1642 -0.0264 -0.1768
 6887TIP3   OH242075   0.780   5.919   6.218  0.1611  0.1610 -0.1224
 6887TIP3    H142076   0.764   5.836   6.264  1.2839 -0.2306 -0.4185
 6887TIP3    H242077   0.871   5.914   6.190 -0.2254  0.8017 -1.5709
 6888TIP3   OH242078   2.210   4.106  13.041 -0.0415 -0.4787 -0.2007
 6888TIP3    H142079   2.290   4.054  13.041  0.6025  0.2719 -3.6138
 6888TIP3    H242080   2.230   4.181  13.097  0.0899 -2.2654  2.2891
 6889TIP3   OH242081   6.338   2.516  11.909 -0.0137  0.0114 -0.3010
 6889TIP3    H142082   6.368   2.482  11.993  1.9766  1.9730 -0.1076
 6889TIP3    H242083   6.292   2.597  11.931  0.5703  0.5748 -1.0577
 6890TIP3   OH242084   0.118   3.333   1.690  0.0517  0.0620 -0.1010
 6890TIP3    H142085   0.039   3.352   1.639  0.9948 -1.3650 -2.2744
 6890TIP3    H242086   0.142   3.244   1.664  1.7643  0.0468  1.3501
 6891TIP3   OH242087   6.095   2.066  14.111 -0.2046  0.1580  0.3498
 6891TIP3    H142088   6.154   2.051  14.037  0.6692  3.9686  0.0502
 6891TIP3    H242089   6.124   2.149  14.148 -2.5110 -0.1383  3.1618
 6892TIP3   OH242090   2.054   0.994   1.564 -0.2343 -0.0743 -0.1179
 6892TIP3    H142091   2.115   0.950   1.623 -0.0046  0.6706  0.2062
 6892TIP3    H242092   1.971   0.996   1.612 -0.2722 -0.2367 -0.1747
 6893TIP3   OH242093   1.221   0.054  13.117  0.2894  0.5344  0.1541
 6893TIP3    H142094   1.272   0.044  13.197  0.7380 -0.5037 -0.2486
 6893TIP3    H242095   1.259  -0.009  13.056 -1.4523 -0.2626 -0.1718
 6894TIP3   OH242096   4.868   4.335   2.130  0.0143  0.2775 -0.1174
 6894TIP3    H142097   4.816   4.386   2.068  0.5339  0.6756 -0.2340
 6894TIP3    H242098   4.900   4.399   2.194  0.9308  0.1634 -0.4385
 6895TIP3   OH242099   0.188   0.033   2.559 -0.3401  0.2261 -0.8792
 6895TIP3    H142100   0.253   0.068   2.499 -0.8653 -0.0420 -1.6156
 6895TIP3    H242101   0.205   0.078   2.642 -0.1991  1.2960 -1.4732
 6896TIP3   OH242102   3.485   4.059   2.169  0.3308  0.0193  0.0956
 6896TIP3    H142103   3.497   3.975   2.126  1.9679  1.3350 -2.2696
 6896TIP3    H242104   3.417   4.044   2.235 -0.2345 -2.8296 -1.0245
 6897TIP3   OH242105   3.261   6.378   3.396 -0.1643  0.4282 -0.8712
 6897TIP3    H142106   3.237   6.446   3.333  1.0300  1.0195 -0.7208
 6897TIP3    H242107   3.353   6.359   3.377  0.0621  0.2366  0.3412
 6898TIP3   OH242108   6.715   6.036  11.511 -0.0586 -0.3012  0.3881
 6898TIP3    H142109   6.643   5.999  11.460 -1.6408  1.6908  1.0533
 6898TIP3    H242110   6.749   6.107  11.456  0.5128 -0.3784  0.6380
 6899TIP3   OH242111   1.705   4.877  13.972 -0.4258  0.1443  0.6121
 6899TIP3    H142112   1.712   4.968  13.943 -1.6230 -0.0185 -0.2212
 6899TIP3    H242113   1.627   4.875  14.027 -1.9178 -0.8552 -1.4113
 6900TIP3   OH242114   2.022   2.206   3.815 -0.5646  0.6861  0.1025
 6900TIP3    H142115   1.968   2.137   3.854  1.7611 -0.7147  1.0649
 6900TIP3    H242116   2.067   2.247   3.888  2.2169 -0.5192 -0.7744
 6901TIP3   OH242117   2.564   4.954  10.641 -0.1814 -0.4693  0.0902
 6901TIP3    H142118   2.555   5.022  10.573  0.4719  0.7124  1.1400
 6901TIP3    H242119   2.483   4.961  10.691 -0.3042 -0.7688 -0.0685
 6902TIP3   OH242120   2.099   4.126   1.926 -0.0465  0.0793 -0.0715
 6902TIP3    H142121   2.022   4.098   1.878 -0.7417 -1.4849  1.8293
 6902TIP3    H242122   2.173   4.090   1.877 -0.8105 -3.0853  0.8581
 6903TIP3   OH242123   0.693   5.425  11.082  0.6396  0.0165 -0.0959
 6903TIP3    H142124   0.639   5.413  11.003 -0.0559  1.5173  0.1141
 6903TIP3    H242125   0.746   5.502  11.062  1.1881 -0.1952  0.5327
 6904TIP3   OH242126   4.496   3.480   2.282  0.6263 -0.1370 -0.8362
 6904TIP3    H142127   4.493   3.438   2.197  0.2010  0.3937 -1.0928
 6904TIP3    H242128   4.560   3.550   2.272 -0.1465  0.5622 -1.0336
 6905TIP3   OH242129   1.887   6.044   3.659  0.0289 -0.0458  0.4549
 6905TIP3    H142130   1.799   6.024   3.690 -0.4957  2.8084  1.1469
 6905TIP3    H242131   1.932   6.082   3.735  1.0144  0.8034 -0.5036
 6906TIP3   OH242132   0.265   4.369   0.833 -0.0863 -0.6409  0.7995
 6906TIP3    H142133   0.222   4.337   0.913 -1.2648 -1.0497  0.0372
 6906TIP3    H242134   0.240   4.462   0.829  0.5003 -0.4625  1.2327
 6907TIP3   OH242135   1.632   1.735  13.731 -0.3867 -0.1650  0.8625
 6907TIP3    H142136   1.704   1.718  13.793  1.4669 -0.8855 -1.3317
 6907TIP3    H242137   1.588   1.651  13.723  0.0656 -0.3669  0.4166
 6908TIP3   OH242138   3.869   4.821   5.404 -0.8545 -0.8073  0.4065
 6908TIP3    H142139   3.791   4.866   5.437 -1.9855 -2.8645  0.6684
 6908TIP3    H242140   3.838   4.734   5.380  1.9078 -2.7333  3.1984
 6909TIP3   OH242141   5.834   0.433   2.154  0.0500  0.3553  0.0765
 6909TIP3    H142142   5.785   0.366   2.106  1.4740  0.7724 -2.1275
 6909TIP3    H242143   5.919   0.392   2.172  0.1918  0.8628  0.6117
 6910TIP3   OH242144   6.333   4.042   6.296  0.1798  0.4601  0.3429
 6910TIP3    H142145   6.414   4.060   6.343  0.3252 -0.1305  0.3206
 6910TIP3    H242146   6.265   4.050   6.362  0.1713  1.7005  0.2071
 6911TIP3   OH242147   6.060   6.185  11.944  0.0902 -0.0473 -0.6647
 6911TIP3    H142148   6.130   6.133  11.985 -0.4258 -1.5127 -1.5734
 6911TIP3    H242149   6.107   6.253  11.895  0.8970 -1.0340 -1.2907
 6912TIP3   OH242150   1.131   6.075  14.714  0.2129  0.4807 -0.2267
 6912TIP3    H142151   1.224   6.092  14.704 -0.0895  1.1871 -2.1848
 6912TIP3    H242152   1.088   6.129  14.648 -1.1829 -3.7338 -3.2454
 6913TIP3   OH242153   6.123   5.549   3.225  0.3350 -0.2505  0.1811
 6913TIP3    H142154   6.159   5.485   3.286 -1.2045 -0.8811  0.4738
 6913TIP3    H242155   6.190   5.617   3.219  0.7356 -0.3833  2.2542
 6914TIP3   OH242156   0.541   5.324  15.191  0.9580  0.5330  0.2977
 6914TIP3    H142157   0.554   5.392  15.256  1.6685  1.2301 -0.5365
 6914TIP3    H242158   0.629   5.291  15.173  0.9683  1.3291 -1.3012
 6915TIP3   OH242159   6.398   3.468  14.911 -0.3966  0.0951  0.1652
 6915TIP3    H142160   6.332   3.454  14.979 -1.8411 -0.4904 -1.2905
 6915TIP3    H242161   6.370   3.548  14.866  1.5865  1.5503  1.3734
 6916TIP3   OH242162   0.129   3.054   2.213 -0.3330 -0.0115 -0.1729
 6916TIP3    H142163   0.185   3.126   2.241 -0.0837  0.3490 -1.5198
 6916TIP3    H242164   0.040   3.084   2.233 -0.3575  1.3546 -2.0337
 6917TIP3   OH242165   2.523   0.804  10.600 -0.1779  0.0699  0.3768
 6917TIP3    H142166   2.505   0.838  10.687 -2.2737  1.2697 -0.4427
 6917TIP3    H242167   2.475   0.863  10.541 -2.4084 -3.0825 -1.2735
 6918TIP3   OH242168   4.422   2.448  15.493  0.0441  0.0708 -0.5503
 6918TIP3    H142169   4.332   2.455  15.525 -0.4700 -0.5648 -1.7746
 6918TIP3    H242170   4.441   2.354  15.497  0.8778  0.2571  0.2275
 6919TIP3   OH242171   5.377   0.003  12.915 -0.7996 -1.0719 -0.1283
 6919TIP3    H142172   5.376  -0.007  13.010  0.0306  0.5390  0.0879
 6919TIP3    H242173   5.396  -0.085  12.881  2.0235 -1.1464  1.3374
 6920TIP3   OH242174   2.880   3.493   2.334 -0.5012 -0.1415 -0.0738
 6920TIP3    H142175   2.975   3.485   2.328 -0.2840  2.3020 -1.1577
 6920TIP3    H242176   2.847   3.453   2.254 -0.4617 -1.2918  0.4558
 6921TIP3   OH242177   5.638   5.573  11.883 -0.3542  0.2272 -0.9492
 6921TIP3    H142178   5.658   5.642  11.820 -2.1090  1.7213  0.0176
 6921TIP3    H242179   5.645   5.616  11.969 -0.2172 -1.1512 -0.2373
 6922TIP3   OH242180   3.369   5.656  12.020  0.1791  0.6109  0.1464
 6922TIP3    H142181   3.364   5.599  11.943  1.2509  0.0816  0.4446
 6922TIP3    H242182   3.452   5.702  12.009 -0.4437  1.7784  0.1619
 6923TIP3   OH242183   3.774   3.455  15.340  0.2618  0.0868 -0.5411
 6923TIP3    H142184   3.688   3.417  15.324  0.1286  0.2999 -0.3373
 6923TIP3    H242185   3.822   3.441  15.259 -0.8680  2.4592 -1.7391
 6924TIP3   OH242186   5.439   1.607   1.784 -0.2991  0.5199 -0.1591
 6924TIP3    H142187   5.484   1.688   1.760  1.1018  0.0257  0.6421
 6924TIP3    H242188   5.438   1.556   1.703 -0.2299  0.8980 -0.4064
 6925TIP3   OH242189   3.317   5.470  14.548  0.1273 -0.6708 -0.3808
 6925TIP3    H142190   3.384   5.492  14.613  2.1784 -1.8869 -1.9687
 6925TIP3    H242191   3.250   5.423  14.598  0.8981 -0.2608  1.1032
 6926TIP3   OH242192   0.917   0.258   6.096  0.1540  0.6337  0.2809
 6926TIP3    H142193   0.850   0.194   6.119 -0.7428  1.7721  0.8952
 6926TIP3    H242194   0.924   0.315   6.172 -0.6400  2.6011 -1.0367
 6927TIP3   OH242195   3.465   2.107  14.205 -0.6603  0.3979  0.6049
 6927TIP3    H142196   3.510   2.173  14.258  1.6069  0.4438 -1.1990
 6927TIP3    H242197   3.535   2.049  14.175 -1.7937  0.3896 -2.3243
 6928TIP3   OH242198   1.139   6.147  15.431 -0.1709 -0.1425  0.0699
 6928TIP3    H142199   1.137   6.077  15.496 -1.3358 -1.7294 -1.5795
 6928TIP3    H242200   1.192   6.113  15.359  0.8296  1.4493 -0.0070
 6929TIP3   OH242201   5.083   5.870   6.942 -0.2177  0.2673 -0.6994
 6929TIP3    H142202   5.066   5.830   6.857 -2.6295 -0.3452  0.0075
 6929TIP3    H242203   5.029   5.821   7.003 -0.1467  2.0206  0.8656
 6930TIP3   OH242204   5.659   6.721  11.587 -0.0410  0.4269  0.3003
 6930TIP3    H142205   5.615   6.640  11.561 -0.2936 -0.0790  2.1836
 6930TIP3    H242206   5.642   6.782  11.515 -1.1459 -0.7124 -0.4397
 6931TIP3   OH242207   1.930   2.096   2.281  0.1740  0.2437  0.0771
 6931TIP3    H142208   1.943   2.188   2.302 -0.2157  0.0741  1.0907
 6931TIP3    H242209   2.002   2.051   2.324  0.8711  0.1495 -1.1471
 6932TIP3   OH242210   5.003   4.689   1.118 -0.4332 -0.0444 -0.1790
 6932TIP3    H142211   4.964   4.602   1.111 -0.3158 -0.0539 -0.7274
 6932TIP3    H242212   5.097   4.673   1.130 -0.3426  0.0176 -0.8113
 6933TIP3   OH242213   6.306   6.022  11.213 -0.6525 -0.3670  0.0949
 6933TIP3    H142214   6.283   5.929  11.206 -0.6572 -0.5846  2.1886
 6933TIP3    H242215   6.393   6.022  11.253  0.1607  0.5513 -1.5870
 6934TIP3   OH242216   4.761   2.134  11.486  0.3391  0.1264 -0.1094
 6934TIP3    H142217   4.690   2.187  11.523  0.3744 -0.3133  0.6166
 6934TIP3    H242218   4.841   2.181  11.507  0.3465 -0.0314  0.2172
 6935TIP3   OH242219   6.655   5.341  13.674  0.1500  0.3788 -0.4719
 6935TIP3    H142220   6.731   5.378  13.629  0.1463 -1.5243 -2.1436
 6935TIP3    H242221   6.592   5.322  13.604 -0.6141 -0.9360  0.5279
 6936TIP3   OH242222   6.139   3.636  16.302 -0.1815 -0.0960  0.2269
 6936TIP3    H142223   6.098   3.648  16.217 -1.4904 -0.0559  0.8421
 6936TIP3    H242224   6.207   3.703  16.306 -1.3435  1.1262 -0.0448
 6937TIP3   OH242225   5.961   0.389  16.464 -0.2208  0.3683  0.2336
 6937TIP3    H142226   6.043   0.362  16.505 -1.4056 -0.2407  2.3047
 6937TIP3    H242227   5.899   0.397  16.536 -2.7698 -1.9632 -1.5082
 6938TIP3   OH242228   6.426   0.471   0.088  0.2788 -0.1543  0.3120
 6938TIP3    H142229   6.450   0.440   0.001 -1.3483 -0.7018  0.0277
 6938TIP3    H242230   6.443   0.396   0.146 -0.8377 -0.6143  0.0793
 6939TIP3   OH242231   5.866   6.312   6.675 -0.0268  0.5376  0.1655
 6939TIP3    H142232   5.950   6.289   6.635 -0.3021  0.2372 -0.2469
 6939TIP3    H242233   5.875   6.404   6.699  0.2557  0.6319 -0.2970
 6940TIP3   OH242234   2.343   3.688   4.369  0.2059  0.3737 -0.3598
 6940TIP3    H142235   2.300   3.686   4.283  1.5209  1.4549 -1.0822
 6940TIP3    H242236   2.328   3.601   4.405 -1.1972  0.2049 -1.2525
 6941TIP3   OH242237   2.450   2.606   3.524  0.1426  0.4694 -0.1332
 6941TIP3    H142238   2.473   2.514   3.533 -1.2158  0.1065 -0.2469
 6941TIP3    H242239   2.384   2.608   3.455 -3.0632  0.9308  2.7048
 6942TIP3   OH242240   5.833   2.059  14.233  0.5150 -0.1297 -0.0237
 6942TIP3    H142241   5.822   2.142  14.278  1.0262  0.4918 -1.0040
 6942TIP3    H242242   5.913   2.070  14.182 -1.2842  0.1084 -3.0036
 6943TIP3   OH242243   1.696   1.906  12.731 -0.3448  0.1908  0.5918
 6943TIP3    H142244   1.774   1.943  12.772 -0.7614  2.0003 -0.1586
 6943TIP3    H242245   1.640   1.882  12.804  0.8050 -0.9977  1.1417
 6944TIP3   OH242246   3.445   4.658  15.513 -0.0927 -0.2202 -0.4952
 6944TIP3    H142247   3.524   4.610  15.489  1.0006  1.1681  0.2148
 6944TIP3    H242248   3.426   4.630  15.603  0.4528  0.5409 -0.1385
 6945TIP3   OH242249   0.087   4.757  16.745 -0.4636  0.2351 -0.5816
 6945TIP3    H142250   0.005   4.763  16.696 -1.1991 -2.5471  0.1683
 6945TIP3    H242251   0.061   4.768  16.836  0.2065  0.6253 -0.4331
 6946TIP3   OH242252   0.973   6.498   3.726  0.5142  0.7631 -0.0832
 6946TIP3    H142253   1.033   6.541   3.787  1.5206 -0.2847 -0.2996
 6946TIP3    H242254   0.914   6.447   3.782  0.6180  0.8131  0.0734
 6947TIP3   OH242255   3.919   5.893   4.773 -0.8333 -0.0204  0.0602
 6947TIP3    H142256   3.887   5.969   4.724  1.0621  0.6210 -0.2644
 6947TIP3    H242257   3.968   5.931   4.846 -1.8416 -0.9703  1.2723
 6948TIP3   OH242258   6.630   3.720  16.900 -0.4111 -0.6053 -0.2768
 6948TIP3    H142259   6.629   3.744  16.807 -1.3020  0.0009 -0.1246
 6948TIP3    H242260   6.578   3.640  16.904 -0.6119 -0.4750 -0.2636
 6949TIP3   OH242261   5.097   2.258   0.819 -0.2029  0.5633 -0.0538
 6949TIP3    H142262   5.050   2.196   0.764  0.2667  0.4996 -0.3898
 6949TIP3    H242263   5.145   2.313   0.757  0.1925  0.6060  0.2875
 6950TIP3   OH242264   6.021   4.655   1.198 -0.3434  0.6802 -0.0158
 6950TIP3    H142265   5.972   4.729   1.163 -1.5155  0.4112  1.0076
 6950TIP3    H242266   5.979   4.578   1.160  0.7002  0.4933 -0.8608
 6951TIP3   OH242267   5.800   2.935  13.693 -0.0291 -0.2764  0.0294
 6951TIP3    H142268   5.828   3.011  13.642  0.7381  0.1379  1.0249
 6951TIP3    H242269   5.821   2.860  13.638 -0.7822  0.2185 -0.9661
 6952TIP3   OH242270   5.022   6.518  15.569 -0.3308  0.3071  0.6290
 6952TIP3    H142271   4.945   6.562  15.605  1.4480  1.6058  3.2548
 6952TIP3    H242272   5.059   6.581  15.507 -2.0999 -0.9529 -1.8598
 6953TIP3   OH242273   5.019   5.634  11.627  0.1315 -0.1502 -1.1764
 6953TIP3    H142274   4.964   5.616  11.550 -2.3202  1.8354 -0.0391
 6953TIP3    H242275   4.959   5.626  11.701  1.8165  0.4769  0.3117
 6954TIP3   OH242276   5.897   2.152  11.720 -0.2785 -0.1167 -0.2946
 6954TIP3    H142277   5.850   2.161  11.638  0.5437  0.4192 -0.7231
 6954TIP3    H242278   5.989   2.161  11.696 -0.0103 -0.2309  0.6441
 6955TIP3   OH242279   5.244   3.109  14.426  0.1832  0.0911 -0.1697
 6955TIP3    H142280   5.166   3.121  14.372  1.1775  0.9801 -1.4759
 6955TIP3    H242281   5.308   3.067  14.367 -0.1041 -3.2239  1.6140
 6956TIP3   OH242282   0.998   6.051   5.169 -0.0076  0.1636 -0.6254
 6956TIP3    H142283   0.972   6.024   5.081  1.4096  0.8286 -1.2655
 6956TIP3    H242284   0.990   6.146   5.169 -0.3800  0.1424  0.1095
 6957TIP3   OH242285   5.427   0.317   5.817  0.0383  0.1554  0.1431
 6957TIP3    H142286   5.451   0.297   5.908  1.8864  0.6436 -0.2007
 6957TIP3    H242287   5.410   0.231   5.778  0.7410 -0.1801  0.5599
 6958TIP3   OH242288   0.282   5.343   3.105 -0.5519  0.6185  0.0924
 6958TIP3    H142289   0.237   5.278   3.052 -0.2814  0.2949  0.2554
 6958TIP3    H242290   0.300   5.298   3.187  1.3280  0.2676 -0.4738
 6959TIP3   OH242291   2.771   4.217  14.448  0.2885  0.2055  0.4662
 6959TIP3    H142292   2.706   4.168  14.397  1.9827 -1.3236 -0.3294
 6959TIP3    H242293   2.720   4.262  14.516 -1.7467  0.2708 -1.0222
 6960TIP3   OH242294   5.673   0.258   3.064 -0.0100  0.2986 -0.0882
 6960TIP3    H142295   5.618   0.195   3.018  1.0024 -1.4105  0.9156
 6960TIP3    H242296   5.615   0.332   3.082 -1.4045 -0.5656 -0.8279
 6961TIP3   OH242297   3.244   6.167  14.159  0.3421 -0.1924  0.0409
 6961TIP3    H142298   3.154   6.198  14.147  1.0929  2.2570  0.3613
 6961TIP3    H242299   3.280   6.162  14.070  0.5103  0.8406  0.0447
 6962TIP3   OH242300   5.893   1.677  16.774 -0.2022 -0.0681 -0.1213
 6962TIP3    H142301   5.953   1.733  16.823  1.4523 -2.0289  0.2730
 6962TIP3    H242302   5.857   1.733  16.706  0.7463  1.6461  0.7311
 6963TIP3   OH242303   5.780   6.762  14.750  0.2488  0.0881  0.0156
 6963TIP3    H142304   5.864   6.772  14.795  0.5938  0.1255 -0.6182
 6963TIP3    H242305   5.791   6.810  14.668 -0.9571  1.4753  0.6176
 6964TIP3   OH242306   5.651   6.237  11.743  0.4444 -0.3265  0.3498
 6964TIP3    H142307   5.624   6.269  11.657  1.5563  1.8735  0.7311
 6964TIP3    H242308   5.569   6.210  11.785 -0.6319  1.9350 -0.1359
 6965TIP3   OH242309   1.800   2.682   2.371  0.1649  0.1471 -0.2656
 6965TIP3    H142310   1.730   2.715   2.314 -0.3901 -0.9381 -0.2450
 6965TIP3    H242311   1.878   2.680   2.316  0.0182  0.6960 -0.4966
 6966TIP3   OH242312   4.332   4.492   3.367 -0.0774  0.3300 -0.2724
 6966TIP3    H142313   4.363   4.551   3.436 -1.9458  0.4189  0.5464
 6966TIP3    H242314   4.340   4.405   3.404 -1.2516  0.3906  0.1444
 6967TIP3   OH242315   1.099   0.072  10.878 -0.7698 -0.6620 -0.0690
 6967TIP3    H142316   1.012   0.034  10.893 -0.8761 -0.3038  0.2298
 6967TIP3    H242317   1.137   0.017  10.809 -0.6019 -1.8304  0.9194
 6968TIP3   OH242318   2.687   0.800   2.350  0.0754  0.0911  0.0825
 6968TIP3    H142319   2.611   0.744   2.333  1.1678 -1.0222 -1.4365
 6968TIP3    H242320   2.653   0.872   2.403 -1.8573 -0.8100  0.1292
 6969TIP3   OH242321   3.112   5.238   4.473 -0.8326  0.3002 -0.2515
 6969TIP3    H142322   3.059   5.165   4.442 -0.9158 -0.2979  1.2053
 6969TIP3    H242323   3.192   5.197   4.506 -1.4298  0.6612  1.8134
 6970TIP3   OH242324   2.936   1.616  15.841 -0.4530  0.5860 -0.0665
 6970TIP3    H142325   2.943   1.553  15.914  1.5092 -0.1572 -0.8454
 6970TIP3    H242326   2.914   1.699  15.884 -0.8706 -0.1475  1.2161
 6971TIP3   OH242327   0.712   5.866  13.740  0.2341  0.2699 -0.1876
 6971TIP3    H142328   0.685   5.857  13.832 -0.7876  2.1984 -0.2377
 6971TIP3    H242329   0.651   5.930  13.704  1.5498  0.6571 -1.8283
 6972TIP3   OH242330   5.164   4.681   4.713 -0.4283 -0.3091  0.6179
 6972TIP3    H142331   5.096   4.614   4.717 -0.6862 -0.0907  0.0315
 6972TIP3    H242332   5.133   4.743   4.646  0.5057 -0.3887  0.0847
 6973TIP3   OH242333   0.496   0.804   5.498 -0.3825  0.2188  0.6030
 6973TIP3    H142334   0.468   0.879   5.551 -0.0438 -0.3371  1.5752
 6973TIP3    H242335   0.453   0.729   5.538 -1.1815 -0.0612 -0.7167
 6974TIP3   OH242336   1.245   3.148   5.507 -0.3698  0.2831  0.5734
 6974TIP3    H142337   1.250   3.181   5.597  2.1688 -1.5963  1.2639
 6974TIP3    H242338   1.335   3.151   5.476 -1.0148 -0.2518 -1.4732
 6975TIP3   OH242339   5.397   6.383   5.666 -0.1150 -0.2289 -0.0961
 6975TIP3    H142340   5.442   6.407   5.747  0.7183 -1.1176 -0.2790
 6975TIP3    H242341   5.310   6.423   5.673 -0.2079 -0.6725  1.4165
 6976TIP3   OH242342   0.427   5.842   0.638 -0.8006  0.3274  0.2027
 6976TIP3    H142343   0.366   5.915   0.642  0.3330  1.2761  0.5113
 6976TIP3    H242344   0.421   5.801   0.724 -1.3138  0.1374  0.0845
 6977TIP3   OH242345   1.063   3.870   2.781 -0.2814 -0.1665 -0.2341
 6977TIP3    H142346   1.150   3.875   2.819 -0.7038  0.4595  0.6853
 6977TIP3    H242347   1.062   3.938   2.713 -0.0055 -0.2745 -0.3454
 6978TIP3   OH242348   1.740   1.744  12.522 -0.3967  0.1925 -0.1702
 6978TIP3    H142349   1.650   1.738  12.491 -0.3612  1.4971 -0.6273
 6978TIP3    H242350   1.735   1.801  12.599  0.0138  0.1071 -0.0764
 6979TIP3   OH242351   3.607   3.835  16.319  0.0483 -0.0683  0.3118
 6979TIP3    H142352   3.595   3.867  16.408  1.0482 -0.6350  0.6708
 6979TIP3    H242353   3.530   3.780  16.302  0.1240 -0.4133  1.0410
 6980TIP3   OH242354   2.566   6.048   4.519 -0.0494 -0.2467  0.4860
 6980TIP3    H142355   2.635   6.100   4.559 -0.7339  1.2324 -0.1952
 6980TIP3    H242356   2.610   5.999   4.449  0.7500 -1.2544  1.6495
 6981TIP3   OH242357   1.914   6.461   2.029 -0.0106  0.1650 -0.5862
 6981TIP3    H142358   1.829   6.498   2.003 -0.5551 -1.1406 -0.7475
 6981TIP3    H242359   1.970   6.472   1.953 -0.4739 -0.2543 -0.9973
 6982TIP3   OH242360   0.540   5.261   1.973  0.1828 -0.0525  0.2440
 6982TIP3    H142361   0.505   5.182   2.015 -1.1685  1.7001  2.6886
 6982TIP3    H242362   0.465   5.299   1.928  0.0959  1.1790  1.3641
 6983TIP3   OH242363   6.028   0.011  11.086  0.1210  0.2053  0.0940
 6983TIP3    H142364   5.939  -0.006  11.055 -0.3532  3.2604 -0.5405
 6983TIP3    H242365   6.017   0.030  11.179  0.5442 -1.9275  0.6312
 6984TIP3   OH242366   4.598   3.268  16.136  0.2114  0.3237 -0.4134
 6984TIP3    H142367   4.556   3.349  16.109  0.3410 -0.0955 -1.9503
 6984TIP3    H242368   4.670   3.256  16.074  1.3999  0.0094  0.9580
 6985TIP3   OH242369   3.243   6.538  16.365 -0.4043  0.5245 -0.3431
 6985TIP3    H142370   3.223   6.524  16.458 -0.7543  0.8476 -0.3655
 6985TIP3    H242371   3.157   6.535  16.322 -0.3340  1.1900 -0.5429
 6986TIP3   OH242372   2.006   5.259   3.719  0.1007 -0.0379  0.6257
 6986TIP3    H142373   1.961   5.341   3.699  2.2009  1.4555  1.5864
 6986TIP3    H242374   1.938   5.201   3.754 -1.2785  1.6235  0.8020
 6987TIP3   OH242375   5.646   2.590  15.516 -0.1228  0.2867 -0.0188
 6987TIP3    H142376   5.583   2.577  15.445  1.5066  0.0891 -1.4847
 6987TIP3    H242377   5.685   2.504  15.529 -1.4810 -0.0835  2.2815
 6988TIP3   OH242378   5.473   6.499   1.940 -0.4613  0.1904 -0.4532
 6988TIP3    H142379   5.559   6.498   1.984 -0.0685 -0.5276 -1.2131
 6988TIP3    H242380   5.415   6.455   2.002  0.6414 -3.2263 -1.6499
 6989TIP3   OH242381   6.480   5.788   4.401  0.0725  0.1096  0.1708
 6989TIP3    H142382   6.432   5.710   4.428  0.6100 -0.0585  0.6520
 6989TIP3    H242383   6.504   5.832   4.482  0.1407  0.5545 -0.0821
 6990TIP3   OH242384   6.352   5.982  11.561 -0.3381 -0.7018 -0.1788
 6990TIP3    H142385   6.344   5.949  11.650 -1.3601  0.9912  0.3957
 6990TIP3    H242386   6.406   6.061  11.569 -1.3962  0.1257 -0.8439
 6991TIP3   OH242387   3.435   3.253   1.122 -0.1012  0.0665  0.2183
 6991TIP3    H142388   3.520   3.226   1.157  0.4142  1.0468 -0.2315
 6991TIP3    H242389   3.453   3.336   1.077 -0.5250 -1.5008 -3.1196
 6992TIP3   OH242390   5.796   4.233   0.212  0.0910  0.6566 -0.4543
 6992TIP3    H142391   5.818   4.148   0.173  1.4636  0.2658  1.0448
 6992TIP3    H242392   5.836   4.297   0.153  1.5705  0.1123 -0.1095
 6993TIP3   OH242393   5.401   2.365  14.127  0.1466 -0.3510 -0.3729
 6993TIP3    H142394   5.390   2.373  14.032 -2.1192 -1.9195 -0.3074
 6993TIP3    H242395   5.451   2.284  14.138 -0.3731 -0.6502 -0.2062
 6994TIP3   OH242396   3.836   3.410   4.108 -0.4489  0.1656 -0.5035
 6994TIP3    H142397   3.905   3.417   4.041 -0.3644  1.8209 -0.2853
 6994TIP3    H242398   3.781   3.487   4.094 -1.8031 -0.7010 -0.1397
 6995TIP3   OH242399   4.542   2.199   6.557 -0.6739  0.1958 -0.0870
 6995TIP3    H142400   4.613   2.235   6.505  0.7445 -1.8736  0.2858
 6995TIP3    H242401   4.513   2.122   6.509 -0.6216 -0.6711  1.2132
 6996TIP3   OH242402   3.929   0.203   4.491 -0.2289  0.4531  0.1099
 6996TIP3    H142403   4.001   0.140   4.498 -1.0299 -0.7287 -1.5114
 6996TIP3    H242404   3.949   0.270   4.556  2.9214  0.7697 -1.0190
 6997TIP3   OH242405   6.215   0.934  13.874  0.1423 -0.1782  0.3406
 6997TIP3    H142406   6.271   0.862  13.843 -0.6709  0.1793 -2.2577
 6997TIP3    H242407   6.162   0.895  13.942  2.1669 -1.0384  1.5233
 6998TIP3   OH242408   6.214   3.703  16.636  0.0946  0.2707 -0.1477
 6998TIP3    H142409   6.132   3.706  16.686 -1.7802 -3.0795 -2.6304
 6998TIP3    H242410   6.186   3.701  16.545  2.7278 -2.7593 -1.0745
 6999TIP3   OH242411   3.903   6.221   0.938  0.1220  0.1244 -0.2499
 6999TIP3    H142412   3.856   6.304   0.942 -1.5387 -0.7916  0.3030
 6999TIP3    H242413   3.988   6.239   0.979 -0.2647  1.5021 -0.0128
 7000TIP3   OH242414   6.290   4.004  12.906  0.1120 -0.0739 -0.8083
 7000TIP3    H142415   6.233   3.980  12.978 -0.4145 -1.7166 -1.7360
 7000TIP3    H242416   6.346   3.927  12.892 -1.0383 -0.5405 -3.3118
 7001TIP3   OH242417   0.656   0.313   0.056 -0.0973 -0.5921  0.0407
 7001TIP3    H142418   0.570   0.343   0.084 -0.0434  0.2598 -0.6577
 7001TIP3    H242419   0.662   0.223   0.087  0.1896  0.4188  3.2101
 7002TIP3   OH242420   1.398   3.149  13.216  0.1161 -0.3468 -0.4277
 7002TIP3    H142421   1.464   3.216  13.237  0.1431 -0.6104  0.3685
 7002TIP3    H242422   1.441   3.090  13.155 -0.0035  0.5207 -1.3810
 7003TIP3   OH242423   0.892   5.927   6.717  0.0208 -0.0380  0.5124
 7003TIP3    H142424   0.885   5.849   6.663 -1.8317 -0.1464  0.8528
 7003TIP3    H242425   0.824   5.986   6.683 -0.7676  0.1409  2.2622
 7004TIP3   OH242426   5.910   4.532  16.720  0.0544  0.0387 -0.0685
 7004TIP3    H142427   5.886   4.454  16.769  0.5045  0.3460  0.6666
 7004TIP3    H242428   5.928   4.598  16.787 -1.2916  1.0831 -0.6919
 7005TIP3   OH242429   3.864   6.300   5.916  0.2953 -0.2146 -0.0014
 7005TIP3    H142430   3.900   6.388   5.903 -0.4968  0.2536  0.8642
 7005TIP3    H242431   3.899   6.272   6.001 -1.6945  0.4313  1.0729
 7006TIP3   OH242432   3.359   4.596  11.177 -0.5719  0.5360 -0.5398
 7006TIP3    H142433   3.383   4.574  11.087 -1.0719 -0.7542 -0.3814
 7006TIP3    H242434   3.268   4.625  11.171 -0.8131 -0.1662 -0.3782
 7007TIP3   OH242435   1.694   0.653   0.619 -0.6026  0.4583  0.4864
 7007TIP3    H142436   1.713   0.686   0.706 -1.4257 -0.9748  1.2433
 7007TIP3    H242437   1.626   0.711   0.585 -1.0135  0.4027  1.2115
 7008TIP3   OH242438   2.603   2.827   5.670  0.0648 -1.0846  0.4921
 7008TIP3    H142439   2.672   2.870   5.618 -0.0828 -0.8977  0.4494
 7008TIP3    H242440   2.527   2.824   5.612  0.4029 -2.4338  0.0967
 7009TIP3   OH242441   3.978   0.431  15.097 -0.3815  0.1275 -0.4136
 7009TIP3    H142442   4.016   0.454  15.182 -0.2504  1.1305 -0.7436
 7009TIP3    H242443   3.927   0.351  15.116 -0.9679  0.7490  0.7764
 7010TIP3   OH242444   1.926   0.741  16.900  0.1155  0.0731 -0.0324
 7010TIP3    H142445   1.928   0.686  16.821  2.2476  0.1132 -0.0700
 7010TIP3    H242446   1.941   0.679  16.972 -0.5872  0.2115  0.2420
 7011TIP3   OH242447   4.851   6.100   0.052 -0.1800  0.2297  0.2021
 7011TIP3    H142448   4.834   6.013   0.087  1.2157 -0.0179  0.2971
 7011TIP3    H242449   4.853   6.089  -0.043 -2.0459  0.5547  0.0897
 7012TIP3   OH242450   5.426   5.992  12.952  0.2923  0.0468 -0.3002
 7012TIP3    H142451   5.362   5.963  13.016  0.3450 -0.6027 -0.5401
 7012TIP3    H242452   5.380   5.992  12.869  0.3481  0.4685 -0.3363
 7013TIP3   OH242453   1.935   1.684  13.932 -0.5920 -0.3782 -0.2062
 7013TIP3    H142454   1.977   1.604  13.962  0.3422  0.4462  0.7739
 7013TIP3    H242455   1.878   1.710  14.004 -0.8744 -0.1454 -0.5109
 7014TIP3   OH242456   2.082   0.676  15.840  0.2628  1.0108  0.1646
 7014TIP3    H142457   2.160   0.624  15.818 -0.4853  0.1591 -0.5462
 7014TIP3    H242458   2.054   0.640  15.925 -0.1192  0.4050 -0.2143
 7015TIP3   OH242459   5.987   1.949   0.048 -0.4457  0.2975 -0.0715
 7015TIP3    H142460   5.932   2.005  -0.008 -3.0577 -0.9148  1.0924
 7015TIP3    H242461   5.967   1.977   0.137  0.0057 -0.9017  0.4276
 7016TIP3   OH242462   6.377   2.701  14.499 -0.0208  0.3592  0.1355
 7016TIP3    H142463   6.372   2.609  14.475  1.5802 -0.7857  3.5048
 7016TIP3    H242464   6.289   2.722  14.531 -0.2207 -0.2122 -0.0339
 7017TIP3   OH242465   3.535   4.418  13.663  0.2203  0.1318  0.2729
 7017TIP3    H142466   3.534   4.337  13.716  1.1403 -0.0598  0.0186
 7017TIP3    H242467   3.545   4.488  13.728  0.5198 -0.0456  0.4253
 7018TIP3   OH242468   6.055   2.248  16.116  0.0623  0.1464 -0.2257
 7018TIP3    H142469   6.035   2.341  16.127 -0.0798  0.1594 -0.5713
 7018TIP3    H242470   6.148   2.245  16.094  0.8559 -0.0012  2.6793
 7019TIP3   OH242471   2.446   6.163   5.213 -0.1325  0.1504 -0.5842
 7019TIP3    H142472   2.511   6.106   5.171 -0.7658 -1.4149  0.4854
 7019TIP3    H242473   2.448   6.138   5.305 -0.0921  2.2396  0.0487
 7020TIP3   OH242474   4.620   5.224   2.044  0.2067 -0.3939  0.2152
 7020TIP3    H142475   4.622   5.261   1.956 -1.1067 -0.6363  0.0641
 7020TIP3    H242476   4.711   5.226   2.073  0.6107 -0.0200 -1.0222
 7021TIP3   OH242477   2.447   4.584   2.886  0.0716  0.8259 -0.3304
 7021TIP3    H142478   2.516   4.615   2.944  1.0618  0.8747 -1.4940
 7021TIP3    H242479   2.368   4.586   2.940  1.2512 -1.0194  1.6318
 7022TIP3   OH242480   6.032   0.937   2.126  0.2403  0.3230 -0.6624
 7022TIP3    H142481   5.937   0.931   2.134 -0.3440  2.8000 -3.8026
 7022TIP3    H242482   6.059   0.849   2.101 -1.4598 -0.1017 -1.1529
 7023TIP3   OH242483   4.708   3.992   6.066  0.5069 -0.5533  0.0935
 7023TIP3    H142484   4.790   3.972   6.113  0.8933  1.1348  0.2128
 7023TIP3    H242485   4.737   4.035   5.986 -0.2570 -0.0060  0.1026
 7024TIP3   OH242486   6.695   3.087  15.266  0.0753 -0.3085  0.3245
 7024TIP3    H142487   6.763   3.023  15.248  0.8159  0.8926 -1.4035
 7024TIP3    H242488   6.653   3.102  15.182  0.7022  2.3024  0.3929
 7025TIP3   OH242489   0.030   4.670   0.242 -0.5907  0.3627 -0.2720
 7025TIP3    H142490  -0.063   4.653   0.229 -0.3590 -2.5083  1.0775
 7025TIP3    H242491   0.038   4.687   0.335  0.2326  0.5816 -0.3787
 7026TIP3   OH242492   4.102   5.665  11.448  0.6008 -0.1201  0.4988
 7026TIP3    H142493   4.174   5.663  11.511 -0.9735  1.7091  2.5227
 7026TIP3    H242494   4.124   5.737  11.389  1.2194 -0.6423  0.0930
 7027TIP3   OH242495   3.073   1.040   0.824 -0.2226 -0.0619 -0.1448
 7027TIP3    H142496   3.165   1.054   0.802  0.0742 -2.0195 -0.3598
 7027TIP3    H242497   3.042   1.125   0.854  2.0965  0.3069  1.5163
 7028TIP3   OH242498   3.831   4.201   5.653  0.1441 -0.3672 -0.0408
 7028TIP3    H142499   3.897   4.256   5.695  0.7148  0.3638 -1.8163
 7028TIP3    H242500   3.881   4.131   5.611 -0.4006 -0.9477  0.2548
 7029TIP3   OH242501   0.104   0.153   3.045  0.2047 -0.6052  0.2212
 7029TIP3    H142502   0.180   0.204   3.070  0.0473 -0.2713  0.0331
 7029TIP3    H242503   0.051   0.214   2.993 -0.6477 -0.5320  1.1411
 7030TIP3   OH242504   0.123   3.606   2.541 -0.0261 -0.0719 -0.8502
 7030TIP3    H142505   0.117   3.604   2.445  0.1697  0.1409 -0.8683
 7030TIP3    H242506   0.215   3.623   2.559 -0.1018  0.1098 -0.6256
 7031TIP3   OH242507   2.088   6.439  12.227  0.0436  0.4366  0.4000
 7031TIP3    H142508   2.022   6.482  12.282 -0.0709 -0.1701  0.7555
 7031TIP3    H242509   2.065   6.346  12.231  0.3989  0.3173 -0.1918
 7032TIP3   OH242510   3.709   0.484   3.638  0.0604  0.1866 -0.8072
 7032TIP3    H142511   3.675   0.404   3.598 -2.3519  1.1511 -0.8169
 7032TIP3    H242512   3.743   0.535   3.564  0.1571 -0.1479 -0.9946
 7033TIP3   OH242513   0.929   2.878   0.672  0.2279 -0.4897 -0.6637
 7033TIP3    H142514   0.943   2.965   0.636 -0.2802 -0.1622 -0.0734
 7033TIP3    H242515   1.013   2.855   0.713  0.2134 -0.0776 -0.3990
 7034TIP3   OH242516   5.340   5.223  12.851  0.1804  0.5049  0.3384
 7034TIP3    H142517   5.301   5.267  12.776  1.4408  0.4984 -0.3408
 7034TIP3    H242518   5.289   5.142  12.860  0.0489  0.4760 -0.5542
 7035TIP3   OH242519   2.478   2.982  11.348 -0.6866  0.3039  0.3309
 7035TIP3    H142520   2.479   2.887  11.342  3.1917  0.2493 -0.7186
 7035TIP3    H242521   2.453   3.012  11.261  2.3410  0.0556 -0.7490
 7036TIP3   OH242522   1.768   1.430  13.435 -0.2381  0.1270 -0.9130
 7036TIP3    H142523   1.824   1.448  13.511 -3.3892 -1.6832  2.1617
 7036TIP3    H242524   1.823   1.381  13.375  2.1526  0.6503  0.7055
 7037TIP3   OH242525   0.990   6.528  15.264 -0.1776 -0.2900  0.4836
 7037TIP3    H142526   1.086   6.522  15.263 -0.1303 -0.3787 -1.9155
 7037TIP3    H242527   0.971   6.603  15.320  1.3432  0.1518  0.4518
 7038TIP3   OH242528   3.473   5.049   5.746 -0.3104 -0.3267  1.2767
 7038TIP3    H142529   3.518   5.107   5.686  0.0463 -2.4447 -0.6187
 7038TIP3    H242530   3.382   5.081   5.747 -0.2228  0.0071 -0.0499
 7039TIP3   OH242531   0.406   3.886   3.111 -0.2636  0.4030 -0.3915
 7039TIP3    H142532   0.385   3.916   3.022  0.7636  3.6521  0.3021
 7039TIP3    H242533   0.347   3.936   3.168  2.4249  2.3398  0.9488
 7040TIP3   OH242534   1.856   6.681  14.370  0.3320 -0.0307 -0.2648
 7040TIP3    H142535   1.861   6.723  14.284  0.1325  0.8898  0.1689
 7040TIP3    H242536   1.911   6.735  14.427 -0.1949 -0.1518  0.3772
 7041TIP3   OH242537   6.032   2.190   3.796 -0.2360 -0.8604 -0.2548
 7041TIP3    H142538   5.985   2.171   3.877 -0.4018 -0.5845 -0.2870
 7041TIP3    H242539   5.980   2.258   3.753 -0.6025 -1.5920 -0.9946
 7042TIP3   OH242540   1.159   0.250   5.982 -0.5276  0.4222 -0.2008
 7042TIP3    H142541   1.232   0.199   6.020 -1.4248 -3.7290 -3.2843
 7042TIP3    H242542   1.086   0.234   6.042  0.2748  2.3435  1.4313
 7043TIP3   OH242543   5.891   1.305  12.417 -0.4064  0.3693  0.3312
 7043TIP3    H142544   5.890   1.368  12.489  0.4204  1.1805 -0.3419
 7043TIP3    H242545   5.927   1.354  12.343  0.3859 -0.9166 -0.1764
 7044TIP3   OH242546   0.191   4.110  14.869 -0.0458 -0.4447 -0.2603
 7044TIP3    H142547   0.165   4.018  14.863  0.2577 -0.6014  0.7069
 7044TIP3    H242548   0.287   4.108  14.866  0.0197 -0.2918  1.1159
 7045TIP3   OH242549   0.462   6.384  16.523 -0.1454  0.1574  0.4333
 7045TIP3    H142550   0.467   6.337  16.606 -0.7096 -0.9121 -0.1188
 7045TIP3    H242551   0.545   6.432  16.517  0.6491 -1.1190  0.8247
 7046TIP3   OH242552   5.494   3.319   2.369 -0.3447  0.1297  0.3597
 7046TIP3    H142553   5.573   3.358   2.406  0.0509  0.7482 -1.0704
 7046TIP3    H242554   5.422   3.367   2.409  0.0755  0.8742  0.2445
 7047TIP3   OH242555   0.182   1.458  10.844  0.0437  0.2997  0.0428
 7047TIP3    H142556   0.160   1.508  10.922 -2.6105  0.5845 -0.7633
 7047TIP3    H242557   0.252   1.509  10.802  2.8483 -0.7933  2.9859
 7048TIP3   OH242558   0.572   4.745  16.517  0.4555 -0.2079  0.0670
 7048TIP3    H142559   0.597   4.684  16.587 -2.7230 -0.2170  1.3636
 7048TIP3    H242560   0.477   4.745  16.518  0.2327  0.2854 -3.9389
 7049TIP3   OH242561   5.359   2.291   1.326 -0.4285  0.2985 -0.2042
 7049TIP3    H142562   5.338   2.294   1.233  0.6305  1.4393 -0.4275
 7049TIP3    H242563   5.405   2.208   1.338 -0.4633  0.2031 -0.7117
 7050TIP3   OH242564   4.751   0.509   2.594  0.1266 -0.3438  0.1191
 7050TIP3    H142565   4.815   0.481   2.528 -0.0570 -1.0015  0.2154
 7050TIP3    H242566   4.797   0.499   2.677 -0.4694 -1.9677  0.2915
 7051TIP3   OH242567   1.132   4.517  14.576  1.0443 -0.3790 -0.1564
 7051TIP3    H142568   1.204   4.580  14.584  0.8242 -0.3283  1.8448
 7051TIP3    H242569   1.139   4.462  14.654 -1.4888  0.0435  0.4501
 7052TIP3   OH242570   5.231   2.856  11.524 -0.0168 -0.4636  0.2851
 7052TIP3    H142571   5.209   2.777  11.475 -0.3090 -0.2314  0.0274
 7052TIP3    H242572   5.299   2.899  11.472 -0.4100 -0.1577  0.0116
 7053TIP3   OH242573   5.765   6.267   5.920 -0.2666 -0.3772  0.3817
 7053TIP3    H142574   5.811   6.183   5.916  1.6546  0.6501 -1.0511
 7053TIP3    H242575   5.709   6.268   5.843 -0.2274 -0.3287  0.3535
 7054TIP3   OH242576   2.415   6.096   2.805 -0.7798  0.0419 -0.3314
 7054TIP3    H142577   2.432   6.077   2.713  0.2901 -0.3114 -0.0682
 7054TIP3    H242578   2.394   6.011   2.844 -0.5280  0.0827 -0.1031
 7055TIP3   OH242579   6.619   4.841  13.031 -0.4612 -0.1170  0.4042
 7055TIP3    H142580   6.707   4.840  13.070  0.3844 -0.8801 -1.4180
 7055TIP3    H242581   6.623   4.777  12.960 -3.0331 -1.4678  1.3467
 7056TIP3   OH242582   5.345   4.564   4.887  0.0935  0.9920  0.1686
 7056TIP3    H142583   5.269   4.578   4.830 -0.0142 -1.7169 -0.4836
 7056TIP3    H242584   5.308   4.561   4.975 -1.0770 -2.5918 -0.2911
 7057TIP3   OH242585   1.463   2.860  14.591 -0.5730 -0.3403 -0.2921
 7057TIP3    H142586   1.435   2.825  14.506 -0.9545 -0.4454 -0.1272
 7057TIP3    H242587   1.392   2.835  14.651 -0.6863  0.4285 -0.1011
 7058TIP3   OH242588   0.325   1.074   0.981  0.1964  0.7103  0.0838
 7058TIP3    H142589   0.255   1.081   0.915 -0.1849 -2.2105  0.0388
 7058TIP3    H242590   0.396   1.128   0.946  0.7331 -2.1094 -3.8380
 7059TIP3   OH242591   2.139   4.671   5.687  0.0160  0.5182 -0.2151
 7059TIP3    H142592   2.221   4.665   5.736 -1.2600 -0.8322  1.8927
 7059TIP3    H242593   2.105   4.758   5.708 -0.8557 -0.2808  2.0399
 7060TIP3   OH242594   2.086   3.467  13.072 -0.1281  0.2155 -0.3239
 7060TIP3    H142595   2.022   3.529  13.037 -1.3763 -0.2599  1.0126
 7060TIP3    H242596   2.082   3.392  13.014 -1.2357 -0.0417  0.0658
 7061TIP3   OH242597   5.136   3.382  16.753  0.6034  0.6189 -0.2741
 7061TIP3    H142598   5.083   3.303  16.737 -0.2440  1.3261 -1.0636
 7061TIP3    H242599   5.129   3.397  16.847  0.1956  0.1496 -0.2248
 7062TIP3   OH242600   4.395   5.834  13.700  0.1337  0.2524  0.6231
 7062TIP3    H142601   4.464   5.890  13.664  1.5661 -2.5136 -1.2600
 7062TIP3    H242602   4.335   5.819  13.627 -0.3493 -0.4403  1.1489
 7063TIP3   OH242603   2.668   0.725   5.195  0.3539  0.2414 -0.4003
 7063TIP3    H142604   2.599   0.783   5.164  0.0884 -0.3676 -0.9756
 7063TIP3    H242605   2.714   0.775   5.263 -1.9876 -0.0704  1.5673
 7064TIP3   OH242606   4.229   3.561   6.193  0.2648 -0.1775 -0.2904
 7064TIP3    H142607   4.147   3.545   6.147 -0.4447  1.9077  0.1500
 7064TIP3    H242608   4.242   3.656   6.188  2.0050 -0.3081  0.7233
 7065TIP3   OH242609   4.033   3.857  15.036  0.0303  0.5436 -0.0537
 7065TIP3    H142610   3.945   3.835  15.069  0.4399  0.8294  1.3039
 7065TIP3    H242611   4.040   3.952  15.046  0.6230  0.4800  0.1839
 7066TIP3   OH242612   2.239   1.363  14.555  0.1574  0.0124 -0.1242
 7066TIP3    H142613   2.166   1.416  14.586 -0.6243 -0.0326 -1.7988
 7066TIP3    H242614   2.202   1.275  14.544  0.6896 -0.2124 -0.1651
 7067TIP3   OH242615   4.347   1.702   2.091  0.1144  0.1287  0.4270
 7067TIP3    H142616   4.297   1.773   2.051 -0.5111 -0.3668  0.3057
 7067TIP3    H242617   4.374   1.737   2.176  2.9038  1.8168 -1.0119
 7068TIP3   OH242618   3.073   1.275  11.637  0.2382  0.0673  0.1938
 7068TIP3    H142619   3.027   1.307  11.560  0.8730  1.7264  0.4561
 7068TIP3    H242620   3.162   1.311  11.629  1.2341 -2.2372  0.1844
 7069TIP3   OH242621   1.778   5.140   1.561 -0.3020  0.3127 -0.4457
 7069TIP3    H142622   1.730   5.127   1.479 -1.0447  1.3333 -0.1904
 7069TIP3    H242623   1.710   5.155   1.627  0.2995 -0.2984  0.3313
 7070TIP3   OH242624   1.707   6.063   1.642 -0.6398  0.6043 -0.1291
 7070TIP3    H142625   1.778   6.098   1.589 -0.5448  0.6109  0.0039
 7070TIP3    H242626   1.646   6.026   1.578  0.7779 -1.8736 -0.1677
 7071TIP3   OH242627   5.907   0.969   5.255 -0.6957  0.1936 -0.6243
 7071TIP3    H142628   5.822   1.005   5.283 -0.5428  0.2496 -0.2337
 7071TIP3    H242629   5.970   1.037   5.276 -0.3191 -0.5239  0.6811
 7072TIP3   OH242630   1.771   5.881   4.191 -0.4787  0.7316  0.2589
 7072TIP3    H142631   1.714   5.804   4.185 -0.7803  1.0875 -2.1294
 7072TIP3    H242632   1.848   5.849   4.239 -0.9534 -0.8487  0.0346
 7073TIP3   OH242633   2.873   2.874   0.817 -0.1116  0.1084  0.2160
 7073TIP3    H142634   2.827   2.941   0.868  0.8832  0.8810  0.1288
 7073TIP3    H242635   2.876   2.798   0.875  2.3334  1.4425  1.9905
 7074TIP3   OH242636   5.850   2.037   0.752 -0.2580  0.3478 -0.3962
 7074TIP3    H142637   5.913   2.105   0.775 -0.2185  0.1389  0.1304
 7074TIP3    H242638   5.767   2.068   0.788 -0.4416  0.5799 -1.0104
 7075TIP3   OH242639   1.246   1.608  15.429  0.8848  0.0522  0.2014
 7075TIP3    H142640   1.154   1.595  15.451  0.4147  0.0470 -1.5938
 7075TIP3    H242641   1.259   1.702  15.437  0.5562  0.1250 -0.0610
 7076TIP3   OH242642   1.810   3.803   1.946 -0.2008  0.5726 -0.4048
 7076TIP3    H142643   1.720   3.806   1.913  0.1386 -1.5944 -1.7451
 7076TIP3    H242644   1.839   3.894   1.946 -2.3773  1.3107  0.0472
 7077TIP3   OH242645   1.011   0.520  14.541  0.2148  0.9447 -0.2140
 7077TIP3    H142646   1.087   0.536  14.484  1.1877 -1.4061  0.3360
 7077TIP3    H242647   1.032   0.566  14.622  0.9081  0.5761 -0.1784
 7078TIP3   OH242648   1.173   3.604   0.008 -0.3061 -0.9533 -0.1176
 7078TIP3    H142649   1.248   3.657  -0.020 -0.2876 -0.6658  0.4729
 7078TIP3    H242650   1.209   3.547   0.076 -0.8414 -0.1147  0.8940
 7079TIP3   OH242651   0.384   3.140  13.751 -0.0499 -0.3292  0.3686
 7079TIP3    H142652   0.462   3.193  13.768 -0.7531  1.6572 -2.0857
 7079TIP3    H242653   0.406   3.091  13.672 -1.2283  0.1829 -0.2882
 7080TIP3   OH242654   2.604   3.126  15.767 -0.1313 -0.4812  0.0562
 7080TIP3    H142655   2.663   3.201  15.771 -2.5709  1.5611  1.1675
 7080TIP3    H242656   2.611   3.094  15.677  1.4341  0.6952 -0.2841
 7081TIP3   OH242657   2.071   0.987   4.056 -0.8262  0.2906  0.0367
 7081TIP3    H142658   2.037   0.899   4.043 -0.3368 -0.0175  0.7633
 7081TIP3    H242659   2.141   0.977   4.121 -0.3006  1.1134 -0.3781
 7082TIP3   OH242660   1.780   5.640  12.012  0.4589 -0.7532 -0.4041
 7082TIP3    H142661   1.813   5.563  12.058  0.3365 -0.2090  0.6295
 7082TIP3    H242662   1.853   5.667  11.956  0.8786 -1.0250 -0.0030
 7083TIP3   OH242663   4.983   4.472   4.720 -0.3017 -0.4936 -0.0032
 7083TIP3    H142664   4.963   4.446   4.630 -1.0978  0.6913 -0.1907
 7083TIP3    H242665   4.911   4.435   4.772  0.1560 -1.1748  0.1682
 7084TIP3   OH242666   3.440   3.835   1.594 -0.4504  0.3702 -0.1598
 7084TIP3    H142667   3.533   3.855   1.583 -0.7533  1.2409 -1.4046
 7084TIP3    H242668   3.397   3.921   1.597 -1.1019  0.0226  1.7667
 7085TIP3   OH242669   1.362   5.555  13.449  0.0301 -0.4791  0.4775
 7085TIP3    H142670   1.304   5.604  13.390  0.1710 -1.0985 -0.1932
 7085TIP3    H242671   1.378   5.615  13.522 -2.5658 -0.7979  1.3996
 7086TIP3   OH242672   2.126   5.534  14.490 -0.2353 -0.2203  0.2361
 7086TIP3    H142673   2.093   5.580  14.412 -1.8042  0.2916  1.1501
 7086TIP3    H242674   2.134   5.603  14.556 -0.5981 -0.9207  1.0214
 7087TIP3   OH242675   3.508   1.426   1.405  0.0322  0.0622  0.7104
 7087TIP3    H142676   3.451   1.364   1.359  0.0112  0.3702  0.3101
 7087TIP3    H242677   3.517   1.390   1.493  0.1592 -0.5969  0.4347
 7088TIP3   OH242678   0.512   2.142   4.336  0.8089 -0.4019  0.4659
 7088TIP3    H142679   0.572   2.068   4.346  0.3238 -0.7191  1.0508
 7088TIP3    H242680   0.564   2.218   4.362  2.1455 -0.1355 -2.5029
 7089TIP3   OH242681   5.327   0.308  15.359 -0.4268 -0.1334  0.0588
 7089TIP3    H142682   5.336   0.230  15.303 -0.6938  0.9440 -1.5587
 7089TIP3    H242683   5.417   0.331  15.382 -0.3892 -1.4876  1.4270
 7090TIP3   OH242684   6.460   1.541   5.674  0.1580  0.5045  0.3432
 7090TIP3    H142685   6.485   1.632   5.689  0.3227  0.5080  0.0602
 7090TIP3    H242686   6.511   1.491   5.739  1.0295  0.4979 -0.3156
 7091TIP3   OH242687   4.008   1.008   4.303  0.0849  0.0661  0.3953
 7091TIP3    H142688   3.917   1.015   4.332  0.1841 -0.6331  0.9136
 7091TIP3    H242689   4.050   0.953   4.369  0.9598  0.6244  0.3173
 7092TIP3   OH242690   4.752   0.294   3.502 -0.0806 -0.2507 -0.0209
 7092TIP3    H142691   4.787   0.383   3.503  0.3736 -0.4171  1.3664
 7092TIP3    H242692   4.823   0.240   3.469  0.2839 -0.3216  0.8569
 7093TIP3   OH242693   0.989   3.088   0.448 -0.9620 -0.5003  0.6516
 7093TIP3    H142694   1.064   3.110   0.393 -0.1207 -0.1447  1.8980
 7093TIP3    H242695   0.959   3.173   0.483 -1.0084 -0.7867  1.3217
 7094TIP3   OH242696   1.212   2.406   4.998  1.0434 -0.5440 -0.5272
 7094TIP3    H142697   1.292   2.414   5.051 -0.3213  2.1675  1.3300
 7094TIP3    H242698   1.173   2.323   5.027  1.6860 -0.4265  0.7514
 7095TIP3   OH242699   5.362   6.181   5.430  0.3230 -0.1279  0.5861
 7095TIP3    H142700   5.358   6.222   5.344  2.0211 -1.5128 -0.2147
 7095TIP3    H242701   5.375   6.253   5.491  1.7903  0.6678 -0.6131
 7096TIP3   OH242702   6.245   2.455  14.678  0.7451 -0.4958  0.6338
 7096TIP3    H142703   6.295   2.457  14.759  0.7196 -0.1317  0.6429
 7096TIP3    H242704   6.310   2.452  14.608  0.8571  1.5910  0.5771
 7097TIP3   OH242705   1.506   5.952   5.753  0.1200  0.3313  0.2893
 7097TIP3    H142706   1.532   6.043   5.769  0.0304  0.2462  0.9383
 7097TIP3    H242707   1.587   5.902   5.760  0.1925  0.3734 -0.2049
 7098TIP3   OH242708   4.827   4.908  16.282  0.5305 -0.2458  0.1513
 7098TIP3    H142709   4.806   4.909  16.189 -0.1205 -2.4047  0.2089
 7098TIP3    H242710   4.911   4.862  16.288  0.5607 -0.1349  0.6200
 7099TIP3   OH242711   3.684   0.003  14.153 -0.7900 -0.5321  0.0966
 7099TIP3    H142712   3.594   0.011  14.185 -0.9436 -0.1823 -0.4146
 7099TIP3    H242713   3.695   0.077  14.093 -0.1302 -0.5180  0.2254
 7100TIP3   OH242714   0.880   4.065   5.924 -0.2655 -0.3253 -0.1853
 7100TIP3    H142715   0.923   3.995   5.874 -0.0133 -1.3797  1.4275
 7100TIP3    H242716   0.891   4.039   6.015 -2.8020  0.2705  0.3578
 7101TIP3   OH242717   4.716   1.018   3.743  0.0691  0.6883  0.3131
 7101TIP3    H142718   4.655   1.039   3.815  0.7945  1.0705  0.8254
 7101TIP3    H242719   4.735   1.102   3.702 -1.2891  0.3457 -1.1415
 7102TIP3   OH242720   2.863   2.148  11.301  0.4513  0.1242 -0.2668
 7102TIP3    H142721   2.904   2.116  11.221  1.3669  1.2842 -0.2878
 7102TIP3    H242722   2.915   2.225  11.325 -0.9276  0.8577  0.4391
 7103TIP3   OH242723   2.146   2.205  14.132 -0.3671  0.0871 -0.6800
 7103TIP3    H142724   2.182   2.250  14.209 -2.2398 -0.3083  0.5147
 7103TIP3    H242725   2.120   2.119  14.165 -1.2140 -0.0889 -1.7562
 7104TIP3   OH242726   0.254   1.297   4.184  0.0946  0.7800  0.5520
 7104TIP3    H142727   0.213   1.249   4.112  0.2219  2.7829 -0.9560
 7104TIP3    H242728   0.184   1.309   4.248 -0.4990  0.4159 -0.0155
 7105TIP3   OH242729   5.475   1.074   1.343 -0.2143  0.0227 -0.1182
 7105TIP3    H142730   5.436   1.008   1.286  3.0957 -0.4880 -2.0525
 7105TIP3    H242731   5.464   1.157   1.295 -0.4945  0.1734  0.2018
 7106TIP3   OH242732   2.050   0.791  11.611  0.5661  0.0100 -0.1352
 7106TIP3    H142733   2.112   0.855  11.577  0.6863 -0.9004 -1.7501
 7106TIP3    H242734   2.103   0.735  11.668  1.1238 -0.3567 -0.9823
 7107TIP3   OH242735   4.647   2.708  16.392  0.5306 -0.1170  0.0633
 7107TIP3    H142736   4.560   2.739  16.366  0.2246 -1.8406 -1.1680
 7107TIP3    H242737   4.634   2.673  16.480 -0.6424 -2.4713 -0.9609
 7108TIP3   OH242738   1.065   4.328  15.927 -0.0400  0.1679 -0.6455
 7108TIP3    H142739   1.141   4.290  15.883 -0.1401 -0.9473  0.0776
 7108TIP3    H242740   1.086   4.323  16.020 -0.7692  0.3536 -0.4632
 7109TIP3   OH242741   1.441   5.237  17.182  0.2360 -0.1516 -0.1142
 7109TIP3    H142742   1.431   5.267  17.273  1.0656  0.2215 -0.1407
 7109TIP3    H242743   1.354   5.249  17.144 -0.3665 -1.1701  0.8736
 7110TIP3   OH242744   1.609   3.176  10.991 -0.8328 -0.0162  0.0794
 7110TIP3    H142745   1.675   3.117  10.954 -0.9436  0.3337 -0.6942
 7110TIP3    H242746   1.544   3.186  10.922 -2.8381 -2.0234  1.5471
 7111TIP3   OH242747   3.319   0.605   2.766  0.4425  0.5543 -0.4024
 7111TIP3    H142748   3.292   0.670   2.701 -0.5516 -1.3209 -1.9723
 7111TIP3    H242749   3.348   0.530   2.714  1.3477 -0.3547  1.3335
 7112TIP3   OH242750   3.419   2.601  12.770 -0.3266  0.2494 -0.0095
 7112TIP3    H142751   3.348   2.576  12.828 -1.0559 -0.3929 -1.1307
 7112TIP3    H242752   3.484   2.531  12.779 -1.1260 -0.6625 -1.0768
 7113TIP3   OH242753   0.557   6.111  13.661 -0.8127  0.4855 -0.6532
 7113TIP3    H142754   0.484   6.072  13.612 -0.0743  0.3798 -1.6796
 7113TIP3    H242755   0.612   6.152  13.594 -0.5674  1.6547  0.2256
 7114TIP3   OH242756   3.545   3.054   1.933 -0.0967  0.3059 -0.4370
 7114TIP3    H142757   3.482   3.041   2.004  0.8504 -0.6393  0.2595
 7114TIP3    H242758   3.498   3.023   1.855 -1.7267  2.8193 -0.5666
 7115TIP3   OH242759   5.360   5.471  11.947  0.1979 -0.1946 -0.1998
 7115TIP3    H142760   5.448   5.507  11.937  0.2108 -0.4455 -1.0791
 7115TIP3    H242761   5.301   5.541  11.920  0.1853 -0.4664 -0.9025
 7116TIP3   OH242762   3.022   3.032  13.723 -0.7921 -0.2575  0.2901
 7116TIP3    H142763   3.039   2.940  13.745  1.5803 -0.4552 -1.8735
 7116TIP3    H242764   3.020   3.033  13.627 -2.1248  1.7935  0.2814
 7117TIP3   OH242765   0.333   4.031   1.643 -0.0639 -0.6579  0.1198
 7117TIP3    H142766   0.389   4.095   1.690  1.2382 -1.1367 -0.7264
 7117TIP3    H242767   0.387   4.002   1.570 -1.2933 -1.4811 -0.4784
 7118TIP3   OH242768   5.203   6.558  13.272  0.5058  0.1633  0.3292
 7118TIP3    H142769   5.248   6.477  13.248 -0.1402 -0.0400 -0.2413
 7118TIP3    H242770   5.110   6.539  13.256  0.4183  1.2871 -0.6395
 7119TIP3   OH242771   0.579   6.263  15.752  0.4234 -0.2368 -0.1670
 7119TIP3    H142772   0.544   6.219  15.674  0.0350 -1.0777  0.4556
 7119TIP3    H242773   0.562   6.356  15.737 -0.8382 -0.5014 -0.5215
 7120TIP3   OH242774   2.096   1.176   3.343  0.4394 -0.1413  0.2004
 7120TIP3    H142775   2.091   1.235   3.418 -0.2759  0.1875 -0.0954
 7120TIP3    H242776   2.051   1.223   3.273  0.4704 -0.7526 -0.2359
 7121TIP3   OH242777   5.931   2.547  11.152  0.2050 -0.0171 -0.4241
 7121TIP3    H142778   5.942   2.503  11.067  0.3052 -2.0547  0.5831
 7121TIP3    H242779   5.941   2.477  11.216  0.5082  1.5441  1.3068
 7122TIP3   OH242780   5.646   6.018   3.757  0.2361 -0.2631  0.2191
 7122TIP3    H142781   5.679   6.075   3.688  1.2347 -1.5823 -0.4312
 7122TIP3    H242782   5.661   6.067   3.838  1.1206  0.3718 -0.3145
 7123TIP3   OH242783   3.836   3.731   2.874 -0.0837 -0.1587 -0.0556
 7123TIP3    H142784   3.831   3.773   2.960 -1.6971  0.4238 -0.3992
 7123TIP3    H242785   3.831   3.637   2.893  0.9737 -0.0989  0.5609
 7124TIP3   OH242786   1.273   1.762   6.568  0.1651 -0.4653  0.3810
 7124TIP3    H142787   1.242   1.767   6.478  0.5391 -2.4933  0.0845
 7124TIP3    H242788   1.196   1.733   6.618  0.3153 -0.6852  0.4842
 7125TIP3   OH242789   3.392   6.202   4.150 -0.3654 -1.1703 -0.0761
 7125TIP3    H142790   3.479   6.222   4.185 -0.7677 -0.1284  0.3581
 7125TIP3    H242791   3.376   6.269   4.084 -1.7482  0.0353  1.4138
 7126TIP3   OH242792   4.160   4.160   4.072  0.2058  0.2473  0.0055
 7126TIP3    H142793   4.240   4.201   4.105 -1.2530  1.9857  1.5337
 7126TIP3    H242794   4.180   4.141   3.980  1.7208  2.4300 -0.1853
 7127TIP3   OH242795   3.546   0.259  17.254 -0.3902  0.5032  0.2161
 7127TIP3    H142796   3.556   0.210  17.172  0.0399  0.6429  0.1815
 7127TIP3    H242797   3.550   0.192  17.322  0.7401  0.5222  0.1986
 7128TIP3   OH242798   2.953   4.201   3.357 -0.1047 -0.7195 -0.4186
 7128TIP3    H142799   2.861   4.178   3.372 -0.4762  0.0682 -1.3432
 7128TIP3    H242800   2.999   4.117   3.357 -1.2645 -1.4430 -2.7215
 7129TIP3   OH242801   4.817   5.368  12.072 -0.1813  0.1629 -0.0056
 7129TIP3    H142802   4.729   5.342  12.046 -0.1524  0.3845 -0.3216
 7129TIP3    H242803   4.820   5.351  12.167 -0.0105 -1.4252 -0.2718
 7130TIP3   OH242804   6.309   0.501  16.601  0.2913 -0.2191 -0.4124
 7130TIP3    H142805   6.257   0.430  16.564  0.8833 -1.3213  0.8112
 7130TIP3    H242806   6.247   0.550  16.656  0.1097 -0.4051 -0.4494
 7131TIP3   OH242807   2.316   4.351  13.520 -0.0426  0.5434 -0.4836
 7131TIP3    H142808   2.278   4.291  13.455  0.3576  0.8504 -1.0052
 7131TIP3    H242809   2.322   4.435  13.475 -1.1111  1.1352  0.4176
 7132TIP3   OH242810   3.477   4.319   0.918 -0.1879  0.7136 -0.2343
 7132TIP3    H142811   3.392   4.334   0.876 -0.3386  0.9080  0.1276
 7132TIP3    H242812   3.464   4.351   1.008  0.1875  0.4976 -0.1027
 7133TIP3   OH242813   3.777   0.698   6.128 -0.6614  0.2676 -0.0107
 7133TIP3    H142814   3.701   0.716   6.184 -2.0694 -0.4752 -1.5729
 7133TIP3    H242815   3.816   0.619   6.166 -1.4811 -0.1181  0.0686
 7134TIP3   OH242816   4.868   5.200   5.988  0.5880  0.0273 -0.3391
 7134TIP3    H142817   4.941   5.258   6.008 -0.7711  2.0510 -0.8442
 7134TIP3    H242818   4.835   5.171   6.073  1.2570  0.0231 -0.0765
 7135TIP3   OH242819   3.068   5.158   3.140  0.0838 -0.3090 -0.5149
 7135TIP3    H142820   3.155   5.127   3.164 -0.5957 -3.7733 -1.9540
 7135TIP3    H242821   3.083   5.222   3.070  1.5006  0.4725  0.4708
 7136TIP3   OH242822   5.216   6.029  16.079  0.1456  0.2913  0.5970
 7136TIP3    H142823   5.197   6.123  16.069  0.3300  0.3647  0.9345
 7136TIP3    H242824   5.183   6.007  16.165 -1.6713 -0.4061 -0.2272
 7137TIP3   OH242825   1.360   3.488   6.392 -0.4286 -0.0896  0.8413
 7137TIP3    H142826   1.394   3.558   6.336 -1.1107 -0.1480  0.3517
 7137TIP3    H242827   1.320   3.534   6.466  1.4610 -0.0329  1.8899
 7138TIP3   OH242828   5.589   5.136  17.027  0.1637  0.5882  0.2247
 7138TIP3    H142829   5.591   5.144  17.122 -1.0648  0.7876  0.2478
 7138TIP3    H242830   5.646   5.207  16.996 -1.0292  1.8218  0.7653
 7139TIP3   OH242831   2.854   1.040  13.129  0.2312  0.1430 -0.1342
 7139TIP3    H142832   2.869   1.125  13.086  2.0408 -0.7704 -1.4303
 7139TIP3    H242833   2.815   0.986  13.061  0.7049 -0.5693  0.1552
 7140TIP3   OH242834   1.254   3.794  11.733  0.3569 -1.3314  0.3850
 7140TIP3    H142835   1.248   3.700  11.749 -0.7541 -0.9479  2.5407
 7140TIP3    H242836   1.342   3.819  11.762  0.0742 -1.4527  1.3652
 7141TIP3   OH242837   4.555   5.289  11.975 -0.1634  0.0999 -0.1692
 7141TIP3    H142838   4.490   5.358  11.983  0.5212  0.6420  0.9891
 7141TIP3    H242839   4.533   5.244  11.894 -1.8851  0.3606  0.1236
 7142TIP3   OH242840   3.688   5.648   5.723  0.0531  0.3624 -0.1660
 7142TIP3    H142841   3.707   5.680   5.811  0.3264  1.6247 -0.6701
 7142TIP3    H242842   3.628   5.574   5.737  0.9035 -0.1289  1.1268
 7143TIP3   OH242843   6.606   1.292  15.809  0.5344  0.6901  0.4474
 7143TIP3    H142844   6.690   1.277  15.766  0.4868 -4.5141  1.4404
 7143TIP3    H242845   6.544   1.239  15.759 -1.8078  2.7538  0.9627
 7144TIP3   OH242846   0.856   3.157   6.555 -0.5366  0.6519 -0.0441
 7144TIP3    H142847   0.771   3.172   6.515 -0.3982 -0.8821 -0.9917
 7144TIP3    H242848   0.848   3.194   6.643 -1.6956  1.7811 -0.5973
 7145TIP3   OH242849   6.493   0.190   1.543  0.1395  0.1605  0.0556
 7145TIP3    H142850   6.464   0.104   1.572 -1.1238  0.3230 -0.6247
 7145TIP3    H242851   6.537   0.228   1.619 -1.1619 -0.2606  1.0549
 7146TIP3   OH242852   3.112   4.797  14.383  0.0033 -0.3937  0.7068
 7146TIP3    H142853   3.153   4.869  14.431 -0.3877  1.3958 -1.4541
 7146TIP3    H242854   3.061   4.840  14.314 -0.7415 -2.7425 -0.3233
 7147TIP3   OH242855   2.370   3.246  13.352 -0.1193 -0.2506 -0.4067
 7147TIP3    H142856   2.390   3.153  13.343 -0.2533 -0.2097 -1.1877
 7147TIP3    H242857   2.415   3.273  13.432 -0.1157 -0.9957 -0.1576
 7148TIP3   OH242858   1.309   6.251  15.711 -0.3275 -0.1403  0.4455
 7148TIP3    H142859   1.328   6.219  15.799  1.4113 -1.6676 -0.4023
 7148TIP3    H242860   1.315   6.173  15.655 -2.1043  0.6518 -0.9501
 7149TIP3   OH242861   3.039   3.668  13.887  0.9707 -0.4421 -0.1666
 7149TIP3    H142862   3.056   3.574  13.890  0.4811 -0.5237  0.1101
 7149TIP3    H242863   3.077   3.696  13.804  0.3495 -1.0452 -0.6664
 7150TIP3   OH242864   1.271   0.208   3.983  0.9330  0.4668  0.3721
 7150TIP3    H142865   1.190   0.250   4.013 -0.0879 -0.9559 -0.2689
 7150TIP3    H242866   1.288   0.248   3.898 -0.1636 -0.5413 -0.3436
 7151TIP3   OH242867   0.988   1.100  15.405  0.2626  0.3205  0.0583
 7151TIP3    H142868   0.921   1.072  15.343  0.4046  2.1273 -0.9743
 7151TIP3    H242869   0.939   1.130  15.482  0.0179 -0.5663  0.2573
 7152TIP3   OH242870   0.225   4.894  14.871  0.2520 -0.2440  0.7554
 7152TIP3    H142871   0.136   4.912  14.841 -0.2897  0.0698  2.4784
 7152TIP3    H242872   0.280   4.921  14.797 -1.0832 -1.0266 -0.5816
 7153TIP3   OH242873   2.792   5.158  14.952 -0.1834  0.0642 -0.3618
 7153TIP3    H142874   2.799   5.251  14.971  0.2829  0.6591 -3.1233
 7153TIP3    H242875   2.879   5.122  14.971 -0.3007  0.2023  0.4802
 7154TIP3   OH242876   5.513   3.708   4.015  1.1328  0.3796  0.3793
 7154TIP3    H142877   5.557   3.728   4.098 -0.6842 -0.0407  1.5076
 7154TIP3    H242878   5.438   3.768   4.013  0.7567 -0.1080 -0.6055
 7155TIP3   OH242879   4.698   6.539   4.324  1.0111 -0.2455  0.0848
 7155TIP3    H142880   4.664   6.450   4.311 -0.1367  0.4101 -1.7664
 7155TIP3    H242881   4.647   6.573   4.397 -0.9299 -0.0106 -1.3154
 7156TIP3   OH242882   3.171   2.960  16.491  0.0734  0.2149 -0.2984
 7156TIP3    H142883   3.146   2.998  16.575  1.6314 -1.1631  0.8555
 7156TIP3    H242884   3.103   2.895  16.473  0.9455 -1.1892  1.1694
 7157TIP3   OH242885   3.472   4.563   1.697 -0.4802  0.3498 -0.0436
 7157TIP3    H142886   3.404   4.499   1.718 -2.3004  2.6453  1.6342
 7157TIP3    H242887   3.464   4.630   1.765  1.8717  1.9497 -1.1970
 7158TIP3   OH242888   0.372   4.068   5.366 -0.0553 -0.5113  0.2337
 7158TIP3    H142889   0.421   4.115   5.434 -0.6424 -0.1738  0.4349
 7158TIP3    H242890   0.438   4.021   5.316  0.6404  1.0839 -0.4095
 7159TIP3   OH242891   0.317   0.210   0.330  0.7272  0.4272  0.0456
 7159TIP3    H142892   0.407   0.243   0.322  1.3501 -0.0772  3.4914
 7159TIP3    H242893   0.325   0.129   0.381 -1.5907 -0.4804 -0.8704
 7160TIP3   OH242894   2.879   6.266   5.199 -0.1616 -0.2351 -0.2438
 7160TIP3    H142895   2.952   6.238   5.144  1.1998  0.9271  0.8985
 7160TIP3    H242896   2.868   6.195   5.262 -0.5901 -0.7849 -0.9204
 7161TIP3   OH242897   3.358   2.472   0.471 -0.0128  0.5064  0.2158
 7161TIP3    H142898   3.349   2.472   0.376  0.5491  1.2544  0.1582
 7161TIP3    H242899   3.282   2.522   0.502 -1.3675 -1.4926  0.3051
 7162TIP3   OH242900   2.869   3.551  14.103  0.1201 -0.1744  0.0585
 7162TIP3    H142901   2.932   3.565  14.033 -0.0088  0.0500 -0.0113
 7162TIP3    H242902   2.817   3.476  14.074 -0.5500  0.5049 -0.5194
 7163TIP3   OH242903   0.005   2.872  11.322  0.3249  0.5618 -0.2354
 7163TIP3    H142904  -0.057   2.810  11.359  1.3636  0.5291  1.5556
 7163TIP3    H242905   0.010   2.849  11.229 -1.7470  0.0961 -0.2716
 7164TIP3   OH242906   5.794   2.638   2.297  0.1503 -0.2294 -0.1932
 7164TIP3    H142907   5.838   2.709   2.250 -1.0108  0.5827 -0.1106
 7164TIP3    H242908   5.756   2.681   2.374 -1.4447 -0.7105 -0.6592
 7165TIP3   OH242909   0.320   2.492   0.966  0.4148 -0.5261 -0.2091
 7165TIP3    H142910   0.334   2.559   1.033 -0.7613 -1.6831  1.2549
 7165TIP3    H242911   0.291   2.541   0.889  0.3781  0.7240  0.5673
 7166TIP3   OH242912   3.512   1.694   2.447 -0.3284  0.2764 -0.2613
 7166TIP3    H142913   3.477   1.620   2.397 -1.3185 -0.1072  0.9587
 7166TIP3    H242914   3.606   1.674   2.457 -1.0470 -2.5633  2.7552
 7167TIP3   OH242915   2.467   2.003  16.130  0.3672  0.0016 -0.0272
 7167TIP3    H142916   2.441   2.030  16.218 -0.0392  0.4197 -0.2712
 7167TIP3    H242917   2.535   2.065  16.105  2.1121 -1.4597  0.8540
 7168TIP3   OH242918   3.273   1.482  11.548 -0.4090 -0.6176  0.0185
 7168TIP3    H142919   3.343   1.511  11.607 -1.2426 -1.4327  1.4662
 7168TIP3    H242920   3.298   1.516  11.462  1.0266  0.3116  0.7713
 7169TIP3   OH242921   1.543   0.196  12.154  0.4338  0.3404  0.4178
 7169TIP3    H142922   1.568   0.107  12.128  1.1819 -0.0628  2.3217
 7169TIP3    H242923   1.617   0.250  12.127  0.0957  0.3529 -0.5038
 7170TIP3   OH242924   0.607   2.902   0.558 -0.3639 -0.5368 -0.5401
 7170TIP3    H142925   0.666   2.931   0.628 -0.5755  0.7757 -0.8662
 7170TIP3    H242926   0.664   2.892   0.482 -0.1568 -1.8248 -0.2286
 7171TIP3   OH242927   1.373   1.815   0.033  0.0157 -0.0970  0.1870
 7171TIP3    H142928   1.412   1.879   0.093  0.4589 -0.1087 -0.0797
 7171TIP3    H242929   1.389   1.852  -0.054  0.8345 -0.8596 -0.0045
 7172TIP3   OH242930   2.867   5.996   4.852 -0.0882 -0.1217  0.6044
 7172TIP3    H142931   2.826   5.921   4.809 -0.9316  1.6514 -1.9489
 7172TIP3    H242932   2.909   5.960   4.929  0.3992 -3.4025 -1.0263
 7173TIP3   OH242933   5.862   5.171  11.089 -0.1228  0.0673 -0.4275
 7173TIP3    H142934   5.934   5.121  11.052  0.1616 -0.0882  0.3199
 7173TIP3    H242935   5.788   5.110  11.089  0.2163 -0.3587  0.4561
 7174TIP3   OH242936   4.161   1.726   6.008 -0.0575 -0.0364  0.1860
 7174TIP3    H142937   4.130   1.716   6.098  0.9414  1.2708  0.7334
 7174TIP3    H242938   4.253   1.698   6.011  0.0435  0.2074 -0.3611
 7175TIP3   OH242939   4.292   2.911   2.967 -0.0639 -0.2704 -0.3831
 7175TIP3    H142940   4.246   2.974   3.022 -0.0788 -0.7672  0.1752
 7175TIP3    H242941   4.230   2.839   2.956  0.1311 -0.4038 -0.6279
 7176TIP3   OH242942   2.466   5.031   3.495 -0.3723  0.7244 -0.0162
 7176TIP3    H142943   2.478   5.113   3.543 -0.9441  0.5701  0.4093
 7176TIP3    H242944   2.475   4.963   3.562 -1.4945  0.5205 -0.0580
 7177TIP3   OH242945   3.571   4.301   2.317 -0.0415  0.3195  0.3181
 7177TIP3    H142946   3.663   4.292   2.292 -0.2045  1.2558 -0.6643
 7177TIP3    H242947   3.533   4.214   2.302  0.1668  0.5140 -1.4725
 7178TIP3   OH242948   3.269   2.823  16.186  0.0344 -0.2501 -0.4258
 7178TIP3    H142949   3.275   2.918  16.182  1.0700 -0.3174 -0.9134
 7178TIP3    H242950   3.318   2.799  16.264 -0.4287 -0.3748 -0.1699
 7179TIP3   OH242951   2.749   6.501   2.803 -0.0378  0.2406 -0.6476
 7179TIP3    H142952   2.704   6.461   2.729  0.5836 -0.0887 -0.8520
 7179TIP3    H242953   2.681   6.509   2.870 -0.2536 -0.9045 -0.6976
 7180TIP3   OH242954   4.916   4.445  14.547  0.1589  0.4041 -0.4015
 7180TIP3    H142955   4.902   4.353  14.570  0.7649  0.6564  1.0985
 7180TIP3    H242956   4.929   4.444  14.452 -0.7888 -0.9302 -0.5426
 7181TIP3   OH242957   5.414   5.410   3.139 -1.4107  0.0286 -1.1443
 7181TIP3    H142958   5.491   5.427   3.194 -2.8075 -0.1137  0.9512
 7181TIP3    H242959   5.450   5.374   3.058  0.7358 -0.0085 -0.2368
 7182TIP3   OH242960   5.892   3.035   5.374  0.1660  0.3216  0.4309
 7182TIP3    H142961   5.931   3.076   5.296 -0.4918 -1.9022 -1.1914
 7182TIP3    H242962   5.873   2.945   5.346 -0.6924 -0.3786  3.0052
 7183TIP3   OH242963   4.224   5.013  15.019  0.0088  0.1711 -0.3029
 7183TIP3    H142964   4.209   5.005  15.113  0.4667 -1.0366 -0.3203
 7183TIP3    H242965   4.178   4.938  14.981  0.5937  0.1370 -0.9571
 7184TIP3   OH242966   5.400   6.038  13.608 -0.0955 -0.5893  0.0438
 7184TIP3    H142967   5.403   6.131  13.633  1.6552 -1.3535  3.2040
 7184TIP3    H242968   5.320   6.006  13.648 -0.5328 -0.5300 -0.7731
 7185TIP3   OH242969   3.720   3.576   3.162 -0.2318 -0.2525  0.4633
 7185TIP3    H142970   3.647   3.636   3.148  0.3994  0.6387  0.9375
 7185TIP3    H242971   3.730   3.531   3.078 -0.2920  0.7788 -0.1138
 7186TIP3   OH242972   3.158   2.431  13.488  0.0796 -0.2363  0.2142
 7186TIP3    H142973   3.174   2.486  13.412  1.5837  0.0873  0.7300
 7186TIP3    H242974   3.228   2.365  13.485  0.3767 -0.0025  1.4943
 7187TIP3   OH242975   4.328   1.292  13.842  0.1811 -0.1635 -0.0570
 7187TIP3    H142976   4.335   1.262  13.751 -1.9925  0.4879 -0.5057
 7187TIP3    H242977   4.411   1.336  13.859  0.5710 -0.1326 -1.8050
 7188TIP3   OH242978   2.385   2.623  10.112  0.0639  0.4097 -0.4419
 7188TIP3    H142979   2.297   2.628  10.150  0.8160  0.0879  1.4550
 7188TIP3    H242980   2.393   2.533  10.081  0.0446  0.1763  0.2244
 7189TIP3   OH242981   5.961   6.187  15.954  0.5324 -0.4573 -0.7741
 7189TIP3    H142982   5.884   6.130  15.957 -0.3800  0.7705  0.7614
 7189TIP3    H242983   5.938   6.256  15.892  0.2170  0.1153 -0.0358
 7190TIP3   OH242984   5.721   5.243   1.495 -0.2679 -0.3771  0.5911
 7190TIP3    H142985   5.815   5.256   1.508 -0.3478  0.5150  0.3141
 7190TIP3    H242986   5.681   5.327   1.517 -0.9607 -0.6196  0.2984
 7191TIP3   OH242987   5.293   1.760  14.023 -0.2536 -0.3522 -0.0166
 7191TIP3    H142988   5.311   1.783  14.115  0.6925 -0.6566 -0.1123
 7191TIP3    H242989   5.252   1.673  14.028  1.0103 -0.9747  0.0711
 7192TIP3   OH242990   1.681   0.618  15.568  0.1314  0.2220  0.1396
 7192TIP3    H142991   1.666   0.544  15.627 -0.3840  0.6500  0.5467
 7192TIP3    H242992   1.773   0.641  15.581  0.8382 -1.4902 -1.3063
 7193TIP3   OH242993   3.393   3.686  13.098 -0.6425  0.4847  0.1674
 7193TIP3    H142994   3.399   3.598  13.061  0.8008  0.4245  0.4815
 7193TIP3    H242995   3.464   3.734  13.056 -1.9460  1.7728 -0.6521
 7194TIP3   OH242996   5.944   0.531  14.130 -0.1071  0.0683 -0.1852
 7194TIP3    H142997   6.006   0.568  14.193  1.1955  0.7790 -1.8210
 7194TIP3    H242998   5.975   0.442  14.116 -0.5148 -0.1566  0.2872
 7195TIP3   OH242999   3.433   3.834   1.953 -0.3166 -0.1246 -0.3576
 7195TIP3    H143000   3.419   3.781   1.874  0.6648  1.3754 -1.5999
 7195TIP3    H243001   3.505   3.790   1.999 -0.2666 -0.4969 -0.7871
 7196TIP3   OH243002   3.084   1.121  14.817  0.3513 -0.5748 -0.1251
 7196TIP3    H143003   3.157   1.086  14.767  0.0007  1.6791 -2.3906
 7196TIP3    H243004   3.112   1.209  14.843 -0.7185 -0.5079  0.9056
 7197TIP3   OH243005   5.567   4.512  16.212 -0.3144 -0.1266  0.1309
 7197TIP3    H143006   5.602   4.432  16.250  0.2181  0.6729  1.3810
 7197TIP3    H243007   5.536   4.563  16.287  0.3223  1.2950 -0.5324
 7198TIP3   OH243008   4.262   5.561   2.179  0.4245  0.1729 -0.1554
 7198TIP3    H143009   4.282   5.548   2.272 -2.4130 -1.2110  0.3695
 7198TIP3    H243010   4.303   5.486   2.135  1.7089  0.7909 -0.0524
 7199TIP3   OH243011   5.829   5.837   1.159  0.2391 -0.0032 -0.3329
 7199TIP3    H143012   5.786   5.807   1.238 -0.7618  1.2171 -0.3852
 7199TIP3    H243013   5.780   5.915   1.133  1.3518  0.3634 -1.4277
 7200TIP3   OH243014   2.785   6.459  13.243  0.5596  0.3564 -0.5609
 7200TIP3    H143015   2.724   6.399  13.199  1.6439 -1.3418  0.1471
 7200TIP3    H243016   2.730   6.508  13.304 -0.7322  1.7454 -2.7033
 7201TIP3   OH243017   0.503   2.771  11.804  0.0509 -0.9648  0.6051
 7201TIP3    H143018   0.515   2.711  11.878  0.6370 -1.2141  0.3085
 7201TIP3    H243019   0.563   2.739  11.737  1.0047  0.4579  0.7425
 7202TIP3   OH243020   4.872   2.890   5.784 -0.1342 -0.2252  0.0993
 7202TIP3    H143021   4.802   2.911   5.846  0.1952 -0.1266  0.4365
 7202TIP3    H243022   4.832   2.903   5.698 -0.7769 -0.9397  0.2766
 7203TIP3   OH243023   1.977   0.152  11.830  0.0231 -0.2502 -0.2473
 7203TIP3    H143024   2.004   0.070  11.789  1.3868 -0.0468  0.2023
 7203TIP3    H243025   2.007   0.220  11.770 -0.5064 -0.0432 -0.2877
 7204TIP3   OH243026   3.059   3.782   5.498 -0.7878  0.2994  0.3972
 7204TIP3    H143027   3.046   3.687   5.499 -0.8523  0.3121  1.1186
 7204TIP3    H243028   3.136   3.796   5.553  0.5050  0.4895 -1.3888
 7205TIP3   OH243029   4.325   2.784   1.159 -0.2158 -0.0379 -0.0990
 7205TIP3    H143030   4.334   2.862   1.214 -2.5234  1.1781 -1.2813
 7205TIP3    H243031   4.329   2.818   1.069  1.7577 -1.7449 -0.7185
 7206TIP3   OH243032   1.758   6.338   5.525  0.2702  0.3238 -0.1550
 7206TIP3    H143033   1.779   6.403   5.592 -0.1719  0.4271 -0.1076
 7206TIP3    H243034   1.827   6.347   5.460  2.9556 -2.4133  2.0566
 7207TIP3   OH243035   6.328   4.198   6.587 -0.0790  0.4685  0.0689
 7207TIP3    H143036   6.412   4.175   6.548 -0.5535 -2.7095  0.6544
 7207TIP3    H243037   6.350   4.242   6.668  1.0536 -0.2074  0.1477
 7208TIP3   OH243038   1.854   6.250  16.787  0.1833 -1.1021  0.8126
 7208TIP3    H143039   1.789   6.272  16.720  0.1572  0.0154  1.1960
 7208TIP3    H243040   1.802   6.236  16.866  0.2329 -2.2450  0.6636
 7209TIP3   OH243041   4.787   5.972  12.065  0.1671 -0.6099 -0.4991
 7209TIP3    H143042   4.822   5.976  11.976  0.8275  1.6957 -0.1870
 7209TIP3    H243043   4.694   5.992  12.054 -0.0540 -1.7093 -0.7837
 7210TIP3   OH243044   3.975   3.927  10.943 -0.0252 -0.3129  0.4597
 7210TIP3    H143045   3.882   3.908  10.931  0.0929 -2.6982  2.5785
 7210TIP3    H243046   3.979   4.022  10.947 -2.0347 -0.0363 -1.7840
 7211TIP3   OH243047   6.030   1.005   4.078 -0.4340  0.3909  0.0287
 7211TIP3    H143048   5.968   0.972   4.013  0.2821 -0.4682 -0.2331
 7211TIP3    H243049   5.977   1.023   4.155 -1.0492 -0.0842 -0.2790
 7212TIP3   OH243050   3.645   3.636  11.800  0.1814 -0.1214  0.1532
 7212TIP3    H143051   3.687   3.721  11.815 -1.7311  1.1466 -1.2248
 7212TIP3    H243052   3.692   3.599  11.725 -1.4047  1.5885 -1.8088
 7213TIP3   OH243053   2.962   3.906   3.916 -0.0974  0.1764 -0.2873
 7213TIP3    H143054   2.878   3.915   3.962 -0.4470 -1.6932 -0.4738
 7213TIP3    H243055   3.004   3.991   3.926 -0.4137  0.0770  2.9684
 7214TIP3   OH243056   0.775   2.928   0.025 -0.2618 -0.1321  0.5422
 7214TIP3    H143057   0.858   2.960  -0.011 -0.2597 -1.0606 -0.3018
 7214TIP3    H243058   0.786   2.938   0.120 -0.1764  2.1060  0.3654
 7215TIP3   OH243059   4.278   2.579  14.407 -0.0103  0.3415 -0.3425
 7215TIP3    H143060   4.333   2.502  14.394 -1.6340 -0.8872 -0.2590
 7215TIP3    H243061   4.214   2.576  14.336 -2.3578 -0.4880  1.6636
 7216TIP3   OH243062   0.130   4.974  13.600  0.1096 -0.2783 -0.3994
 7216TIP3    H143063   0.044   4.992  13.639 -0.5509 -2.2106 -0.8459
 7216TIP3    H243064   0.186   5.044  13.632 -1.3778  0.4329  0.7771
 7217TIP3   OH243065   4.773   3.573  12.209 -0.1696  0.0338 -0.4483
 7217TIP3    H143066   4.710   3.521  12.260 -2.5570  1.7510 -1.4344
 7217TIP3    H243067   4.805   3.513  12.141 -0.7244 -0.9058  0.1020
 7218TIP3   OH243068   4.014   2.382  12.910 -0.1082 -0.0818 -0.1833
 7218TIP3    H143069   3.958   2.353  12.838  0.8470 -1.4435 -0.4205
 7218TIP3    H243070   4.096   2.335  12.897  1.0440  1.7152  0.2629
 7219TIP3   OH243071   1.308   3.554   1.047 -0.0380  0.4570 -0.1446
 7219TIP3    H143072   1.296   3.527   0.956 -1.1949  0.6538 -0.0709
 7219TIP3    H243073   1.400   3.580   1.053 -0.4641  2.5964 -1.8608
 7220TIP3   OH243074   3.793   2.488   3.604 -0.3248  0.0800  0.5549
 7220TIP3    H143075   3.853   2.547   3.649  0.1566  1.0272 -1.2508
 7220TIP3    H243076   3.794   2.517   3.513 -0.9192 -2.0269 -0.1827
 7221TIP3   OH243077   1.026   3.700   2.016 -0.1157  0.2243 -0.2208
 7221TIP3    H143078   0.996   3.611   1.995  0.8167 -0.2162  0.2346
 7221TIP3    H243079   0.966   3.730   2.084 -0.1017 -0.2875  0.0263
 7222TIP3   OH243080   2.995   1.889  14.233 -0.9349 -0.4622  0.0285
 7222TIP3    H143081   2.912   1.872  14.277 -1.3241  1.7641  0.2982
 7222TIP3    H243082   3.011   1.982  14.249  0.6024 -0.3729 -1.7488
 7223TIP3   OH243083   3.685   4.357  15.187 -0.3933  0.2463  0.1635
 7223TIP3    H143084   3.731   4.347  15.103  0.1274  1.3181  0.3054
 7223TIP3    H243085   3.702   4.275  15.233 -1.1653 -0.6055 -0.9847
 7224TIP3   OH243086   5.219   1.166   5.467 -0.2885  0.5688  0.0704
 7224TIP3    H143087   5.192   1.194   5.379  0.6683  1.8424  0.1519
 7224TIP3    H243088   5.222   1.247   5.518 -0.2460 -0.0761  1.1195
 7225TIP3   OH243089   3.751   1.584   6.088  0.2041  0.2066  0.9984
 7225TIP3    H143090   3.657   1.576   6.074  0.4583 -1.1494 -0.1643
 7225TIP3    H243091   3.770   1.526   6.162  0.2292 -0.1236  0.7349
 7226TIP3   OH243092   2.710   6.031   1.472  0.6239  0.2139 -0.6234
 7226TIP3    H143093   2.700   6.015   1.379  0.2612 -2.4468 -0.2008
 7226TIP3    H243094   2.620   6.032   1.506  0.7734 -3.2990  0.2428
 7227TIP3   OH243095   4.816   4.611  17.259 -0.0246  0.2839 -0.7349
 7227TIP3    H143096   4.763   4.569  17.191 -2.3544  0.1876  1.0101
 7227TIP3    H243097   4.826   4.701  17.229 -3.2997  0.9851 -0.1196
 7228TIP3   OH243098   6.743   0.742   3.562  0.4582 -0.7711  0.8018
 7228TIP3    H143099   6.667   0.686   3.580  0.6989 -2.4599 -2.7078
 7228TIP3    H243100   6.705   0.827   3.539 -0.2462 -1.0252  0.9940
 7229TIP3   OH243101   0.333   6.351  13.495  0.2406  0.1652 -0.0956
 7229TIP3    H143102   0.387   6.423  13.529 -0.0159  0.0986  0.4566
 7229TIP3    H243103   0.243   6.384  13.498  0.0267 -0.4728  0.9535
 7230TIP3   OH243104   4.348   6.050   1.784 -0.2812  0.2307  0.4179
 7230TIP3    H143105   4.351   5.995   1.862  2.1861  0.5751  0.6242
 7230TIP3    H243106   4.289   6.122   1.807  0.5408  0.4199  2.0492
 7231TIP3   OH243107   6.580   6.676  13.330 -0.8086 -0.2024 -0.2782
 7231TIP3    H143108   6.646   6.612  13.303 -0.6503 -0.1894  0.0865
 7231TIP3    H243109   6.503   6.622  13.352 -1.2800 -0.1638 -1.7003
 7232TIP3   OH243110   6.199   5.932  13.955  0.4176  0.1495  0.5801
 7232TIP3    H143111   6.176   5.854  14.005 -0.9349 -0.0477 -0.2918
 7232TIP3    H243112   6.163   6.005  14.006 -0.6002 -0.0189  0.1215
 7233TIP3   OH243113   4.706   2.020   2.529 -0.3946 -0.3315 -0.4291
 7233TIP3    H143114   4.703   2.078   2.605  2.5688  0.0010 -0.4357
 7233TIP3    H243115   4.696   1.932   2.566 -1.3439 -0.0458  0.0193
 7234TIP3   OH243116   5.170   1.406  16.578  0.2204  0.3918  0.3531
 7234TIP3    H143117   5.091   1.457  16.563  0.3772  0.4318 -0.3571
 7234TIP3    H243118   5.140   1.315  16.586 -0.1740  0.6613  2.5981
 7235TIP3   OH243119   3.809   1.070   4.963 -0.0378 -0.3965  0.6127
 7235TIP3    H143120   3.879   1.018   4.925 -1.3374 -0.0802 -2.5149
 7235TIP3    H243121   3.824   1.159   4.930 -1.6594 -0.2485  0.1647
 7236TIP3   OH243122   5.163   1.527  13.764  0.0602 -0.2485  0.8921
 7236TIP3    H143123   5.195   1.545  13.853 -0.6268 -1.1393  1.3339
 7236TIP3    H243124   5.083   1.580  13.757  0.1347 -0.1495  0.7871
 7237TIP3   OH243125   2.779   3.012  14.335  0.0399  0.1537 -0.3935
 7237TIP3    H143126   2.865   2.974  14.354  0.3969  1.9428  2.0087
 7237TIP3    H243127   2.723   2.937  14.320  1.3823 -1.2106  1.0125
 7238TIP3   OH243128   3.896   1.470   6.638  0.3579  0.1588  0.2783
 7238TIP3    H143129   3.849   1.489   6.557 -0.3451  0.2903  0.7123
 7238TIP3    H243130   3.884   1.548   6.692  1.3992  0.3531  0.2555
 7239TIP3   OH243131   6.346   2.231   5.092 -0.6785 -0.1626  0.0702
 7239TIP3    H143132   6.354   2.143   5.130 -1.9059 -0.0383  0.6782
 7239TIP3    H243133   6.391   2.288   5.153  2.0678 -0.5723 -1.4130
 7240TIP3   OH243134   3.269   3.712  14.252  0.4250 -0.2608  0.7840
 7240TIP3    H143135   3.268   3.807  14.267  1.5588 -0.3144  1.2889
 7240TIP3    H243136   3.177   3.689  14.238  0.1171  0.8837  0.8456
 7241TIP3   OH243137   3.035   4.519   4.623  0.0331  0.2707 -0.5835
 7241TIP3    H143138   2.968   4.451   4.629 -1.1568  1.3760 -0.8572
 7241TIP3    H243139   3.044   4.551   4.713  0.6293 -0.2737 -0.4462
 7242TIP3   OH243140   5.356   5.431  16.302  1.0097  0.1785 -0.4613
 7242TIP3    H143141   5.326   5.351  16.346  0.6915  1.3354  1.5607
 7242TIP3    H243142   5.414   5.473  16.365 -1.9211  3.5042  0.3358
 7243TIP3   OH243143   1.455   4.726   2.861  0.1575 -0.3279 -0.0942
 7243TIP3    H143144   1.443   4.631   2.860  0.9944 -0.4447  0.0642
 7243TIP3    H243145   1.388   4.760   2.802  1.1520 -1.1817 -1.7777
 7244TIP3   OH243146   1.454   5.146   2.569 -0.1477  0.2013  0.1156
 7244TIP3    H143147   1.362   5.118   2.566 -0.0289 -0.4345  1.4747
 7244TIP3    H243148   1.463   5.189   2.654  0.9573 -0.3491  0.2994
 7245TIP3   OH243149   4.360   6.734   5.242  0.1313  0.1327  0.3292
 7245TIP3    H143150   4.265   6.738   5.249  0.1883  0.6754  0.8348
 7245TIP3    H243151   4.390   6.709   5.329  0.4216 -0.6176  0.0198
 7246TIP3   OH243152   2.705   0.092  13.245 -0.1890  0.5327  0.3392
 7246TIP3    H143153   2.772   0.029  13.271 -1.0477 -0.4874  0.1500
 7246TIP3    H243154   2.622   0.052  13.271 -0.7651  1.5866  0.2126
 7247TIP3   OH243155   1.418   6.176   3.614 -0.1178  0.2111  0.0446
 7247TIP3    H143156   1.424   6.256   3.666  1.8787  0.3559 -0.3448
 7247TIP3    H243157   1.439   6.204   3.525 -1.0566 -0.4765 -0.4081
 7248TIP3   OH243158   1.046   0.063  14.971 -0.1740  0.0502 -0.4289
 7248TIP3    H143159   1.056   0.148  14.929 -0.1056 -1.0788 -2.9006
 7248TIP3    H243160   0.951   0.052  14.981 -0.1288  1.0636  1.4446
 7249TIP3   OH243161   1.213   0.665   5.686  0.5212 -0.2774 -0.1017
 7249TIP3    H143162   1.182   0.616   5.762 -0.5023 -0.4461 -0.6088
 7249TIP3    H243163   1.222   0.599   5.617 -1.3866  0.2856 -0.9441
 7250TIP3   OH243164   3.931   1.111  11.998 -0.2103 -0.0561  0.1115
 7250TIP3    H143165   3.933   1.029  12.048  0.7048  0.1092  0.3613
 7250TIP3    H243166   3.947   1.179  12.063  1.1461  0.1495 -0.4149
 7251TIP3   OH243167   1.177   1.644   2.314 -0.4704  0.0554  0.0566
 7251TIP3    H143168   1.108   1.584   2.342  0.6994 -1.1246  0.5021
 7251TIP3    H243169   1.173   1.716   2.376 -0.7381 -0.4263  0.6053
 7252TIP3   OH243170   3.370   2.024  10.510  0.1435  0.4967 -0.0039
 7252TIP3    H143171   3.443   1.965  10.529  0.2774  0.3759 -0.8625
 7252TIP3    H243172   3.410   2.098  10.465 -0.3791 -0.0757 -1.4891
 7253TIP3   OH243173   4.309   1.493   4.580 -0.2001 -0.2234 -0.0740
 7253TIP3    H143174   4.281   1.460   4.665  0.9125 -2.3740 -0.4494
 7253TIP3    H243175   4.248   1.563   4.559 -1.8376 -1.1025  1.5098
 7254TIP3   OH243176   0.015   1.147  12.481 -0.4226  0.6636 -0.0610
 7254TIP3    H143177   0.090   1.117  12.533 -0.0034  0.2641 -0.8892
 7254TIP3    H243178  -0.058   1.092  12.511 -0.3432  0.9047  0.5905
 7255TIP3   OH243179   4.105   5.168   2.429 -0.1872 -0.5472 -0.4554
 7255TIP3    H143180   4.139   5.175   2.340 -0.3970 -1.3021 -0.6054
 7255TIP3    H243181   4.060   5.084   2.431 -0.7753 -0.2280  0.1723
 7256TIP3   OH243182   6.350   4.895  13.039 -0.2510 -0.1049  0.2112
 7256TIP3    H143183   6.435   4.873  13.001 -0.7492 -0.4299 -0.7557
 7256TIP3    H243184   6.368   4.966  13.100  0.7748 -0.4556  0.3273
 7257TIP3   OH243185   2.208   1.543   4.655 -0.1545  0.2043  0.0613
 7257TIP3    H143186   2.216   1.464   4.601 -1.4691 -0.5500  0.9349
 7257TIP3    H243187   2.269   1.605   4.615  0.0908 -0.8748 -1.3131
 7258TIP3   OH243188   1.666   2.652   5.361  0.1821  0.7243 -0.4292
 7258TIP3    H143189   1.696   2.638   5.451  1.0614  1.5093 -0.5914
 7258TIP3    H243190   1.703   2.737   5.336 -1.2509  1.1840 -1.0426
 7259TIP3   OH243191   5.865   1.908   2.229 -0.2380  0.0942  0.0703
 7259TIP3    H143192   5.836   1.952   2.149 -1.8039  1.0276  1.0987
 7259TIP3    H243193   5.886   1.980   2.289 -1.1217 -0.5612  1.1883
 7260TIP3   OH243194   4.333   2.774  15.365 -0.1131 -0.1439  0.1665
 7260TIP3    H143195   4.307   2.807  15.279 -3.0847 -0.3416  0.8985
 7260TIP3    H243196   4.359   2.683  15.349 -0.8539 -0.2474 -0.4941
 7261TIP3   OH243197   5.347   1.011   5.066 -0.1050 -0.2835  0.0470
 7261TIP3    H143198   5.322   0.920   5.083 -0.5362  0.0199  1.0923
 7261TIP3    H243199   5.346   1.053   5.152  1.3944  0.3958 -0.2387
 7262TIP3   OH243200   5.461   2.702   5.871 -0.4820  0.4957  0.4484
 7262TIP3    H143201   5.514   2.761   5.924  0.3767 -0.6093  0.8687
 7262TIP3    H243202   5.430   2.636   5.934 -1.9134  0.8170  0.1065
 7263TIP3   OH243203   2.440   5.249   5.688 -0.1186  0.2292 -0.9240
 7263TIP3    H143204   2.365   5.275   5.634 -0.1823 -0.9703 -1.4584
 7263TIP3    H243205   2.404   5.183   5.748  0.2897  0.4095 -0.4758
 7264TIP3   OH243206   1.475   3.254   2.340  0.1202  0.2873  0.1210
 7264TIP3    H143207   1.523   3.327   2.301 -0.8169  1.8858  1.8252
 7264TIP3    H243208   1.543   3.192   2.366  1.0021  0.9381 -0.5857
 7265TIP3   OH243209   6.023   5.074   1.741 -0.4647  0.1317 -0.4076
 7265TIP3    H143210   6.000   5.030   1.824 -2.6664  1.8796  0.0170
 7265TIP3    H243211   5.956   5.044   1.679 -0.6274  1.0955 -0.7146
 7266TIP3   OH243212   0.656   0.726  17.202 -0.3613  0.0668  0.2163
 7266TIP3    H143213   0.724   0.696  17.142  0.1253 -0.5784  1.0707
 7266TIP3    H243214   0.621   0.645  17.240  0.2800  0.5262  1.8273
 7267TIP3   OH243215   3.870   1.742   5.017 -0.1057  0.0673  0.0039
 7267TIP3    H143216   3.857   1.647   5.021 -2.2359  0.2280 -1.4239
 7267TIP3    H243217   3.849   1.764   4.926  0.0254  1.9546  0.4095
 7268TIP3   OH243218   4.902   4.122  13.465 -0.6421 -0.4531 -0.0638
 7268TIP3    H143219   4.960   4.125  13.389  0.0654 -1.6025  0.4033
 7268TIP3    H243220   4.887   4.028  13.481 -2.2964 -0.1914  0.0857
 7269TIP3   OH243221   1.143   1.427  13.459  0.2561 -0.2589 -0.0254
 7269TIP3    H143222   1.049   1.437  13.440  0.2262 -0.4053  0.0485
 7269TIP3    H243223   1.157   1.479  13.538  0.3788  0.3445 -0.4382
 7270TIP3   OH243224   3.166   2.640  15.046 -0.3407 -0.1861 -0.3693
 7270TIP3    H143225   3.212   2.713  15.088 -0.8569 -0.4871  0.7523
 7270TIP3    H243226   3.114   2.601  15.116  0.0805 -1.7727 -0.8990
 7271TIP3   OH243227   0.598   2.725  12.476 -0.2702  0.0481  0.0163
 7271TIP3    H143228   0.562   2.810  12.503  1.9140  0.3084  2.5776
 7271TIP3    H243229   0.682   2.746  12.434  0.4003 -0.8036  0.8787
 7272TIP3   OH243230   0.659   3.793  14.087 -0.2040  0.3651  0.0385
 7272TIP3    H143231   0.699   3.803  14.174  0.2442 -2.2550  0.2046
 7272TIP3    H243232   0.731   3.810  14.026 -0.6421  2.7304  0.0968
 7273TIP3   OH243233   0.410   0.369  14.563  0.5740  0.2964 -0.4878
 7273TIP3    H143234   0.496   0.334  14.586  0.1705  0.1991  1.0177
 7273TIP3    H243235   0.426   0.428  14.489  1.8104 -0.2881 -0.6996
 7274TIP3   OH243236   2.519   4.907   2.914  0.2543  0.1114 -0.0557
 7274TIP3    H143237   2.424   4.895   2.914  0.3114 -0.8476 -2.3461
 7274TIP3    H243238   2.531   5.002   2.914 -0.5808  0.3153  2.9667
 7275TIP3   OH243239   4.454   0.979   4.284  0.0946  0.2204 -0.0859
 7275TIP3    H143240   4.403   1.019   4.354  0.4531  1.2242 -0.3864
 7275TIP3    H243241   4.543   0.977   4.317  0.1200 -0.1086 -0.1721
 7276TIP3   OH243242   0.729   6.356   0.739 -0.3704 -0.1647 -0.1743
 7276TIP3    H143243   0.810   6.335   0.692 -1.3436 -0.0332 -2.0090
 7276TIP3    H243244   0.757   6.374   0.828  1.9750  2.1819 -1.2445
 7277TIP3   OH243245   2.689   2.783  15.529 -0.0385  0.2510 -0.5220
 7277TIP3    H143246   2.607   2.825  15.503  0.0202  0.8650  0.2309
 7277TIP3    H243247   2.662   2.704  15.576 -0.1446 -0.9380 -2.4386
 7278TIP3   OH243248   5.738   5.216  11.436 -0.7313  0.4426  0.1900
 7278TIP3    H143249   5.673   5.158  11.476 -0.0667  0.3468  1.1929
 7278TIP3    H243250   5.697   5.248  11.357 -0.8346 -2.0054 -0.8337
 7279TIP3   OH243251   4.945   4.324   5.558 -0.2347  0.1670 -0.8051
 7279TIP3    H143252   4.865   4.344   5.607 -0.6591 -2.4885 -0.2570
 7279TIP3    H243253   4.922   4.248   5.504  1.9666 -0.8762 -0.4002
 7280TIP3   OH243254   4.902   5.689   0.670 -0.3419  0.1138 -0.0699
 7280TIP3    H143255   4.992   5.660   0.654 -0.3800  1.6306 -4.1618
 7280TIP3    H243256   4.848   5.616   0.640 -0.4022  0.8205 -1.7952
 7281TIP3   OH243257   6.610   1.924  12.968  0.4441 -0.3598  0.1655
 7281TIP3    H143258   6.653   1.849  13.010  1.6441 -0.1125 -0.5999
 7281TIP3    H243259   6.675   1.993  12.968  0.4704 -0.3089 -1.9947
 7282TIP3   OH243260   5.641   2.176   0.940  0.3981 -0.1290  0.0620
 7282TIP3    H143261   5.693   2.249   0.906 -0.9969  1.0659  0.3900
 7282TIP3    H243262   5.621   2.201   1.030  0.6160 -1.3410  0.4580
 7283TIP3   OH243263   2.255   2.599  13.991  0.6139  0.1329  0.0011
 7283TIP3    H143264   2.169   2.572  14.025  0.6504  1.2199  1.0197
 7283TIP3    H243265   2.278   2.531  13.927 -0.9974 -0.1863 -0.2868
 7284TIP3   OH243266   0.157   2.403  14.484  0.6981  0.2376 -0.4403
 7284TIP3    H143267   0.148   2.308  14.471  1.7327  0.0825 -0.1184
 7284TIP3    H243268   0.246   2.423  14.456  0.1515  1.3040 -1.4832
 7285TIP3   OH243269   5.679   5.973   4.225  0.0999 -0.1828 -0.2006
 7285TIP3    H143270   5.632   5.999   4.304 -0.8113  0.7178 -1.0086
 7285TIP3    H243271   5.668   5.879   4.220 -0.2999 -0.1752  0.4505
 7286TIP3   OH243272   1.497   1.412   5.552  0.0785 -0.1194 -0.0831
 7286TIP3    H143273   1.463   1.325   5.574  0.4687 -0.3710 -0.4666
 7286TIP3    H243274   1.582   1.395   5.512  0.5249  0.4874  0.5884
 7287TIP3   OH243275   6.179   1.849   4.992  0.0488  0.0713 -0.3339
 7287TIP3    H143276   6.241   1.780   5.016 -1.1430 -0.7135  0.6309
 7287TIP3    H243277   6.120   1.855   5.067 -0.0979  1.9048 -0.5595
 7288TIP3   OH243278   1.643   3.022   5.264  0.0835  0.2763 -0.4215
 7288TIP3    H143279   1.716   2.986   5.214  1.7193  2.3241  0.3502
 7288TIP3    H243280   1.565   2.983   5.224  1.5182 -1.2128 -1.9294
 7289TIP3   OH243281   3.578   3.385   3.480  0.1253 -0.4357 -0.4799
 7289TIP3    H143282   3.667   3.417   3.467 -0.2768  0.0492 -2.3662
 7289TIP3    H243283   3.584   3.290   3.467  0.3914 -0.4215 -0.4533
 7290TIP3   OH243284   1.013   6.713   0.433 -0.1313 -0.3758 -0.8901
 7290TIP3    H143285   0.943   6.684   0.491  0.3343 -2.6385 -1.3797
 7290TIP3    H243286   0.991   6.675   0.348  1.2742 -0.4687 -1.2348
 7291TIP3   OH243287   5.369   3.798   3.458  0.2459 -0.3136 -0.3356
 7291TIP3    H143288   5.312   3.777   3.384  1.0560 -2.5550 -0.3998
 7291TIP3    H243289   5.457   3.781   3.426  1.0578  2.8583 -0.1643
 7292TIP3   OH243290   5.804   3.438  13.375 -0.1470  0.4552  0.2399
 7292TIP3    H143291   5.834   3.348  13.382  0.1701  0.5232 -0.2740
 7292TIP3    H243292   5.712   3.435  13.403 -0.3028 -0.1181 -0.3315
 7293TIP3   OH243293   3.759   6.414  14.916 -0.1428  0.5925 -0.3753
 7293TIP3    H143294   3.779   6.487  14.976 -0.7123  0.1498  0.3718
 7293TIP3    H243295   3.751   6.456  14.830  2.6641  0.9720 -0.5304
 7294TIP3   OH243296   4.524   5.949   3.043 -0.6893 -0.1147  0.6746
 7294TIP3    H143297   4.432   5.930   3.065 -1.0640  1.7130  0.8118
 7294TIP3    H243298   4.519   6.007   2.967  0.4400 -1.3032 -0.3558
 7295TIP3   OH243299   5.133   5.291   2.529  0.0909 -0.9037 -0.3079
 7295TIP3    H143300   5.063   5.238   2.565 -0.7837  1.6090  2.0306
 7295TIP3    H243301   5.207   5.231   2.519 -1.2160 -2.7975  0.8835
 7296TIP3   OH243302   3.201   4.116   5.639  0.0356 -0.3084  0.0193
 7296TIP3    H143303   3.139   4.125   5.568 -0.2773 -0.0792  0.3169
 7296TIP3    H243304   3.278   4.075   5.600 -1.1808 -2.8623  0.1220
 7297TIP3   OH243305   1.456   5.008  11.998 -0.8014  0.5586 -0.5111
 7297TIP3    H143306   1.504   5.063  11.936 -0.3758 -1.5021 -2.0977
 7297TIP3    H243307   1.447   5.063  12.076  2.2017  1.8238 -0.9186
 7298TIP3   OH243308   1.327   0.038  15.573 -0.3635 -0.0974 -0.1338
 7298TIP3    H143309   1.386  -0.037  15.573 -0.2984 -0.1412  2.2647
 7298TIP3    H243310   1.383   0.113  15.594 -1.0854 -0.1562  2.2920
 7299TIP3   OH243311   4.307   2.880   0.904 -0.6227  0.0597 -0.1902
 7299TIP3    H143312   4.245   2.814   0.873  0.6509 -0.3919 -1.9019
 7299TIP3    H243313   4.339   2.922   0.824  1.0011  0.5132  0.6575
 7300TIP3   OH243314   6.599   0.235   3.561 -0.2216 -0.4610  0.2764
 7300TIP3    H143315   6.590   0.234   3.656  0.0387  0.1121  0.3158
 7300TIP3    H243316   6.521   0.191   3.529  0.0956 -1.4206  0.7751
 7301TIP3   OH243317   0.604   3.082  14.436 -0.1682  0.7161 -0.3310
 7301TIP3    H143318   0.609   3.155  14.374 -0.6211  1.9677  1.0309
 7301TIP3    H243319   0.692   3.045  14.438 -0.4652 -0.2643 -2.7242
 7302TIP3   OH243320   1.757   2.574  14.393  0.6499  0.3534 -0.3601
 7302TIP3    H143321   1.831   2.513  14.392  0.3692 -0.0596  1.2806
 7302TIP3    H243322   1.697   2.540  14.326  0.3780 -1.3508  0.6966
 7303TIP3   OH243323   0.643   0.239  14.378 -0.0879 -0.2868 -0.2746
 7303TIP3    H143324   0.677   0.269  14.462  1.2790 -0.8167 -0.6275
 7303TIP3    H243325   0.709   0.265  14.314  0.6818 -3.0619 -0.7259
 7304TIP3   OH243326   0.968   6.375   1.397  0.1709  0.0692  0.1387
 7304TIP3    H143327   0.883   6.345   1.363  0.5987 -0.0066 -0.8827
 7304TIP3    H243328   0.964   6.355   1.491 -0.9312  0.0409  0.1003
 7305TIP3   OH243329   1.160   2.860  11.912 -0.2960 -0.1665 -0.4728
 7305TIP3    H143330   1.192   2.779  11.871 -0.6218 -0.6103  0.1306
 7305TIP3    H243331   1.238   2.911  11.930 -0.0480 -0.5494 -0.4472
 7306TIP3   OH243332   4.549   1.804   5.497 -0.1372 -0.1525 -0.3680
 7306TIP3    H143333   4.484   1.815   5.567  1.8245  2.0450  1.2504
 7306TIP3    H243334   4.556   1.709   5.486 -2.8648 -0.4814  0.0654
 7307TIP3   OH243335   1.295   4.909  13.069 -0.8704  0.1460  0.2485
 7307TIP3    H143336   1.374   4.949  13.105 -1.1512  0.7021  0.2592
 7307TIP3    H243337   1.307   4.815  13.083 -0.5905  0.2904  1.0102
 7308TIP3   OH243338   6.008   4.421   4.020 -0.5287 -0.1906  0.2743
 7308TIP3    H143339   5.950   4.442   3.948  1.1650 -0.8494 -1.3815
 7308TIP3    H243340   6.001   4.326   4.030  1.6031 -0.6074 -1.3095
 7309TIP3   OH243341   6.322   4.504   3.350 -0.3964  0.3755 -0.1689
 7309TIP3    H143342   6.299   4.430   3.295 -0.0468 -0.2681  0.5443
 7309TIP3    H243343   6.392   4.549   3.302  0.2933 -0.4960 -0.0064
 7310TIP3   OH243344   3.204   1.305   0.667  0.4892 -0.0968 -0.6315
 7310TIP3    H143345   3.251   1.237   0.716 -0.7019  0.5861  1.6123
 7310TIP3    H243346   3.247   1.386   0.694  0.1512  0.2662 -1.1749
 7311TIP3   OH243347   5.153   3.567   2.011  0.1622 -0.3798 -0.1162
 7311TIP3    H143348   5.191   3.610   1.935  1.5299  3.2663  2.3973
 7311TIP3    H243349   5.060   3.590   2.009  0.2224 -0.1888 -0.5940
 7312TIP3   OH243350   3.802   4.329   3.313 -0.6540 -0.3355  0.0459
 7312TIP3    H143351   3.768   4.316   3.225 -0.8509 -1.0225  0.2153
 7312TIP3    H243352   3.749   4.270   3.368 -0.3355 -0.1356  0.5755
 7313TIP3   OH243353   1.991   3.333   4.897 -0.1162 -0.4374  0.2224
 7313TIP3    H143354   2.063   3.295   4.947 -0.5297 -0.3154  0.9190
 7313TIP3    H243355   1.947   3.257   4.858  0.8459 -0.4680 -0.8654
 7314TIP3   OH243356   4.013   6.736  14.620 -0.2114  0.0738 -0.0722
 7314TIP3    H143357   3.985   6.804  14.680 -0.1015 -1.8876  2.3750
 7314TIP3    H243358   4.029   6.660  14.676  1.0854 -1.5474 -2.4692
 7315TIP3   OH243359   4.503   3.537  16.368  0.3646  0.2438  0.0049
 7315TIP3    H143360   4.522   3.535  16.274  0.4001 -1.0270  0.0201
 7315TIP3    H243361   4.411   3.563  16.373 -0.3290 -1.8282 -0.5493
 7316TIP3   OH243362   0.830   0.136  12.435  0.4822  0.1542 -0.2186
 7316TIP3    H143363   0.745   0.153  12.476  1.6134  2.8298  1.3126
 7316TIP3    H243364   0.821   0.172  12.347 -0.6338 -1.6623 -0.8783
 7317TIP3   OH243365   0.502   0.091   1.318  0.1861  0.4182  0.1461
 7317TIP3    H143366   0.505   0.025   1.387 -0.1557 -1.3746 -1.4615
 7317TIP3    H243367   0.420   0.139   1.334  0.8026  0.9823  1.7613
 7318TIP3   OH243368   1.408   2.296   1.459 -0.2193  0.2232 -0.0902
 7318TIP3    H143369   1.346   2.271   1.391  0.7265  0.1306 -0.9363
 7318TIP3    H243370   1.395   2.231   1.528  0.7023 -1.3490 -1.3371
 7319TIP3   OH243371   3.943   4.923  15.462  0.2383 -0.1200 -0.5906
 7319TIP3    H143372   3.929   4.955  15.373 -0.8977 -1.7895 -1.0738
 7319TIP3    H243373   4.028   4.957  15.487  0.1656  1.1568 -1.9629
 7320TIP3   OH243374   1.124   3.971  15.886  0.1449 -0.0071 -0.1856
 7320TIP3    H143375   1.131   4.066  15.872  0.0218 -0.1407 -1.2221
 7320TIP3    H243376   1.198   3.934  15.837  0.0552 -0.4622  0.0198
 7321TIP3   OH243377   6.775   5.629   3.952 -0.1499 -0.0082  0.0926
 7321TIP3    H143378   6.732   5.562   4.006 -0.3678  0.4355  0.4754
 7321TIP3    H243379   6.704   5.688   3.926  0.1003  0.2791  0.0587
 7322TIP3   OH243380   0.010   6.233  16.170 -0.0550  0.5982 -0.1611
 7322TIP3    H143381   0.035   6.303  16.230  0.2205 -0.3340  0.8604
 7322TIP3    H243382  -0.074   6.261  16.133 -0.2448  1.1879  0.6952
 7323TIP3   OH243383   4.112   1.547  16.429 -0.0336  0.4619  0.1123
 7323TIP3    H143384   4.149   1.634  16.414 -0.5348  0.5983 -0.3960
 7323TIP3    H243385   4.030   1.548  16.379  0.1254 -0.4170 -0.1746
 7324TIP3   OH243386   5.129   3.456  15.729  0.1126 -0.5966  0.3344
 7324TIP3    H143387   5.115   3.494  15.815 -1.2273 -2.3971  0.9526
 7324TIP3    H243388   5.053   3.483  15.677  0.2175 -0.6698  0.1390
 7325TIP3   OH243389   3.002   5.658   1.820  0.0923  0.7876  0.6501
 7325TIP3    H143390   2.973   5.609   1.743  1.6561  0.2206  0.3920
 7325TIP3    H243391   2.926   5.657   1.878 -1.2094  1.4091 -0.9374
 7326TIP3   OH243392   1.130   1.703   4.362  0.8153 -0.4431 -0.1566
 7326TIP3    H143393   1.123   1.745   4.276  0.7022 -0.4599 -0.1556
 7326TIP3    H243394   1.153   1.612   4.344  0.7674 -0.4526 -0.1703
 7327TIP3   OH243395   4.242   4.912   1.043  0.4621 -0.8213 -0.0682
 7327TIP3    H143396   4.257   4.875   1.130 -0.7488 -0.1365  0.4604
 7327TIP3    H243397   4.190   4.991   1.059  1.4030  0.0907 -1.3090
 7328TIP3   OH243398   5.330   2.784  13.700  0.0135 -0.3297  0.7345
 7328TIP3    H143399   5.414   2.812  13.736 -0.0450 -0.3012  0.8500
 7328TIP3    H243400   5.341   2.789  13.605 -0.9002  2.8848  0.6814
 7329TIP3   OH243401   2.831   4.326  11.080 -0.5837  0.2264  0.0866
 7329TIP3    H143402   2.902   4.262  11.088 -0.6626  0.2266  0.8722
 7329TIP3    H243403   2.870   4.409  11.105 -0.3783  0.5803 -1.3144
 7330TIP3   OH243404   6.221   1.368   4.062  0.1147 -0.2572  0.5531
 7330TIP3    H143405   6.183   1.354   4.149 -1.6593  1.2687  0.0967
 7330TIP3    H243406   6.149   1.352   4.002  1.0853 -0.4393 -0.5880
 7331TIP3   OH243407   3.252   5.010  14.465 -0.3556  0.3245 -0.3202
 7331TIP3    H143408   3.193   5.072  14.509 -0.6294  0.0994 -0.3685
 7331TIP3    H243409   3.340   5.041  14.487 -0.4922  0.6018 -0.1619
 7332TIP3   OH243410   6.719   5.342  12.277  0.0845 -0.5876 -0.3171
 7332TIP3    H143411   6.627   5.360  12.255 -0.4656  1.2656  2.8290
 7332TIP3    H243412   6.769   5.396  12.216 -0.9702 -0.6382 -1.2616
 7333TIP3   OH243413   4.190   2.446   4.839 -0.2785  0.2570  0.2710
 7333TIP3    H143414   4.127   2.501   4.792 -1.7259 -0.7586  0.9724
 7333TIP3    H243415   4.222   2.385   4.773  0.4820  1.1857 -0.2414
 7334TIP3   OH243416   6.203   6.507   2.910 -0.4737  0.2505 -0.5197
 7334TIP3    H143417   6.299   6.500   2.902 -0.2843  2.0926 -0.2874
 7334TIP3    H243418   6.177   6.429   2.958  1.0758  0.2957  0.4595
 7335TIP3   OH243419   1.390   0.894  10.487 -0.5215 -0.1846  1.0370
 7335TIP3    H143420   1.390   0.825  10.554  1.7908 -0.8975  0.3838
 7335TIP3    H243421   1.408   0.848  10.405 -1.7983  0.8739  0.1349
 7336TIP3   OH243422   5.272   4.119  12.727 -0.5285 -0.3351 -0.0188
 7336TIP3    H143423   5.295   4.145  12.638  0.5533  1.3527  0.7000
 7336TIP3    H243424   5.183   4.085  12.720  0.2010 -2.0375 -2.0346
 7337TIP3   OH243425   3.739   1.343  13.986 -0.3114  0.1690 -0.2839
 7337TIP3    H143426   3.737   1.422  14.041 -0.6334 -0.4936  0.6766
 7337TIP3    H243427   3.654   1.341  13.944 -0.9989 -0.6106  1.0833
 7338TIP3   OH243428   2.939   3.465   1.953  0.3654 -0.1374  0.3735
 7338TIP3    H143429   2.857   3.512   1.967  0.7535  0.6829 -0.0566
 7338TIP3    H243430   2.928   3.383   2.001 -1.1196 -0.5050 -0.5282
 7339TIP3   OH243431   3.956   1.681   0.153 -0.2427  0.6945  0.4804
 7339TIP3    H143432   3.948   1.606   0.095 -2.9121  1.0420  0.2958
 7339TIP3    H243433   3.942   1.646   0.241  0.6646  0.6737  0.6314
 7340TIP3   OH243434   3.270   2.739   3.074 -0.0594 -0.8217  0.3187
 7340TIP3    H143435   3.251   2.666   3.016 -0.1211 -1.6584  1.3597
 7340TIP3    H243436   3.330   2.703   3.139 -0.5439 -0.1113  1.1919
 7341TIP3   OH243437   0.281   1.156   1.539  0.3112  0.1983  0.2522
 7341TIP3    H143438   0.354   1.127   1.483 -0.0963  0.3339 -0.3577
 7341TIP3    H243439   0.267   1.247   1.515 -1.0588 -0.2366 -0.7623
 7342TIP3   OH243440   3.924   5.757   4.169  0.4941 -0.9344  0.9262
 7342TIP3    H143441   3.948   5.831   4.112 -1.1044 -0.3556  0.9576
 7342TIP3    H243442   3.938   5.680   4.114 -1.9394 -0.3459 -0.7034
 7343TIP3   OH243443   1.003   2.314  13.278 -0.1972 -0.0548 -0.2239
 7343TIP3    H143444   1.044   2.361  13.205  1.1711 -1.2510 -0.2806
 7343TIP3    H243445   1.024   2.365  13.355  0.0341  0.1912 -0.4486
 7344TIP3   OH243446   0.045   5.142  15.240  0.2299 -0.1410  0.0291
 7344TIP3    H143447  -0.004   5.199  15.300 -1.1927  0.3747 -1.5558
 7344TIP3    H243448   0.116   5.197  15.208  0.1576  0.0357  0.1684
 7345TIP3   OH243449   1.631   3.852   0.022  0.1362 -0.5139 -0.9490
 7345TIP3    H143450   1.675   3.932   0.047  0.2424 -1.3111  1.7642
 7345TIP3    H243451   1.695   3.804  -0.030  0.3388  0.7728 -1.9396
 7346TIP3   OH243452   4.807   6.546  15.039  0.2684  0.5087  0.0871
 7346TIP3    H143453   4.803   6.451  15.041  2.3694  0.3078 -1.4263
 7346TIP3    H243454   4.792   6.573  15.129  1.8447 -1.4059  0.9980
 7347TIP3   OH243455   4.423   1.659   5.982 -0.5030  0.3539  0.5118
 7347TIP3    H143456   4.451   1.605   5.908 -1.0070  0.7598  0.0194
 7347TIP3    H243457   4.499   1.712   6.003 -1.0004  1.8515 -1.1734
 7348TIP3   OH243458   2.753   0.100   0.950  0.5818 -0.2361  0.4747
 7348TIP3    H143459   2.689   0.031   0.931  1.6219 -1.1712  0.3080
 7348TIP3    H243460   2.766   0.096   1.044 -0.4394  0.7316  0.6855
 7349TIP3   OH243461   0.863   3.298   0.240 -0.4856 -0.0269  0.1711
 7349TIP3    H143462   0.801   3.228   0.262 -1.0478  0.3680 -0.1317
 7349TIP3    H243463   0.846   3.316   0.147 -3.0227  3.0739  1.0398
 7350TIP3   OH243464   0.438   5.869  14.549  0.3030 -0.2527  0.0162
 7350TIP3    H143465   0.356   5.892  14.592  0.2001  0.3604 -0.4909
 7350TIP3    H243466   0.473   5.796  14.601 -1.3178 -1.5707 -0.6674
 7351TIP3   OH243467   1.620   1.060   3.207  0.3133  0.1951 -0.4060
 7351TIP3    H143468   1.612   0.966   3.221 -1.6500  0.3395 -0.3258
 7351TIP3    H243469   1.693   1.069   3.146  0.8525 -1.3326 -0.0279
 7352TIP3   OH243470   3.593   5.273  15.244  0.7272 -0.1535  0.2459
 7352TIP3    H143471   3.599   5.195  15.299  0.5536  0.6092  1.3843
 7352TIP3    H243472   3.680   5.281  15.204  0.4540 -1.4730 -0.6888
 7353TIP3   OH243473   1.760   0.435   3.185 -0.6613 -0.1325  0.1408
 7353TIP3    H143474   1.815   0.434   3.263 -0.0476  2.3404 -0.1617
 7353TIP3    H243475   1.821   0.459   3.114 -1.5452 -0.5677 -0.7896
 7354TIP3   OH243476   0.922   2.219   3.190  0.0774  0.0584 -0.4467
 7354TIP3    H143477   0.985   2.214   3.118  1.2319  0.3886  0.4973
 7354TIP3    H243478   0.928   2.310   3.221  0.3252 -0.3168  0.6664
 7355TIP3   OH243479   4.702   4.127   3.722 -0.0101  0.4353  0.0273
 7355TIP3    H143480   4.725   4.192   3.656 -0.1201  0.5415  0.0938
 7355TIP3    H243481   4.683   4.178   3.801 -0.8234  0.3797 -0.1211
 7356TIP3   OH243482   5.043   4.313   5.234 -0.1923  0.1149 -0.2650
 7356TIP3    H143483   5.062   4.382   5.297  1.3725 -0.9194  0.4755
 7356TIP3    H243484   5.037   4.357   5.150 -1.1668  1.3764  0.4439
 7357TIP3   OH243485   6.448   4.464   3.961 -0.4116  0.2355 -0.2237
 7357TIP3    H143486   6.489   4.548   3.981 -1.3253  0.3902  1.1437
 7357TIP3    H243487   6.453   4.415   4.043 -1.8233 -0.2043 -0.3775
 7358TIP3   OH243488   0.335   0.888   2.330 -0.0247 -0.2346  0.5144
 7358TIP3    H143489   0.362   0.828   2.398  2.2324 -0.1361 -0.1975
 7358TIP3    H243490   0.391   0.965   2.342  0.2626 -0.1146 -1.2401
 7359TIP3   OH243491   1.705   0.116   0.719  0.4309  0.0483  0.3130
 7359TIP3    H143492   1.615   0.107   0.687  0.9154  0.1504 -1.1499
 7359TIP3    H243493   1.724   0.209   0.710  1.4402 -0.2853 -1.6626
 7360TIP3   OH243494   1.269   1.924  11.974  0.5618 -0.5396  0.0641
 7360TIP3    H143495   1.245   1.919  12.067  2.2386 -1.6104  0.4669
 7360TIP3    H243496   1.294   1.835  11.951  0.4343 -0.2261 -1.3659
 7361TIP3   OH243497   4.045   6.612   2.536 -0.2894  0.1132 -0.0505
 7361TIP3    H143498   3.994   6.661   2.600  1.4069  0.5173  1.0639
 7361TIP3    H243499   4.020   6.521   2.550 -2.4727  0.4476 -1.2260
 7362TIP3   OH243500   5.969   2.225   3.191 -0.0172  0.8563 -0.1091
 7362TIP3    H143501   6.044   2.197   3.243  0.0505  2.3566  0.6496
 7362TIP3    H243502   5.909   2.150   3.193  1.1330 -0.0855 -0.1084
 7363TIP3   OH243503   1.209   1.159  12.083 -0.3293 -0.0513  0.1536
 7363TIP3    H143504   1.180   1.144  12.173 -1.7949  1.1296 -0.0861
 7363TIP3    H243505   1.304   1.170  12.090 -0.2085 -1.4861  1.3286
 7364TIP3   OH243506   0.631   6.263   3.199  0.1066 -0.0839  0.2774
 7364TIP3    H143507   0.656   6.327   3.267  3.9758  0.7156 -1.6631
 7364TIP3    H243508   0.576   6.313   3.139 -1.2594 -0.1180  1.4434
 7365TIP3   OH243509   4.165   2.592  15.762 -0.4113 -0.4423  0.4047
 7365TIP3    H143510   4.153   2.608  15.669 -0.6447 -0.6701  0.3949
 7365TIP3    H243511   4.146   2.498  15.773  2.0522 -1.0380  0.2451
 7366TIP3   OH243512   1.804   6.434   0.268  0.2845 -0.4423  0.0964
 7366TIP3    H143513   1.820   6.374   0.341  1.8084  0.7540  0.8170
 7366TIP3    H243514   1.873   6.500   0.276 -0.0227  0.2021 -1.9456
 7367TIP3   OH243515   0.042   6.457  15.133  0.5469 -0.8402  0.3201
 7367TIP3    H143516   0.082   6.445  15.047 -2.0818 -0.4663 -1.0583
 7367TIP3    H243517  -0.032   6.396  15.134  0.1360 -0.3572  2.0270
 7368TIP3   OH243518   6.392   1.000  10.960 -0.0731 -0.0477 -0.7420
 7368TIP3    H143519   6.368   0.908  10.945  0.7244 -0.2362 -0.9268
 7368TIP3    H243520   6.405   1.006  11.054 -1.3360  0.1920 -0.5626
 7369TIP3   OH243521   1.600   2.303  14.716  0.3838 -0.2851  0.1356
 7369TIP3    H143522   1.597   2.387  14.670  2.3753 -0.1813  0.1170
 7369TIP3    H243523   1.573   2.323  14.806  0.9228  0.3996  0.1505
 7370TIP3   OH243524   2.226   0.256  14.242 -0.0532 -0.2286 -0.3108
 7370TIP3    H143525   2.241   0.163  14.225  1.3595 -0.1810  0.5532
 7370TIP3    H243526   2.172   0.285  14.169 -0.2700 -1.6588 -0.7484
 7371TIP3   OH243527   2.547   1.791  13.987  0.5053 -0.2311  0.3544
 7371TIP3    H143528   2.579   1.830  13.905 -0.9434  0.9612  0.2957
 7371TIP3    H243529   2.465   1.747  13.962  0.8113 -1.1434  0.9095
 7372TIP3   OH243530   3.888   2.822   2.253  0.2808 -0.2436 -0.3477
 7372TIP3    H143531   3.915   2.768   2.179  1.9821 -0.1276  0.1539
 7372TIP3    H243532   3.836   2.892   2.213  0.0077 -0.9479 -1.2659
 7373TIP3   OH243533   3.370   0.314  11.604  0.0162  0.0481  0.0064
 7373TIP3    H143534   3.307   0.379  11.573  0.7490  0.9707  0.4017
 7373TIP3    H243535   3.350   0.303  11.697  0.3895  0.2879  0.1165
 7374TIP3   OH243536   6.576   1.207   2.231  0.0239  0.0364  1.0381
 7374TIP3    H143537   6.539   1.274   2.290 -0.2571  1.8881 -1.1010
 7374TIP3    H243538   6.520   1.210   2.154  1.7140 -0.6624 -0.2676
 7375TIP3   OH243539   3.307   4.585   4.668  0.5710  0.3901  0.0285
 7375TIP3    H143540   3.359   4.507   4.655  0.7868  0.9085 -2.6382
 7375TIP3    H243541   3.220   4.561   4.636 -0.4766  0.0967  2.7944
 7376TIP3   OH243542   4.053   5.713  17.184  0.2711  0.0982  0.0625
 7376TIP3    H143543   4.106   5.793  17.191 -2.7254  2.1180  3.6325
 7376TIP3    H243544   4.078   5.661  17.260 -0.6088 -0.4450 -0.0078
 7377TIP3   OH243545   3.015   1.001  11.444 -0.0171 -0.3956 -0.3949
 7377TIP3    H143546   3.035   1.053  11.366 -0.9098  0.5080 -0.0422
 7377TIP3    H243547   2.923   1.021  11.463  1.3576  3.6857  3.9877
 7378TIP3   OH243548   5.639   0.539   5.148 -0.2959  0.1954 -0.2255
 7378TIP3    H143549   5.588   0.621   5.145  0.7843  0.8941 -0.1045
 7378TIP3    H243550   5.671   0.528   5.058  1.0749  0.9109  0.1563
 7379TIP3   OH243551   1.488   5.479  14.231  0.2969  0.3961 -0.1483
 7379TIP3    H143552   1.558   5.414  14.221  0.7298  0.6223  1.1827
 7379TIP3    H243553   1.534   5.562  14.245 -0.2201  0.5613  0.6367
 7380TIP3   OH243554   0.601   2.478   3.064  0.0131  0.1953  0.1069
 7380TIP3    H143555   0.511   2.498   3.039  0.3374  1.7952  0.0920
 7380TIP3    H243556   0.613   2.520   3.149  1.0277  0.8726 -0.3471
 7381TIP3   OH243557   3.491   1.117  11.203  0.5292  0.5329 -0.1142
 7381TIP3    H143558   3.479   1.188  11.140  0.6093  1.1444  0.5521
 7381TIP3    H243559   3.536   1.158  11.277  4.3699 -1.0166 -1.3383
 7382TIP3   OH243560   2.966   4.735  14.590  0.2628  0.4801  0.0238
 7382TIP3    H143561   3.010   4.737  14.505  0.1508 -3.7475 -0.3196
 7382TIP3    H243562   2.875   4.713  14.570  0.5315 -2.0303  1.1923
 7383TIP3   OH243563   3.433   6.411   6.230  0.4902  0.4258  0.1868
 7383TIP3    H143564   3.389   6.413   6.145  2.2224  0.5678 -0.7538
 7383TIP3    H243565   3.390   6.340   6.277  0.4782 -0.6852 -1.3916
 7384TIP3   OH243566   0.016   3.598   1.890 -0.1972 -1.4059  0.5433
 7384TIP3    H143567  -0.052   3.573   1.828  1.1858 -1.6887 -0.9242
 7384TIP3    H243568   0.097   3.592   1.840  0.6820  1.5219  1.4266
 7385TIP3   OH243569   0.930   3.572   4.804 -0.3207 -0.6020 -0.1351
 7385TIP3    H143570   0.994   3.502   4.792  0.2327  0.0554 -1.2114
 7385TIP3    H243571   0.866   3.558   4.735  0.0895  0.2445 -0.7117
 7386TIP3   OH243572   6.181   1.171  13.736  0.0611 -0.0235 -0.0795
 7386TIP3    H143573   6.201   1.080  13.758 -0.9724 -0.2416 -0.0104
 7386TIP3    H243574   6.199   1.177  13.642  0.7581 -0.1197  0.0433
 7387TIP3   OH243575   4.002   2.579   3.283 -0.0086  0.3500 -0.0276
 7387TIP3    H143576   3.938   2.567   3.353  0.3475  1.3603  0.4967
 7387TIP3    H243577   4.086   2.583   3.328  0.4178 -0.8302 -0.7016
 7388TIP3   OH243578   0.455   5.325  16.419  0.4088  0.0573  0.0716
 7388TIP3    H143579   0.475   5.272  16.342 -1.1655 -1.2146  0.4945
 7388TIP3    H243580   0.363   5.308  16.437  0.3111  1.6009  1.2866
 7389TIP3   OH243581   1.088   4.923   4.899 -0.0786  0.1420 -0.0614
 7389TIP3    H143582   1.088   5.004   4.849 -1.0980  2.4379  3.3198
 7389TIP3    H243583   1.012   4.875   4.868  0.8941  0.0932 -2.5521
 7390TIP3   OH243584   4.036   3.795   1.934 -0.3511  0.7121  0.2118
 7390TIP3    H143585   4.103   3.740   1.973 -0.4491  1.4662  1.4925
 7390TIP3    H243586   3.958   3.738   1.929 -0.4432  0.6916  1.4816
 7391TIP3   OH243587   0.243   2.040  10.738  0.3381 -0.0963 -0.1221
 7391TIP3    H143588   0.266   2.130  10.713  0.8416 -0.2763 -0.3237
 7391TIP3    H243589   0.171   2.016  10.680 -0.2012  0.3876  0.3390
 7392TIP3   OH243590   2.345   1.783  14.262 -0.3778 -0.1364 -0.3371
 7392TIP3    H143591   2.269   1.824  14.222 -0.6587  0.8429  1.1502
 7392TIP3    H243592   2.337   1.690  14.239 -1.2842  0.1643 -1.3181
 7393TIP3   OH243593   5.922   4.390  16.019  0.1644 -0.1523  0.0729
 7393TIP3    H143594   5.844   4.441  15.997 -0.4783 -1.3047 -0.3710
 7393TIP3    H243595   5.923   4.388  16.115 -0.7490 -0.6930  0.0858
 7394TIP3   OH243596   0.129   2.976   0.760  0.1381  0.0392 -0.3797
 7394TIP3    H143597   0.110   2.925   0.682  1.0421 -1.0574  0.0798
 7394TIP3    H243598   0.194   3.040   0.732  0.2778 -0.1896 -0.5856
 7395TIP3   OH243599   1.146   3.390  16.901  0.2135  0.0227 -0.0647
 7395TIP3    H143600   1.156   3.334  16.824 -0.6434  2.5857 -2.1989
 7395TIP3    H243601   1.226   3.442  16.904  0.5329 -0.4919  1.2401
 7396TIP3   OH243602   6.611   4.160  12.833  0.4950 -0.2999  0.5533
 7396TIP3    H143603   6.678   4.222  12.803  1.0948 -1.1118  0.1999
 7396TIP3    H243604   6.638   4.076  12.797 -1.8939 -0.3033 -1.4694
 7397TIP3   OH243605   2.224   0.284   2.850 -0.8991  0.2128 -0.0943
 7397TIP3    H143606   2.258   0.373   2.842 -0.4162 -0.0805 -1.5001
 7397TIP3    H243607   2.294   0.235   2.893  0.1381 -0.1684 -2.1172
 7398TIP3   OH243608   0.025   1.225   5.048 -0.0429  0.1634 -0.8299
 7398TIP3    H143609  -0.038   1.184   5.107  0.9302 -0.7428 -0.3757
 7398TIP3    H243610   0.108   1.181   5.068  0.8383  1.6644 -1.0457
 7399TIP3   OH243611   2.527   2.212   3.250 -0.2775 -0.2040  0.3750
 7399TIP3    H143612   2.574   2.131   3.232  0.1316  0.0034  0.4903
 7399TIP3    H243613   2.575   2.252   3.323  1.2825  1.5395 -1.4837
 7400TIP3   OH243614   1.021   2.985   3.820  0.0422  0.1329  1.0951
 7400TIP3    H143615   1.059   2.900   3.841 -0.6338 -0.1073  1.3931
 7400TIP3    H243616   1.089   3.048   3.840  0.9384 -0.4017 -0.1230
 7401TIP3   OH243617   1.977   1.276   5.623 -0.3211  0.2744  0.5065
 7401TIP3    H143618   2.061   1.296   5.582 -0.5390  1.3997  0.5963
 7401TIP3    H243619   1.995   1.279   5.717 -0.2681 -0.3856  0.5255
 7402TIP3   OH243620   4.277   0.585  13.195  0.3955  0.6498 -0.3562
 7402TIP3    H143621   4.224   0.506  13.204 -0.2945  1.0660 -0.7402
 7402TIP3    H243622   4.365   0.557  13.223  0.5085 -0.6282 -1.8535
 7403TIP3   OH243623   3.540   4.944  15.437  0.3795  0.5326 -0.3826
 7403TIP3    H143624   3.579   4.995  15.507  0.2487  1.1331 -0.7368
 7403TIP3    H243625   3.509   4.864  15.479  1.5182  0.2766 -0.0128
 7404TIP3   OH243626   5.847   4.130  12.211  0.5025  0.4276  0.8815
 7404TIP3    H143627   5.842   4.152  12.303  1.4904 -0.5415  1.1895
 7404TIP3    H243628   5.918   4.066  12.205  1.6004  1.7192 -0.7868
 7405TIP3   OH243629   3.684   1.690   3.222 -0.8724 -0.6172  0.6719
 7405TIP3    H143630   3.690   1.595   3.233  0.3413 -0.6304  0.0866
 7405TIP3    H243631   3.775   1.718   3.206 -1.3279  0.5253 -0.0238
 7406TIP3   OH243632   6.709   0.611  12.224 -0.2611  0.3126  0.0733
 7406TIP3    H143633   6.638   0.643  12.168 -2.1636 -0.8026  1.7362
 7406TIP3    H243634   6.669   0.600  12.310  1.7464 -1.0923  0.9007
 7407TIP3   OH243635   1.379   6.731  16.129  0.0456  0.0635 -0.4348
 7407TIP3    H143636   1.371   6.827  16.134  3.3044  0.3977  0.2790
 7407TIP3    H243637   1.367   6.702  16.219  1.0810  0.0362 -0.2979
 7408TIP3   OH243638   4.320   6.063  11.413 -0.2631  0.1738  0.0639
 7408TIP3    H143639   4.304   6.041  11.504  0.0616  1.0545  0.3444
 7408TIP3    H243640   4.405   6.025  11.392 -0.4428 -0.2269  0.0543
 7409TIP3   OH243641   1.929   0.749   4.034 -0.3061 -0.0969 -0.6013
 7409TIP3    H143642   1.996   0.685   4.057 -1.6078 -0.3643  2.9856
 7409TIP3    H243643   1.855   0.695   4.004 -0.8705 -0.2351  0.9686
 7410TIP3   OH243644   0.024   2.023   3.772  0.1156 -0.1382  0.1448
 7410TIP3    H143645  -0.067   1.994   3.775  0.6884 -2.1748 -0.5007
 7410TIP3    H243646   0.070   1.953   3.727  2.1835  0.4260  1.2475
 7411TIP3   OH243647   4.806   1.294   1.393 -0.2005 -0.1258 -0.5289
 7411TIP3    H143648   4.814   1.237   1.469  0.0984 -0.5434 -0.8632
 7411TIP3    H243649   4.896   1.321   1.373 -0.1168 -0.9835 -1.4365
 7412TIP3   OH243650   1.147   2.799   3.521  0.0148 -0.2786  0.6811
 7412TIP3    H143651   1.242   2.807   3.528 -0.0340  0.4691  0.6394
 7412TIP3    H243652   1.126   2.839   3.437 -0.2830 -0.9669  0.4246
 7413TIP3   OH243653   0.684   1.942   4.361 -0.0504 -0.0348 -0.4638
 7413TIP3    H143654   0.778   1.948   4.377 -0.2253  0.8753  0.3089
 7413TIP3    H243655   0.656   1.864   4.407  0.6039 -1.3569 -2.1909
 7414TIP3   OH243656   2.576   5.590  11.968 -0.2440 -0.0763 -0.1720
 7414TIP3    H143657   2.634   5.652  11.924  1.0844 -0.8748  0.4179
 7414TIP3    H243658   2.622   5.507  11.965  0.1077 -0.1297  3.0220
 7415TIP3   OH243659   0.252   5.592   4.029  0.0899  0.1817 -0.5620
 7415TIP3    H143660   0.164   5.605   3.994 -0.7049 -0.9992  0.9346
 7415TIP3    H243661   0.240   5.581   4.123  1.8006 -0.3747 -0.3722
 7416TIP3   OH243662   3.501   1.314   5.736  0.2556  0.2876  0.0943
 7416TIP3    H143663   3.520   1.239   5.792 -1.0000  0.6017  0.9971
 7416TIP3    H243664   3.567   1.379   5.759  0.3064  0.0727  0.5572
 7417TIP3   OH243665   0.995   6.296  12.555 -0.0719 -0.2970 -0.4717
 7417TIP3    H143666   0.932   6.268  12.490 -3.2283 -1.2469  2.6666
 7417TIP3    H243667   1.034   6.214  12.587 -0.6671 -0.1568  0.6840
 7418TIP3   OH243668   6.458   4.626  13.359  0.0607  0.1003 -0.3094
 7418TIP3    H143669   6.537   4.678  13.375  0.0620  0.0109 -0.0111
 7418TIP3    H243670   6.470   4.592  13.270  0.1575  0.4330 -0.4264
 7419TIP3   OH243671   1.258   3.275   4.053 -0.1371  0.1223 -0.2142
 7419TIP3    H143672   1.181   3.253   4.106 -1.9290  3.2096 -1.2871
 7419TIP3    H243673   1.331   3.274   4.116 -1.3957 -0.6326  1.3252
 7420TIP3   OH243674   0.202   0.621  15.796 -0.7159 -0.0756  0.3281
 7420TIP3    H143675   0.202   0.539  15.746 -0.1134  0.4176 -0.5030
 7420TIP3    H243676   0.147   0.680  15.744 -0.9699  0.1175  0.8120
 7421TIP3   OH243677   4.129   4.383  11.234  0.0895 -0.4670  0.1742
 7421TIP3    H143678   4.179   4.409  11.156  0.2610 -0.4384  0.2936
 7421TIP3    H243679   4.167   4.299  11.260  0.2902 -0.2931  0.4513
 7422TIP3   OH243680   1.329   0.527  15.756 -0.4960  0.7325 -0.2114
 7422TIP3    H143681   1.405   0.561  15.804 -2.2384  2.6161  1.4398
 7422TIP3    H243682   1.324   0.582  15.678  0.0607  0.3372 -0.5290
 7423TIP3   OH243683   2.375   6.289  14.850  0.7392 -0.3102  0.2661
 7423TIP3    H143684   2.397   6.208  14.804  0.5786 -0.5963  0.6902
 7423TIP3    H243685   2.425   6.285  14.931 -1.5072 -1.3975  1.6850
 7424TIP3   OH243686   4.618   0.287  12.806 -0.4233  0.4244 -0.2437
 7424TIP3    H143687   4.542   0.322  12.758 -1.3859 -3.3285 -1.7811
 7424TIP3    H243688   4.693   0.309  12.750 -1.1606 -0.9833 -1.8876
 7425TIP3   OH243689   3.750   2.564  11.655 -0.3441 -0.3531  0.1506
 7425TIP3    H143690   3.754   2.472  11.680 -3.5082 -0.2761  1.4414
 7425TIP3    H243691   3.763   2.611  11.737  1.7140  0.4343 -0.5711
 7426TIP3   OH243692   4.468   6.587  12.664 -0.5366  0.0722 -0.0543
 7426TIP3    H143693   4.443   6.622  12.750 -1.4506 -0.9208  0.1063
 7426TIP3    H243694   4.559   6.615  12.652 -0.6249  0.8263  0.9164
 7427TIP3   OH243695   1.578   0.845   4.562  0.1408  0.3783 -0.2358
 7427TIP3    H143696   1.521   0.768   4.565  1.0085 -0.3160 -0.8794
 7427TIP3    H243697   1.567   0.879   4.473 -1.1631  1.7576  0.4052
 7428TIP3   OH243698   0.785   6.435   3.392 -0.2485  0.4855 -0.0714
 7428TIP3    H143699   0.773   6.362   3.453 -2.5417  1.3110  0.5507
 7428TIP3    H243700   0.821   6.506   3.445  1.1456  0.1168 -0.4890
 7429TIP3   OH243701   5.469   2.471   0.954  0.4901  0.1313 -0.0859
 7429TIP3    H143702   5.402   2.517   0.903 -2.4288 -2.2667  1.2308
 7429TIP3    H243703   5.500   2.535   1.017  0.5533  1.7229 -1.6626
 7430TIP3   OH243704   3.884   1.197   3.478 -0.1901  0.2783 -0.0371
 7430TIP3    H143705   3.860   1.286   3.503 -0.7634  0.1686 -0.1942
 7430TIP3    H243706   3.976   1.189   3.505  0.4806  1.5635 -1.7403
 7431TIP3   OH243707   3.165   6.478  13.274  0.2642 -0.5453 -0.9705
 7431TIP3    H143708   3.213   6.544  13.325  1.7196 -1.2978 -1.3334
 7431TIP3    H243709   3.072   6.500  13.290  0.6651 -0.0248  1.0278
 7432TIP3   OH243710   3.208   2.040  16.494  0.1432 -0.2736 -0.3632
 7432TIP3    H143711   3.186   2.118  16.441 -0.2220  0.4274  0.7896
 7432TIP3    H243712   3.150   1.972  16.460 -0.0788  0.1648 -0.8904
 7433TIP3   OH243713   2.917   1.218   2.211  0.6132 -0.3028  0.1013
 7433TIP3    H143714   2.898   1.131   2.176 -2.3287 -0.0480  0.8058
 7433TIP3    H243715   2.954   1.203   2.298 -1.1473 -0.8973  0.7823
 7434TIP3   OH243716   1.283   2.518   1.101  0.4477  0.3493  0.4862
 7434TIP3    H143717   1.291   2.543   1.193 -0.8710  1.6190  0.2872
 7434TIP3    H243718   1.233   2.589   1.061  1.7197  0.2547 -1.4162
 7435TIP3   OH243719   2.395   5.569   3.566 -0.0790 -0.5246  0.3148
 7435TIP3    H143720   2.363   5.636   3.627  2.4774  0.0174  1.2046
 7435TIP3    H243721   2.320   5.551   3.509 -2.0422  0.2398  2.4846
 7436TIP3   OH243722   5.448   5.228  10.621  0.6883  0.3149 -0.1335
 7436TIP3    H143723   5.462   5.228  10.716  0.9558  2.0280 -0.1336
 7436TIP3    H243724   5.531   5.261  10.585  0.5011 -0.0729 -0.9414
 7437TIP3   OH243725   5.806   0.936  14.261 -0.1122  0.2676 -0.2389
 7437TIP3    H143726   5.901   0.944  14.273  0.2252 -3.5991  1.0335
 7437TIP3    H243727   5.772   0.920  14.349 -1.9502  1.2718 -0.7220
 7438TIP3   OH243728   3.381   3.155   3.653  0.3564 -0.2081 -0.9879
 7438TIP3    H143729   3.406   3.083   3.711  0.4687 -0.0147 -0.7944
 7438TIP3    H243730   3.457   3.167   3.596  1.1854  1.0892  0.2946
 7439TIP3   OH243731   3.023   2.103   5.309 -0.4026  0.2964 -0.1610
 7439TIP3    H143732   3.012   2.008   5.300  0.0928  0.2383 -0.1739
 7439TIP3    H243733   2.935   2.138   5.297 -1.0661 -0.3325  2.2217
 7440TIP3   OH243734   5.920   4.443  11.279 -0.0349 -0.0498  0.4729
 7440TIP3    H143735   5.919   4.411  11.369  0.2749 -1.1901  0.0807
 7440TIP3    H243736   5.916   4.539  11.288 -0.1551 -0.1517  1.6842
 7441TIP3   OH243737   2.279   2.904  16.858 -0.1977 -0.2805  0.0525
 7441TIP3    H143738   2.242   2.950  16.782 -0.5108 -0.8024 -0.1206
 7441TIP3    H243739   2.215   2.918  16.928  0.4868  0.8966  0.4727
 7442TIP3   OH243740   6.723   1.463  15.997 -0.4402  0.5116 -0.4585
 7442TIP3    H143741   6.703   1.384  15.946  0.9359  0.5377 -1.0795
 7442TIP3    H243742   6.712   1.435  16.088 -0.1511 -0.3720 -0.6760
 7443TIP3   OH243743   3.748   1.339  14.529  0.8599  0.2488  0.6045
 7443TIP3    H143744   3.820   1.396  14.554  1.0407  1.1111 -1.6477
 7443TIP3    H243745   3.789   1.253  14.515  0.6704 -0.3888  3.4993
 7444TIP3   OH243746   6.568   3.394   6.267 -0.1715 -0.4262  0.0286
 7444TIP3    H143747   6.591   3.305   6.294 -0.5134 -0.6313 -0.3370
 7444TIP3    H243748   6.557   3.442   6.349  1.9103 -0.2040  0.2073
 7445TIP3   OH243749   3.298   2.971  13.567  0.0804  0.6984  0.0893
 7445TIP3    H143750   3.273   2.888  13.526  0.3866 -0.3109  1.8621
 7445TIP3    H243751   3.380   2.995  13.525 -0.1900  0.3044 -0.6908
 7446TIP3   OH243752   2.467   2.941   4.675 -0.7361 -0.1374 -0.4558
 7446TIP3    H143753   2.514   2.865   4.639  0.3177  0.8717 -1.2964
 7446TIP3    H243754   2.388   2.947   4.621 -1.7902 -1.7047  0.8133
 7447TIP3   OH243755   4.382   3.199   4.070  0.4906  0.2577 -0.0176
 7447TIP3    H143756   4.461   3.146   4.063 -0.5864 -1.6885  1.4142
 7447TIP3    H243757   4.326   3.167   3.999 -0.3653 -0.9707  1.1664
 7448TIP3   OH243758   4.872   5.928  11.347 -0.3535 -0.7665  0.3770
 7448TIP3    H143759   4.888   5.972  11.431 -2.1354  1.8669 -0.5375
 7448TIP3    H243760   4.959   5.910  11.312  0.5282  2.1995  0.8144
 7449TIP3   OH243761   6.227   1.549   2.433  0.4421  0.3590  0.3790
 7449TIP3    H143762   6.181   1.626   2.400  0.4363  0.0801 -0.2850
 7449TIP3    H243763   6.166   1.477   2.420  0.8514  0.0760  0.0077
 7450TIP3   OH243764   2.611   1.620   6.003  0.1704  0.1452  0.3663
 7450TIP3    H143765   2.647   1.708   5.991  0.8587 -0.0991  0.6115
 7450TIP3    H243766   2.570   1.622   6.089 -0.4442  0.4357  0.0711
 7451TIP3   OH243767   2.201   2.916  14.646 -0.1940  0.5753  0.5242
 7451TIP3    H143768   2.210   2.986  14.581  0.7674  0.6827  0.7540
 7451TIP3    H243769   2.112   2.926  14.680  0.4052  2.7324  1.6983
 7452TIP3   OH243770   6.099   0.650   1.800 -0.0571  0.0581 -0.2542
 7452TIP3    H143771   6.055   0.718   1.749 -0.0569 -1.0373 -1.7923
 7452TIP3    H243772   6.155   0.605   1.736 -1.1546 -2.3222  0.3397
 7453TIP3   OH243773   5.015   1.846  15.991  0.4672  0.3578  0.0296
 7453TIP3    H143774   5.064   1.837  16.072  1.3925  1.3641 -0.3935
 7453TIP3    H243775   4.929   1.878  16.019  0.6606  0.3646  0.6346
 7454TIP3   OH243776   2.038   5.832   4.592  0.1360  0.4392  0.2816
 7454TIP3    H143777   2.133   5.839   4.579 -0.1181  1.0144 -1.6469
 7454TIP3    H243778   2.026   5.751   4.641  1.5070 -0.8623 -1.3781
 7455TIP3   OH243779   0.219   2.079  16.546  0.0456 -0.5513  0.0303
 7455TIP3    H143780   0.167   2.060  16.624 -1.0481 -0.1802 -0.5803
 7455TIP3    H243781   0.278   2.149  16.572 -0.7828  0.0372  0.3454
 7456TIP3   OH243782   6.180   5.313  10.872 -0.1569  0.8926  0.0883
 7456TIP3    H143783   6.221   5.323  10.786  1.1008 -0.4211  0.4805
 7456TIP3    H243784   6.241   5.355  10.933 -1.6849  3.0061  0.2471
 7457TIP3   OH243785   1.000   4.195   0.949 -0.5716  0.4912  0.1688
 7457TIP3    H143786   0.930   4.134   0.928  0.1688 -0.2310 -0.2433
 7457TIP3    H243787   1.078   4.159   0.907 -0.0813  1.6372  0.0368
 7458TIP3   OH243788   3.182   5.732   0.204  0.4907 -0.0816  0.1321
 7458TIP3    H143789   3.136   5.772   0.278 -0.2975 -0.4836 -0.1325
 7458TIP3    H243790   3.145   5.774   0.127  1.1748  0.1967 -0.0509
 7459TIP3   OH243791   3.449   3.910  11.675  0.0455 -0.0098 -0.2794
 7459TIP3    H143792   3.527   3.878  11.631 -0.1144  0.1136 -0.6607
 7459TIP3    H243793   3.461   3.887  11.767  0.3750 -0.2861 -0.3931
 7460TIP3   OH243794   4.342   5.796   1.591 -0.2690  0.0584 -0.3334
 7460TIP3    H143795   4.313   5.875   1.544 -0.2495  0.6810  0.6841
 7460TIP3    H243796   4.294   5.797   1.673 -0.7698 -1.3665 -0.5835
 7461TIP3   OH243797   0.890   3.947   1.232  0.5661  0.0933  0.1361
 7461TIP3    H143798   0.885   3.913   1.321  0.9925 -0.5300 -0.0731
 7461TIP3    H243799   0.856   4.037   1.239  1.2260  0.2846  1.0496
 7462TIP3   OH243800   4.078   2.018   3.543  0.0053 -0.7465 -0.1383
 7462TIP3    H143801   4.162   2.035   3.501 -0.1553 -0.3791 -0.3182
 7462TIP3    H243802   4.017   2.008   3.471 -0.6567  1.8181 -0.0290
 7463TIP3   OH243803   4.886   5.314  14.032  0.2823 -0.3568  0.9429
 7463TIP3    H143804   4.809   5.339  14.083 -1.4698 -1.0070 -1.2135
 7463TIP3    H243805   4.960   5.334  14.089 -1.4026  1.2901  2.7149
 7464TIP3   OH243806   6.348   2.144  10.371 -0.4908  0.2000  0.1118
 7464TIP3    H143807   6.375   2.058  10.404 -1.0616  0.0051  0.0808
 7464TIP3    H243808   6.263   2.161  10.413 -0.3860  0.7479  0.1151
 7465TIP3   OH243809   1.285   5.982   5.314 -0.3629  0.1893 -0.2938
 7465TIP3    H143810   1.303   6.043   5.243  1.3312  0.0817  0.0082
 7465TIP3    H243811   1.231   6.031   5.376 -0.0419  0.9788 -0.6362
 7466TIP3   OH243812   6.270   5.865   5.010 -0.2713 -0.0074 -0.2652
 7466TIP3    H143813   6.220   5.946   5.018 -0.1170  0.2122 -1.3031
 7466TIP3    H243814   6.203   5.798   4.997 -0.3877 -0.0195  0.3647
 7467TIP3   OH243815   2.150   0.596   2.615  0.4499  0.1350  0.4847
 7467TIP3    H143816   2.064   0.577   2.650  0.4976 -0.3742  0.3379
 7467TIP3    H243817   2.140   0.588   2.520  1.1518 -2.1717  0.5459
 7468TIP3   OH243818   6.166   5.435  13.346 -0.5410 -0.2546 -0.2031
 7468TIP3    H143819   6.217   5.500  13.298  0.0590 -0.4881  0.1055
 7468TIP3    H243820   6.192   5.447  13.438 -2.0278  0.5056  0.1486
 7469TIP3   OH243821   2.345   6.717  15.158 -0.6777 -0.3935 -0.4141
 7469TIP3    H143822   2.257   6.749  15.180 -0.3281  0.2143  0.1542
 7469TIP3    H243823   2.380   6.782  15.098  0.7622  1.4515  2.2135
 7470TIP3   OH243824   3.665   5.885   1.620  0.1373  0.2281  0.0238
 7470TIP3    H143825   3.597   5.841   1.570  0.5036  0.0638 -0.3374
 7470TIP3    H243826   3.705   5.946   1.557 -0.2267  0.9349  0.4594
 7471TIP3   OH243827   4.316   6.134  16.744  0.4984  0.0078  0.6217
 7471TIP3    H143828   4.221   6.120  16.741  0.2945  1.0570  1.4271
 7471TIP3    H243829   4.353   6.059  16.697 -0.7972  0.4985 -1.3008
 7472TIP3   OH243830   6.489   6.025  13.899  0.1056  0.0234  0.1812
 7472TIP3    H143831   6.525   6.114  13.900 -0.7992  0.4326 -1.0838
 7472TIP3    H243832   6.395   6.038  13.906  0.0137 -0.8825  0.6679
 7473TIP3   OH243833   0.224   4.415  13.853 -0.4693 -0.1913  0.4450
 7473TIP3    H143834   0.170   4.335  13.848 -0.7749  0.0436 -0.2537
 7473TIP3    H243835   0.164   4.481  13.886 -0.8380  0.2314 -0.9700
 7474TIP3   OH243836   1.343   3.491  16.686 -0.2488  0.9535  0.1015
 7474TIP3    H143837   1.417   3.533  16.641 -1.1804  0.9234 -1.5577
 7474TIP3    H243838   1.325   3.549  16.760 -0.1725  2.3907 -0.9384
 7475TIP3   OH243839   0.002   3.317  13.408  0.0039  0.2393  0.7071
 7475TIP3    H143840  -0.001   3.380  13.335 -0.3092  0.0215  0.5300
 7475TIP3    H243841   0.086   3.334  13.450 -0.2883  1.1109  0.9606
 7476TIP3   OH243842   0.412   2.886  15.654  0.1727 -0.4561  0.6626
 7476TIP3    H143843   0.460   2.961  15.690 -0.9657 -0.0118  1.2880
 7476TIP3    H243844   0.402   2.826  15.728 -0.0213 -0.6549  0.4751
 7477TIP3   OH243845   6.014   2.616  16.924 -0.0400  0.1976 -0.1909
 7477TIP3    H143846   6.014   2.529  16.965  0.9417  0.2457 -0.0764
 7477TIP3    H243847   6.099   2.622  16.881  0.7964  1.9225  1.5678
 7478TIP3   OH243848   3.104   0.873  13.514 -0.0901 -0.2903  0.2516
 7478TIP3    H143849   3.102   0.945  13.450  1.0747  0.3111  0.8563
 7478TIP3    H243850   3.026   0.887  13.567  0.7682  1.3099  1.1587
 7479TIP3   OH243851   5.329   4.371   0.868  0.2664 -0.0173  0.5741
 7479TIP3    H143852   5.277   4.345   0.792 -0.1013  0.9835  0.4693
 7479TIP3    H243853   5.269   4.367   0.942  0.5066 -0.5450  0.7503
 7480TIP3   OH243854   3.407   4.593  16.461  0.3488 -0.1072  0.1620
 7480TIP3    H143855   3.412   4.629  16.373  0.0257 -1.2240 -0.3387
 7480TIP3    H243856   3.425   4.499  16.449 -1.9788 -0.7175  0.9273
 7481TIP3   OH243857   1.820   0.813   6.105 -0.0573 -0.4768 -0.4039
 7481TIP3    H143858   1.906   0.854   6.094  0.8650 -2.5465 -1.4703
 7481TIP3    H243859   1.757   0.882   6.083  1.3257  0.9817  0.0795
 7482TIP3   OH243860   5.830   3.118   3.316  0.4839  0.2440  0.5401
 7482TIP3    H143861   5.915   3.076   3.301  0.6793  0.3749  1.2320
 7482TIP3    H243862   5.792   3.070   3.390 -0.5996 -0.6034 -0.5301
 7483TIP3   OH243863   2.215   3.667   5.220 -0.0952 -0.1171 -0.3432
 7483TIP3    H143864   2.275   3.593   5.220  2.0471  1.3510  3.1850
 7483TIP3    H243865   2.141   3.638   5.274  0.6545  0.1703  0.8789
 7484TIP3   OH243866   3.365   2.376   2.696  0.0924 -0.2151 -0.0006
 7484TIP3    H143867   3.298   2.372   2.763 -0.1259  1.1090 -0.1112
 7484TIP3    H243868   3.403   2.288   2.694 -0.4117 -0.4803  1.3065
 7485TIP3   OH243869   0.098   2.728  16.940  0.0264  0.0866  0.3837
 7485TIP3    H143870   0.077   2.768  16.855  1.3613  1.7343  0.7725
 7485TIP3    H243871   0.075   2.796  17.004  1.5809 -0.0578  1.1330
 7486TIP3   OH243872   5.597   2.781   5.640 -0.6165 -0.1548 -0.0034
 7486TIP3    H143873   5.640   2.862   5.665 -0.2890 -0.5867  0.8981
 7486TIP3    H243874   5.551   2.753   5.719 -0.5245 -0.9723 -0.2285
 7487TIP3   OH243875   4.602   1.472  12.119 -0.0366  0.1179 -0.2526
 7487TIP3    H143876   4.666   1.401  12.117  0.6887  0.7777 -0.9841
 7487TIP3    H243877   4.623   1.526  12.043 -1.6440  0.2009 -0.6853
 7488TIP3   OH243878   5.125   4.943  11.844 -0.3232 -0.7692  0.0237
 7488TIP3    H143879   5.136   4.888  11.767 -1.9369 -3.1669  1.3893
 7488TIP3    H243880   5.041   4.987  11.831  0.6073  0.8706 -0.7128
 7489TIP3   OH243881   1.280   3.890  15.648  0.2115  0.1800  0.0395
 7489TIP3    H143882   1.216   3.846  15.592  0.0154  0.9817 -0.3871
 7489TIP3    H243883   1.283   3.980  15.615  0.9884  0.3545  0.5515
 7490TIP3   OH243884   6.419   5.093  10.809  0.3804 -0.5215  0.2630
 7490TIP3    H143885   6.373   5.054  10.736  1.0428  0.1012 -0.5167
 7490TIP3    H243886   6.385   5.049  10.886 -1.3317 -0.2402 -0.2967
 7491TIP3   OH243887   2.308   3.688   4.061  0.4213 -0.9987  0.2729
 7491TIP3    H143888   2.270   3.608   4.098 -0.4166 -0.7704 -0.0726
 7491TIP3    H243889   2.287   3.683   3.967  1.7648 -1.1477 -0.0407
 7492TIP3   OH243890   5.110   6.679   1.593  0.6160 -0.3948  0.4380
 7492TIP3    H143891   5.066   6.673   1.508 -0.4687 -0.7466  1.0037
 7492TIP3    H243892   5.062   6.619   1.650  1.4736 -0.3459  1.2428
 7493TIP3   OH243893   2.409   6.423  16.855  0.1093 -0.6549  0.3077
 7493TIP3    H143894   2.420   6.335  16.820  1.8355  0.0110 -1.0126
 7493TIP3    H243895   2.498   6.459  16.858 -0.5795  1.1726  0.3984
 7494TIP3   OH243896   5.930   4.560  14.413  0.0341 -0.0474  0.0432
 7494TIP3    H143897   5.902   4.635  14.468 -1.5113 -1.2725  1.0310
 7494TIP3    H243898   5.854   4.542  14.358  1.1327  0.3549 -1.6881
 7495TIP3   OH243899   3.364   1.285  12.613 -0.4235  0.4513  0.4678
 7495TIP3    H143900   3.283   1.326  12.643 -0.9902  0.5451 -1.1454
 7495TIP3    H243901   3.424   1.358  12.600 -0.5558  0.5160  0.2234
 7496TIP3   OH243902   4.784   2.720  13.578 -0.1492  0.4700 -0.2235
 7496TIP3    H143903   4.752   2.808  13.557  1.0919  0.6501 -1.5042
 7496TIP3    H243904   4.748   2.665  13.508 -1.1243 -0.1132  0.7074
 7497TIP3   OH243905   3.091   6.129   5.039 -0.2487  0.1002  0.1610
 7497TIP3    H143906   3.176   6.168   5.057 -0.8296  1.5749 -0.1265
 7497TIP3    H243907   3.078   6.140   4.945 -0.4351 -0.7991  0.0746
 7498TIP3   OH243908   5.784   5.876  11.388  0.0952  0.3669  0.3632
 7498TIP3    H143909   5.868   5.916  11.409  0.4331 -1.2350  2.4504
 7498TIP3    H243910   5.801   5.782  11.394 -1.1843 -0.0752 -2.0727
 7499TIP3   OH243911   0.604   4.704   4.290 -0.2436  0.8524  0.3840
 7499TIP3    H143912   0.522   4.667   4.256 -0.2470  0.9194  0.3167
 7499TIP3    H243913   0.654   4.726   4.212  0.5923 -0.8157  0.4239
 7500TIP3   OH243914   1.512   4.375   3.974 -0.4597 -0.5102  0.0724
 7500TIP3    H143915   1.569   4.303   4.002  0.0042  0.1230  0.7963
 7500TIP3    H243916   1.460   4.395   4.052  0.4105  0.8653  0.3348
 7501TIP3   OH243917   3.857   3.092  14.484  0.4494  0.4929  0.1517
 7501TIP3    H143918   3.895   3.023  14.539 -0.0941 -0.2472 -0.3773
 7501TIP3    H243919   3.897   3.173  14.517  0.4290  0.0360  1.3769
 7502TIP3   OH243920   4.744   0.547  13.437  0.1371  0.0597  0.1870
 7502TIP3    H143921   4.826   0.518  13.476  1.4255  2.9786 -0.0421
 7502TIP3    H243922   4.692   0.580  13.510 -1.0395 -1.9939  0.3651
 7503TIP3   OH243923   5.304   1.766  15.893  0.3144  0.2316 -0.5538
 7503TIP3    H143924   5.259   1.734  15.971  0.1748  0.4190 -0.5582
 7503TIP3    H243925   5.379   1.707  15.883  0.7236  0.6206  0.1142
 7504TIP3   OH243926   3.371   5.300   0.269  0.0133  0.3597  0.4543
 7504TIP3    H143927   3.276   5.310   0.268 -0.0011  0.2041 -0.4669
 7504TIP3    H243928   3.404   5.377   0.223  0.4543  1.3666  2.3646
 7505TIP3   OH243929   0.231   4.873   2.574 -0.1079  0.5357  0.5069
 7505TIP3    H143930   0.167   4.873   2.503  2.5084 -2.8948 -2.2193
 7505TIP3    H243931   0.192   4.817   2.641 -2.5086  3.6252  1.9648
 7506TIP3   OH243932   0.468   4.641   3.363 -0.6380 -0.0894  0.3601
 7506TIP3    H143933   0.445   4.691   3.441  0.3089 -0.9390  1.2124
 7506TIP3    H243934   0.393   4.584   3.347 -0.9737  0.3312  0.4490
 7507TIP3   OH243935   4.920   5.370   1.354  0.0671 -0.1253  0.1842
 7507TIP3    H143936   4.862   5.428   1.404 -0.1785 -0.4135  0.2353
 7507TIP3    H243937   5.002   5.420   1.346  0.9192 -0.9157  2.7735
 7508TIP3   OH243938   3.558   3.489   1.872 -0.1171 -0.6612 -0.7769
 7508TIP3    H143939   3.596   3.407   1.840 -0.2300 -0.0952 -2.4296
 7508TIP3    H243940   3.482   3.504   1.816  0.7921  1.3586 -1.5602
 7509TIP3   OH243941   1.181   3.739   6.017 -0.3865  0.1578 -0.1752
 7509TIP3    H143942   1.191   3.834   6.009  1.9347 -0.0292 -0.0790
 7509TIP3    H243943   1.100   3.727   6.066  0.4529  2.1874  1.8704
 7510TIP3   OH243944   4.310   1.791   0.533 -1.1018 -0.4587 -0.1008
 7510TIP3    H143945   4.312   1.886   0.546 -0.4399 -0.5819  0.8067
 7510TIP3    H243946   4.217   1.771   0.519 -0.9949  0.6227 -3.0196
 7511TIP3   OH243947   1.165   5.261   5.709  0.0649 -0.5657  0.8605
 7511TIP3    H143948   1.205   5.328   5.653 -0.9880 -0.7670 -0.2007
 7511TIP3    H243949   1.229   5.191   5.713  0.2803 -0.4236  0.1026
 7512TIP3   OH243950   5.267   0.530   5.739  0.0646 -0.3094  0.6617
 7512TIP3    H143951   5.297   0.444   5.765  0.6469  0.3610  2.3094
 7512TIP3    H243952   5.302   0.590   5.805 -1.4471  1.0312  0.3261
 7513TIP3   OH243953   3.418   2.724   5.746 -0.2451 -0.0977 -0.0979
 7513TIP3    H143954   3.373   2.745   5.664 -0.4941  0.8212  0.2590
 7513TIP3    H243955   3.449   2.635   5.734 -1.1430 -0.3326 -0.8135
 7514TIP3   OH243956   6.495   5.489   1.330 -0.2829  0.7083 -0.6470
 7514TIP3    H143957   6.529   5.469   1.418 -1.2052 -0.7492 -0.5921
 7514TIP3    H243958   6.456   5.575   1.339 -1.7993 -0.0747  0.8354
 7515TIP3   OH243959   1.360   2.143  15.746  0.0538  0.4418  0.1070
 7515TIP3    H143960   1.311   2.220  15.775  0.5208  0.5511  0.6261
 7515TIP3    H243961   1.413   2.118  15.822 -0.5778 -0.8011  0.1779
 7516TIP3   OH243962   4.042   5.667   2.494  0.0625  0.2937 -0.0716
 7516TIP3    H143963   3.986   5.633   2.424 -1.1722  0.1183  0.9519
 7516TIP3    H243964   4.119   5.609   2.494  0.8681  1.2794 -2.2895
 7517TIP3   OH243965   4.021   1.825   4.175 -0.5556 -0.6144 -0.0655
 7517TIP3    H143966   4.003   1.906   4.127  1.7170  0.1922  0.3546
 7517TIP3    H243967   4.068   1.770   4.113  2.1611  0.3280  1.0235
 7518TIP3   OH243968   1.987   1.550   4.007 -0.1434  0.2075  0.0705
 7518TIP3    H143969   2.006   1.462   4.040  1.5080  0.8222  0.8560
 7518TIP3    H243970   2.040   1.557   3.927 -0.0573  0.5870  0.1618
 7519TIP3   OH243971   5.599   0.645   4.283 -0.0083 -0.1175  0.3707
 7519TIP3    H143972   5.683   0.645   4.239 -0.7191 -0.4290 -1.0420
 7519TIP3    H243973   5.538   0.605   4.220 -0.9176 -1.3352  1.9388
 7520TIP3   OH243974   6.479   5.722  11.460  0.3742 -0.3310 -0.7327
 7520TIP3    H143975   6.436   5.808  11.458  0.7365 -0.1539 -1.0405
 7520TIP3    H243976   6.517   5.717  11.548 -0.3371 -0.5239 -0.4295
 7521TIP3   OH243977   1.289   4.269  13.993  0.0874 -0.1486 -0.1581
 7521TIP3    H143978   1.313   4.190  13.943 -0.9451 -1.0213  0.6781
 7521TIP3    H243979   1.219   4.309  13.943  1.2749  0.8337 -1.1101
 7522TIP3   OH243980   1.133   5.171   1.967  0.0815 -0.1087 -0.0459
 7522TIP3    H143981   1.052   5.216   1.942 -0.1582 -0.7123 -0.3871
 7522TIP3    H243982   1.150   5.199   2.057  0.4445  1.3798 -0.5535
 7523TIP3   OH243983   1.384   2.988  10.531 -0.5029  0.5797 -0.0099
 7523TIP3    H143984   1.407   3.048  10.460 -1.5187  0.7214 -0.2276
 7523TIP3    H243985   1.372   2.904  10.488 -0.7269  0.5816  0.0471
 7524TIP3   OH243986   6.222   2.005   0.324 -0.3492 -0.2696 -0.7537
 7524TIP3    H143987   6.296   2.066   0.314 -1.3208  0.8231 -1.5550
 7524TIP3    H243988   6.160   2.052   0.380 -0.6254 -1.0014 -0.4404
 7525TIP3   OH243989   5.348   0.309   2.074 -0.2402  0.4319 -0.0643
 7525TIP3    H143990   5.280   0.348   2.020  0.3982  0.3266 -0.9674
 7525TIP3    H243991   5.422   0.370   2.067  0.4471 -0.4512 -0.7540
 7526TIP3   OH243992   2.882   0.887  13.669 -0.5193  0.1710 -0.1696
 7526TIP3    H143993   2.867   0.980  13.652 -2.3476 -0.0232  0.1021
 7526TIP3    H243994   2.814   0.864  13.733  1.0808 -0.9324  1.2200
 7527TIP3   OH243995   1.217   5.499   4.443 -0.0293 -0.4988  0.1462
 7527TIP3    H143996   1.137   5.550   4.436 -0.5906 -1.4227 -0.3697
 7527TIP3    H243997   1.257   5.528   4.525 -0.5244  0.4680  0.0600
 7528TIP3   OH243998   4.741   5.766  12.766 -0.1283 -0.7571  0.5857
 7528TIP3    H143999   4.822   5.766  12.817 -0.3484 -0.0011  0.9434
 7528TIP3    H244000   4.683   5.827  12.813 -0.2384  0.1640 -0.7113
 7529TIP3   OH244001   6.212   3.799   5.036 -0.2105  0.0214 -0.0570
 7529TIP3    H144002   6.219   3.719   5.089 -1.6034 -0.9176 -1.2030
 7529TIP3    H244003   6.239   3.772   4.948  1.5676  1.4244  0.0030
 7530TIP3   OH244004   1.321   4.635  11.204  0.0172 -0.0239 -0.6816
 7530TIP3    H144005   1.238   4.661  11.165  1.1872  1.2208 -2.4870
 7530TIP3    H244006   1.360   4.717  11.234 -0.2807 -0.8086  2.1254
 7531TIP3   OH244007   6.752   0.697   5.012  0.1936  0.1316  0.9556
 7531TIP3    H144008   6.796   0.767   4.963  1.2358 -2.1904 -1.7500
 7531TIP3    H244009   6.817   0.667   5.075  0.7783 -0.1808  0.2178
 7532TIP3   OH244010   4.255   1.612   0.815  0.2223 -0.1507  0.0892
 7532TIP3    H144011   4.321   1.564   0.764 -0.1392  2.0136 -2.6154
 7532TIP3    H244012   4.302   1.686   0.853  0.0840 -0.7144  1.4264
 7533TIP3   OH244013   6.150   5.119   3.850  0.5217  0.3355  0.1471
 7533TIP3    H144014   6.084   5.082   3.791  0.5890  1.3930 -0.6276
 7533TIP3    H244015   6.200   5.043   3.881  0.0704 -0.3054 -0.6500
 7534TIP3   OH244016   5.237   1.198   1.506 -0.3015 -0.0277 -0.3731
 7534TIP3    H144017   5.246   1.105   1.485 -1.7758 -0.1733 -0.4989
 7534TIP3    H244018   5.257   1.203   1.600 -1.5917 -0.7334 -0.0337
 7535TIP3   OH244019   2.735   5.957   0.733 -1.1525  0.5596  0.2250
 7535TIP3    H144020   2.742   5.923   0.822  0.4911 -0.6432 -0.3158
 7535TIP3    H244021   2.755   6.051   0.741 -2.8658  0.8782  1.3297
 7536TIP3   OH244022   6.085   1.116   2.917  0.7673 -0.3476 -0.9117
 7536TIP3    H144023   6.145   1.189   2.903  0.0053  1.0618  2.1897
 7536TIP3    H244024   5.998   1.153   2.903  0.3311 -0.3483  1.3171
 7537TIP3   OH244025   3.756   0.955   4.601 -0.4850  0.4687  0.3586
 7537TIP3    H144026   3.813   0.886   4.568 -1.6105  0.5647 -1.9694
 7537TIP3    H244027   3.675   0.909   4.625 -0.7636  0.7905  0.0514
 7538TIP3   OH244028   4.165   6.422   0.808 -0.1337  0.0713 -0.2430
 7538TIP3    H144029   4.140   6.494   0.750  1.4832 -0.7757 -2.0641
 7538TIP3    H244030   4.217   6.363   0.754  0.3898 -1.4215  1.7534
 7539TIP3   OH244031   0.260   2.193   5.555  0.0475  0.7406  0.6081
 7539TIP3    H144032   0.227   2.124   5.613  1.9877  0.2088  1.1723
 7539TIP3    H244033   0.265   2.270   5.611  0.9567  0.4795  0.9181
 7540TIP3   OH244034   1.742   5.090  15.360 -0.2004 -0.3785  0.1045
 7540TIP3    H144035   1.715   5.061  15.447 -0.1399 -2.0965 -0.4183
 7540TIP3    H244036   1.728   5.014  15.304 -1.0206  0.9383 -1.5725
 7541TIP3   OH244037   6.055   6.515   3.572 -0.0255 -0.0698 -0.5394
 7541TIP3    H144038   6.100   6.435   3.543 -0.7016 -0.5936 -0.1698
 7541TIP3    H244039   6.074   6.579   3.504  0.4517 -0.5707 -0.8921
 7542TIP3   OH244040   6.421   4.960  11.861  0.5143  0.0496 -0.1129
 7542TIP3    H144041   6.422   5.010  11.779 -3.4549  1.6738  0.5878
 7542TIP3    H244042   6.401   4.871  11.833 -0.8962  0.5959 -1.0143
 7543TIP3   OH244043   5.261   3.369  16.120  0.5566  0.5028  0.1686
 7543TIP3    H144044   5.180   3.334  16.158 -0.6870 -0.3433 -2.9991
 7543TIP3    H244045   5.331   3.322  16.166 -0.7898 -0.0863  1.7148
 7544TIP3   OH244046   3.199   6.716  12.743 -0.1092  0.4436  0.4598
 7544TIP3    H144047   3.213   6.668  12.825 -1.3062 -1.7052 -0.5054
 7544TIP3    H244048   3.116   6.762  12.757  0.8513  2.0037  1.2512
 7545TIP3   OH244049   4.719   1.674  15.857 -0.1477 -0.0354 -0.5265
 7545TIP3    H144050   4.805   1.642  15.884  0.0699 -0.0063 -1.1581
 7545TIP3    H244051   4.663   1.662  15.934  0.0422 -1.4563 -0.5828
 7546TIP3   OH244052   2.800   6.692  16.035 -0.0543 -0.0285 -0.0939
 7546TIP3    H144053   2.862   6.756  15.999  1.2457 -1.3978 -0.3651
 7546TIP3    H244054   2.716   6.714  15.994  0.1618  1.9950  0.4365
 7547TIP3   OH244055   5.668   2.109  15.586  0.2943 -0.0322 -0.4263
 7547TIP3    H144056   5.724   2.032  15.594 -0.2955 -0.2850  2.5647
 7547TIP3    H244057   5.580   2.074  15.578  0.2442  0.3742 -1.8783
 7548TIP3   OH244058   5.744   3.925  10.473  0.2134 -0.4557  0.3878
 7548TIP3    H144059   5.660   3.891  10.503 -0.1162 -2.0799 -2.0801
 7548TIP3    H244060   5.783   3.966  10.551 -1.4843 -2.3483  2.3621
 7549TIP3   OH244061   3.754   1.109   4.016 -0.4537 -0.3338 -0.0738
 7549TIP3    H144062   3.769   1.086   4.107 -1.6455  1.7001  0.6971
 7549TIP3    H244063   3.725   1.027   3.975 -2.9248 -0.6800  2.1086
 7550TIP3   OH244064   3.392   4.803  10.782  0.2095  0.3407  0.3207
 7550TIP3    H144065   3.480   4.790  10.817  0.3127  0.6934  0.1969
 7550TIP3    H244066   3.381   4.732  10.719 -0.7462 -1.5529  2.4624
 7551TIP3   OH244067   0.445   2.389  14.433  0.1022  0.4601  0.2659
 7551TIP3    H144068   0.467   2.481  14.444 -0.9288  0.7075  0.3461
 7551TIP3    H244069   0.461   2.371  14.340  0.4710  0.6747  0.2903
 7552TIP3   OH244070   4.570   3.117   2.186 -0.4310 -0.5355  0.2667
 7552TIP3    H144071   4.611   3.110   2.100 -0.3718  0.5013  0.1941
 7552TIP3    H244072   4.529   3.032   2.200 -1.5130 -0.3354 -1.3347
 7553TIP3   OH244073   5.763   2.649   4.646 -0.1477 -0.4011 -0.7915
 7553TIP3    H144074   5.711   2.669   4.724  1.0707  0.9677 -0.2890
 7553TIP3    H244075   5.710   2.682   4.573 -1.3508 -1.8000 -0.5877
 7554TIP3   OH244076   5.101   3.052  15.028 -0.4197 -0.5833  0.8783
 7554TIP3    H144077   5.193   3.059  15.051 -0.8242 -0.6200  2.6957
 7554TIP3    H244078   5.065   3.139  15.047 -0.3314  0.2487 -2.2408
 7555TIP3   OH244079   0.791   2.004  16.991 -0.5830  0.7448  0.4887
 7555TIP3    H144080   0.784   1.925  17.045  0.7276  1.1758  1.3344
 7555TIP3    H244081   0.710   2.051  17.009 -1.5558 -0.5473 -0.3104
 7556TIP3   OH244082   6.567   5.939  13.304  0.0606 -0.2309 -0.0316
 7556TIP3    H144083   6.606   5.852  13.311  0.3794 -0.1685 -0.8884
 7556TIP3    H244084   6.581   5.964  13.212  0.4107  0.9126  0.3113
 7557TIP3   OH244085   0.447   0.568  11.410  0.6547  0.4870 -0.7452
 7557TIP3    H144086   0.434   0.637  11.474 -0.3713  0.0900 -0.5090
 7557TIP3    H244087   0.480   0.494  11.461  2.8366  1.0874 -1.1499
 7558TIP3   OH244088   1.798   0.793  12.745 -0.4748  0.3493  0.1535
 7558TIP3    H144089   1.823   0.794  12.653 -0.5677 -1.9946  0.0242
 7558TIP3    H244090   1.862   0.849  12.789  0.3158  0.5240 -1.1826
 7559TIP3   OH244091   6.079   0.604   4.506  0.1009  0.6578  0.0526
 7559TIP3    H144092   6.165   0.625   4.472 -0.0415 -0.0595 -0.7791
 7559TIP3    H244093   6.018   0.653   4.451 -0.0841  0.2271 -0.1295
 7560TIP3   OH244094   6.318   5.031   3.639  0.3574 -0.0181  0.4364
 7560TIP3    H144095   6.363   5.110   3.670 -1.6170  0.7895  1.4241
 7560TIP3    H244096   6.323   4.970   3.713 -0.2064  0.1071  0.5832
 7561TIP3   OH244097   6.169   5.738  11.694  0.8880  0.3440  0.4760
 7561TIP3    H144098   6.133   5.733  11.605 -0.5682  0.1529  1.0338
 7561TIP3    H244099   6.103   5.787  11.743  1.8931  0.8386  1.3588
 7562TIP3   OH244100   3.996   1.709  13.420  0.1395  0.9319 -0.3682
 7562TIP3    H144101   3.985   1.617  13.445  0.2389  1.2230  0.7995
 7562TIP3    H244102   3.921   1.754  13.457 -0.3783  1.2108 -1.6798
 7563TIP3   OH244103   3.164   1.798  13.054  0.4193  0.1701 -0.2148
 7563TIP3    H144104   3.228   1.778  12.986 -0.4228  0.2164 -1.0499
 7563TIP3    H244105   3.163   1.720  13.110 -0.0741 -0.5897 -1.2339
 7564TIP3   OH244106   4.006   1.642  11.265 -0.1093  0.0019 -0.6403
 7564TIP3    H144107   4.081   1.604  11.312  0.9132  0.8257 -1.5428
 7564TIP3    H244108   3.995   1.729  11.304 -0.4725 -0.0423 -0.6438
 7565TIP3   OH244109   2.589   2.933   3.752  0.2468 -0.0777  0.3724
 7565TIP3    H144110   2.647   2.889   3.690 -0.8562 -2.3097  0.8280
 7565TIP3    H244111   2.568   3.016   3.710  2.1659 -0.0650 -0.6886
 7566TIP3   OH244112   4.027   2.022   5.445  0.0120  0.4688 -0.1577
 7566TIP3    H144113   4.022   2.117   5.457  1.7328  0.7431 -1.3828
 7566TIP3    H244114   3.982   2.007   5.362  0.5709  0.3280 -0.4338
 7567TIP3   OH244115   2.808   6.553   2.063 -0.2970  0.1541  0.0382
 7567TIP3    H144116   2.755   6.592   2.132  1.1612 -0.8032  1.7698
 7567TIP3    H244117   2.875   6.619   2.044 -0.0586 -0.0105  0.3056
 7568TIP3   OH244118   2.954   3.770  15.227 -0.3834  0.0023 -0.4725
 7568TIP3    H144119   2.936   3.828  15.153  0.4022  0.1539 -0.5535
 7568TIP3    H244120   3.048   3.778  15.242 -0.2847 -1.1492 -0.3951
 7569TIP3   OH244121   5.537   4.967  16.804 -0.6505  0.1623 -0.5748
 7569TIP3    H144122   5.564   5.019  16.879 -0.4179 -1.5085  0.5431
 7569TIP3    H244123   5.506   5.032  16.740  1.6550  1.8520 -0.1475
 7570TIP3   OH244124   0.741   1.838   5.476 -0.2373  0.3421 -0.1809
 7570TIP3    H144125   0.692   1.757   5.463 -0.4077  0.2615  0.8405
 7570TIP3    H244126   0.674   1.903   5.500  0.0483  0.4519  0.3309
 7571TIP3   OH244127   0.899   0.815   3.785 -0.3114 -0.2407 -0.8094
 7571TIP3    H144128   0.871   0.731   3.750 -0.1531 -1.3939  1.5837
 7571TIP3    H244129   0.960   0.792   3.855  0.7765  1.9378 -0.9715
 7572TIP3   OH244130   1.292   1.155  14.729 -0.4980  0.7916  0.4092
 7572TIP3    H144131   1.278   1.246  14.700 -0.0763  0.9297  0.6342
 7572TIP3    H244132   1.367   1.125  14.679 -2.2930 -0.3855 -1.7546
 7573TIP3   OH244133   0.355   2.257  10.607  0.3168 -0.6325 -0.7937
 7573TIP3    H144134   0.445   2.234  10.582  0.8003  1.1469 -0.8368
 7573TIP3    H244135   0.331   2.329  10.548 -0.2665  0.4732  0.7108
 7574TIP3   OH244136   1.711   3.378   2.992  0.1091  0.0521 -0.4917
 7574TIP3    H144137   1.615   3.369   2.995  0.2645 -1.9208  0.1659
 7574TIP3    H244138   1.726   3.472   2.981 -1.8916  0.4809  0.0068
 7575TIP3   OH244139   2.976   1.249   2.501 -0.1197 -0.6821 -0.4027
 7575TIP3    H144140   3.009   1.202   2.578  0.0406 -0.5882 -0.4125
 7575TIP3    H244141   2.905   1.194   2.468  1.1820 -1.8325 -1.4439
 7576TIP3   OH244142   2.314   1.672  16.055 -0.3831 -0.6001  0.3514
 7576TIP3    H144143   2.301   1.579  16.035 -3.3676 -0.3100  0.4295
 7576TIP3    H244144   2.339   1.674  16.147 -1.3785 -1.3268  0.6600
 7577TIP3   OH244145   0.751   3.592  16.473  0.7778  0.4863  0.2412
 7577TIP3    H144146   0.688   3.535  16.520  2.0250 -0.2112  1.1299
 7577TIP3    H244147   0.700   3.669  16.450 -0.0688  0.6322  2.3102
 7578TIP3   OH244148   1.903   2.900  14.247  0.5709  0.3217 -0.2535
 7578TIP3    H144149   1.844   2.975  14.245  1.2924  0.9313  0.7015
 7578TIP3    H244150   1.991   2.938  14.240  0.9368 -0.4403  0.0663
 7579TIP3   OH244151   5.044   2.834  14.390 -0.2854  0.1708  0.2422
 7579TIP3    H144152   5.112   2.817  14.454 -1.5688 -2.8959  0.9885
 7579TIP3    H244153   5.089   2.835  14.306  0.8692 -0.2472  0.8423
 7580TIP3   OH244154   3.271   1.315   4.987  0.0059 -0.4526 -0.5877
 7580TIP3    H144155   3.318   1.311   5.070  2.8695  0.0249 -2.0631
 7580TIP3    H244156   3.183   1.342   5.011 -0.2897 -3.4624  2.5817
 7581TIP3   OH244157   3.949   1.433   4.477 -0.1758 -0.3726  0.6246
 7581TIP3    H144158   3.939   1.387   4.561 -2.2755  2.5438  2.1697
 7581TIP3    H244159   3.865   1.477   4.464  0.4117  0.0220 -2.6252
 7582TIP3   OH244160   2.925   5.487   2.493 -0.0615 -0.1235  0.2926
 7582TIP3    H144161   3.005   5.476   2.441 -0.5780  0.2169 -0.5837
 7582TIP3    H244162   2.880   5.403   2.486 -0.4010  0.1021 -0.2774
 7583TIP3   OH244163   3.516   2.945   2.533 -0.1536  0.2576 -0.0251
 7583TIP3    H144164   3.539   2.937   2.441  0.4343  1.5146 -0.0061
 7583TIP3    H244165   3.485   3.035   2.543  0.0616  0.2316  1.0555
 7584TIP3   OH244166   1.929   5.514  14.040  0.0272 -0.1318 -0.2473
 7584TIP3    H144167   1.887   5.543  13.960 -1.1177 -1.5506 -0.2046
 7584TIP3    H244168   1.928   5.419  14.035  0.3452 -0.2457  1.2285
 7585TIP3   OH244169   0.234   5.607  11.603 -0.0245  0.3578 -0.1899
 7585TIP3    H144170   0.141   5.593  11.617  0.2074  0.1829  1.2699
 7585TIP3    H244171   0.238   5.667  11.528 -1.2039 -2.0521 -2.3568
 7586TIP3   OH244172   2.937   4.991  13.069  0.0387  0.4228  0.1660
 7586TIP3    H144173   2.921   5.079  13.035 -1.1761  0.3325  0.4511
 7586TIP3    H244174   3.027   4.971  13.044  0.0212  1.3835 -0.7073
 7587TIP3   OH244175   2.648   0.723   1.054 -0.5835 -0.4943  0.0888
 7587TIP3    H144176   2.699   0.804   1.058 -0.3703 -0.4415 -2.1539
 7587TIP3    H244177   2.711   0.654   1.077  1.0612 -0.5655 -3.8246
 7588TIP3   OH244178   2.267   0.376   0.286 -0.6578  0.6544  0.2180
 7588TIP3    H144179   2.175   0.400   0.272 -0.5660  0.0358 -1.8720
 7588TIP3    H244180   2.316   0.446   0.241  0.0470  2.1160  3.0386
 7589TIP3   OH244181   6.510   6.035   0.196 -0.8615  0.0877 -0.7199
 7589TIP3    H144182   6.539   6.041   0.287 -2.6752 -0.9388 -0.0118
 7589TIP3    H244183   6.503   6.125   0.167 -0.6679  0.4462  0.3022
 7590TIP3   OH244184   2.860   0.537   5.128 -0.1111  0.1300 -0.1124
 7590TIP3    H144185   2.798   0.609   5.131 -0.1211  0.1056  0.3017
 7590TIP3    H244186   2.933   0.567   5.182  0.2895  0.2055 -0.6813
 7591TIP3   OH244187   1.585   3.576  16.641  0.1168 -0.4639  0.0953
 7591TIP3    H144188   1.574   3.667  16.614  0.6558 -1.0654 -2.4084
 7591TIP3    H244189   1.629   3.581  16.726 -0.6764  1.5969  0.4404
 7592TIP3   OH244190   1.864   3.609   3.383 -0.0966 -0.2938 -0.1245
 7592TIP3    H144191   1.808   3.599   3.461  0.0490 -2.6123 -0.2529
 7592TIP3    H244192   1.881   3.703   3.378  1.0545 -0.1494  3.4959
 7593TIP3   OH244193   2.521   2.153  16.342  0.1283 -0.3396  0.0441
 7593TIP3    H144194   2.498   2.137  16.433  1.0369 -0.5401  0.2598
 7593TIP3    H244195   2.460   2.220  16.311  0.9198  1.0247  1.3226
 7594TIP3   OH244196   3.666   0.611   4.076  0.3362 -0.1214  0.4922
 7594TIP3    H144197   3.619   0.639   3.998  1.7541 -0.1767 -0.4265
 7594TIP3    H244198   3.731   0.549   4.043 -0.4125 -1.7973  2.0089
 7595TIP3   OH244199   2.058   6.070   4.174  0.2957  0.1754  0.2571
 7595TIP3    H144200   1.987   6.099   4.116  1.4465  1.4147 -0.6057
 7595TIP3    H244201   2.018   6.003   4.229 -1.7110  1.2810  0.2493
 7596TIP3   OH244202   5.259   5.983  12.344  0.2913 -0.2245 -0.2408
 7596TIP3    H144203   5.349   5.989  12.312 -0.0461 -0.1709 -1.2085
 7596TIP3    H244204   5.207   6.025  12.276 -0.3972  0.3600  0.6354
 7597TIP3   OH244205   6.649   2.742  15.123 -0.0006 -0.0720  0.1383
 7597TIP3    H144206   6.704   2.771  15.195  0.5627 -1.4835  0.3062
 7597TIP3    H244207   6.695   2.772  15.044  0.1467  0.1847  0.3204
 7598TIP3   OH244208   3.078   4.250  15.814  1.0518 -0.2460  0.3489
 7598TIP3    H144209   3.008   4.200  15.773  0.7853  0.2642  0.1621
 7598TIP3    H244210   3.058   4.341  15.790  2.3907 -0.1874 -0.6773
 7599TIP3   OH244211   3.532   1.015   2.241  0.1654  0.4456 -0.6884
 7599TIP3    H144212   3.565   1.099   2.273  0.8874  0.0335 -0.3266
 7599TIP3    H244213   3.526   1.026   2.146  0.0882  0.9616 -0.6272
 7600TIP3   OH244214   4.442   1.189  13.096  0.1316 -0.0171  0.6408
 7600TIP3    H144215   4.532   1.163  13.080  0.4336  1.2446  0.1370
 7600TIP3    H244216   4.410   1.127  13.162  0.9623 -1.2392 -0.0648
 7601TIP3   OH244217   6.576   4.227  14.496  0.5822 -0.4405 -0.3665
 7601TIP3    H144218   6.508   4.172  14.455  2.0193 -0.8939 -2.3209
 7601TIP3    H244219   6.626   4.261  14.422  1.5605  1.1239  0.9559
 7602TIP3   OH244220   5.158   1.573   1.664 -0.2426  0.7472 -0.0722
 7602TIP3    H144221   5.087   1.512   1.685 -2.0844  1.8105 -2.6816
 7602TIP3    H244222   5.237   1.519   1.666 -1.2154 -0.7442  1.7646
 7603TIP3   OH244223   1.325   2.792  13.974  0.1995 -0.1372  0.3850
 7603TIP3    H144224   1.364   2.818  13.890  0.3931  0.6002  0.6958
 7603TIP3    H244225   1.393   2.741  14.018  0.4872  0.3771  0.5414
 7604TIP3   OH244226   5.468   3.629  12.415 -0.1579  0.5135  0.1356
 7604TIP3    H144227   5.435   3.570  12.347  0.4603 -1.0149  1.0976
 7604TIP3    H244228   5.390   3.671  12.451 -1.1006 -2.3835  1.7919
 7605TIP3   OH244229   6.415   5.319   2.754 -0.1882 -0.1418 -0.1609
 7605TIP3    H144230   6.358   5.242   2.761 -0.3407  0.0236  0.5493
 7605TIP3    H244231   6.381   5.379   2.821 -1.1343  1.2501 -1.8229
 7606TIP3   OH244232   1.811   4.197   5.304 -0.6171 -0.2250  0.9106
 7606TIP3    H144233   1.842   4.145   5.379  0.8656 -0.0334  0.4601
 7606TIP3    H244234   1.890   4.236   5.268 -1.2570 -0.6283 -1.0170
 7607TIP3   OH244235   2.460   5.849   6.072 -0.0836 -0.1265  0.2387
 7607TIP3    H144236   2.445   5.943   6.085  1.3170  0.3957 -1.4719
 7607TIP3    H244237   2.422   5.831   5.986  0.2760 -0.9723  0.2523
 7608TIP3   OH244238   1.926   1.592   5.394 -0.1266 -0.1208  0.0243
 7608TIP3    H144239   2.006   1.573   5.344  0.6224 -1.5472  1.6327
 7608TIP3    H244240   1.891   1.672   5.355  1.1949 -0.3706 -1.7839
 7609TIP3   OH244241   3.840   5.580  11.369 -0.0789 -0.3512 -0.4468
 7609TIP3    H144242   3.930   5.614  11.376 -0.4835  0.6668  0.0033
 7609TIP3    H244243   3.849   5.487  11.387  0.9591 -0.3469 -0.8699
 7610TIP3   OH244244   3.460   3.001  15.377 -0.7099  0.4527  0.3575
 7610TIP3    H144245   3.527   3.052  15.334  0.2116  0.2920  1.5479
 7610TIP3    H244246   3.404   3.065  15.420 -0.1343  0.5277  1.0202
 7611TIP3   OH244247   0.859   5.595  14.622  0.6804 -0.4171  0.9510
 7611TIP3    H144248   0.859   5.670  14.563 -0.8589 -1.6020 -0.6507
 7611TIP3    H244249   0.791   5.616  14.687  0.8426 -0.0607  1.0071
 7612TIP3   OH244250   3.924   1.119  16.205  0.4742 -0.2331 -0.0551
 7612TIP3    H144251   4.001   1.064  16.221 -1.0066 -2.0428  1.1673
 7612TIP3    H244252   3.851   1.058  16.199 -0.7992  1.3571 -2.1141
 7613TIP3   OH244253   3.030   3.956  12.051 -0.1554  0.1689  0.1556
 7613TIP3    H144254   3.005   3.930  12.140  2.3980 -1.8919  0.4096
 7613TIP3    H244255   2.955   4.005  12.018 -1.7061 -0.0803  2.9769
 7614TIP3   OH244256   5.173   3.749  13.901  0.2168  0.0416 -0.2756
 7614TIP3    H144257   5.245   3.740  13.963 -0.9937 -1.0010  1.0369
 7614TIP3    H244258   5.152   3.842  13.902 -0.0217 -0.0059  1.1990
 7615TIP3   OH244259   3.485   4.546   2.669 -0.2268  0.1028  0.3983
 7615TIP3    H144260   3.467   4.633   2.634 -0.5417 -0.0070  0.2799
 7615TIP3    H244261   3.515   4.562   2.759  0.6638  0.3894  0.0610
 7616TIP3   OH244262   6.329   3.516  14.225  0.1998 -0.7628 -0.1688
 7616TIP3    H144263   6.310   3.603  14.261 -0.9272 -0.5381 -1.2370
 7616TIP3    H244264   6.423   3.516  14.209  0.1909  0.3146 -0.2826
 7617TIP3   OH244265   2.112   1.899   0.958  0.1649  0.3456 -0.5890
 7617TIP3    H144266   2.023   1.882   0.987  0.8335 -2.0456  0.3224
 7617TIP3    H244267   2.104   1.974   0.899 -2.2865  0.7744  0.1716
 7618TIP3   OH244268   4.688   5.194   4.055  0.0174  0.4061  0.5516
 7618TIP3    H144269   4.754   5.230   3.995 -0.6240  1.5483  0.5219
 7618TIP3    H244270   4.613   5.174   3.999  0.1136 -0.3660  0.6794
 7619TIP3   OH244271   0.181   1.858  10.918 -0.4440  0.0619  0.1692
 7619TIP3    H144272   0.216   1.904  10.842 -0.8173 -0.6194 -0.4320
 7619TIP3    H244273   0.165   1.926  10.983 -0.3637  0.6889 -0.4637
 7620TIP3   OH244274   4.850   6.568  16.179  0.2243 -0.0623 -0.2701
 7620TIP3    H144275   4.756   6.563  16.201 -0.1331  1.1023 -1.4058
 7620TIP3    H244276   4.861   6.503  16.110 -0.0603  0.7288 -1.0789
 7621TIP3   OH244277   5.494   3.926   0.894 -0.0926 -0.0979  0.1638
 7621TIP3    H144278   5.577   3.879   0.893 -0.1270 -0.2451  1.5703
 7621TIP3    H244279   5.500   3.984   0.970 -1.0243  0.3644 -0.0890
 7622TIP3   OH244280   1.134   0.988   3.677  0.7654 -0.5979  0.1914
 7622TIP3    H144281   1.203   0.959   3.618  0.3480 -0.8081 -0.2069
 7622TIP3    H244282   1.091   0.907   3.706  2.0383 -0.6328  2.1653
 7623TIP3   OH244283   5.087   0.595  16.209 -0.6599  1.2256 -0.3222
 7623TIP3    H144284   5.038   0.598  16.127 -1.2256  2.7602  0.0291
 7623TIP3    H244285   5.033   0.543  16.268  0.2228 -0.7462 -1.1713
 7624TIP3   OH244286   0.093   5.461   1.361 -0.3817 -0.4370 -0.1038
 7624TIP3    H144287   0.097   5.555   1.375 -1.1268 -0.6501  1.7692
 7624TIP3    H244288   0.049   5.426   1.438 -0.8488 -2.2531 -1.1213
 7625TIP3   OH244289   1.712   4.351   0.236 -0.3313 -0.0929  0.1662
 7625TIP3    H144290   1.705   4.349   0.331 -1.2049 -0.7670  0.1111
 7625TIP3    H244291   1.621   4.346   0.206  0.0093 -1.7287 -0.7030
 7626TIP3   OH244292   6.232   1.086   4.296  0.4263  0.1969 -0.2912
 7626TIP3    H144293   6.163   1.071   4.231  1.0797 -1.0134 -0.7525
 7626TIP3    H244294   6.198   1.049   4.377  0.5939 -0.5975 -0.5704
 7627TIP3   OH244295   1.542   0.161   4.890 -0.0708  0.4910 -0.0463
 7627TIP3    H144296   1.567   0.208   4.811  0.8550 -0.3934 -0.2864
 7627TIP3    H244297   1.461   0.204   4.919  1.1926  2.8352  0.2466
 7628TIP3   OH244298   6.451   3.390  13.401 -0.5801  0.8400 -0.1869
 7628TIP3    H144299   6.438   3.344  13.484  0.3229 -1.4895 -1.2250
 7628TIP3    H244300   6.495   3.471  13.424 -0.9826  0.5642  1.6680
 7629TIP3   OH244301   2.012   1.960  14.193  0.3031  0.3643  0.0871
 7629TIP3    H144302   2.048   1.897  14.255 -1.4625  1.2634  2.1249
 7629TIP3    H244303   1.961   1.906  14.132  2.1751 -0.5396 -0.7501
 7630TIP3   OH244304   0.075   0.262   4.534  0.0938 -0.2098  0.3682
 7630TIP3    H144305   0.139   0.333   4.541  0.7613 -0.7046 -0.5256
 7630TIP3    H244306  -0.009   0.304   4.555  0.5267  0.7442  0.2792
 7631TIP3   OH244307   0.742   0.298  13.687  0.1855  0.5012  0.3724
 7631TIP3    H144308   0.752   0.358  13.612  1.0954  2.6695  2.0932
 7631TIP3    H244309   0.656   0.320  13.723  0.0135 -0.0987  0.3286
 7632TIP3   OH244310   1.042   1.616  10.870 -0.3995 -0.4331  0.3918
 7632TIP3    H144311   0.954   1.650  10.884 -1.1396 -2.3296  0.6293
 7632TIP3    H244312   1.040   1.578  10.782  0.5449  0.4999 -0.0591
 7633TIP3   OH244313   6.024   2.635  12.739 -0.3302 -0.5397  0.0338
 7633TIP3    H144314   6.056   2.568  12.800  1.1028 -2.8954 -3.0234
 7633TIP3    H244315   5.929   2.634  12.749 -0.1370 -0.5545  2.3930
 7634TIP3   OH244316   2.746   4.906  10.857 -0.4205  0.3024  0.3736
 7634TIP3    H144317   2.796   4.836  10.815 -0.1667  0.2017  0.8432
 7634TIP3    H244318   2.671   4.920  10.799 -0.9514 -0.9778  0.7327
 7635TIP3   OH244319   0.649   0.361  16.643  0.1677  0.8073 -0.4670
 7635TIP3    H144320   0.568   0.403  16.616 -0.0207  0.0824 -1.0646
 7635TIP3    H244321   0.621   0.289  16.700  0.1936 -0.8283 -2.3993
 7636TIP3   OH244322   2.179   6.358   0.453  0.7413  0.0144  0.5409
 7636TIP3    H144323   2.168   6.452   0.440 -1.8580 -0.3345 -0.5567
 7636TIP3    H244324   2.185   6.322   0.364  0.7221 -0.9436  0.9068
 7637TIP3   OH244325   1.980   5.091  16.600 -0.1989  0.8137  0.7614
 7637TIP3    H144326   1.896   5.059  16.633  0.6718  0.0465  2.3329
 7637TIP3    H244327   2.045   5.053  16.659  1.2147  1.8896 -0.0454
 7638TIP3   OH244328   3.569   2.445   3.743 -0.6394 -0.1658 -0.1854
 7638TIP3    H144329   3.522   2.363   3.732 -0.1929 -0.2026 -2.3082
 7638TIP3    H244330   3.653   2.431   3.700  0.4806  0.6070  1.6512
 7639TIP3   OH244331   0.680   4.756  14.605  0.4750  0.1126  0.7873
 7639TIP3    H144332   0.771   4.765  14.633  1.1205  4.2867 -1.8064
 7639TIP3    H244333   0.671   4.817  14.532 -4.0006 -1.4476 -0.2752
 7640TIP3   OH244334   3.475   1.223  13.779  0.1502  0.0145  0.4387
 7640TIP3    H144335   3.460   1.132  13.804  0.0160 -0.3545 -0.8870
 7640TIP3    H244336   3.452   1.274  13.856 -1.1696 -0.9856  0.7336
 7641TIP3   OH244337   6.514   5.791   5.090  0.2510 -0.0744 -0.3386
 7641TIP3    H144338   6.527   5.756   5.002  0.7195 -0.5408 -0.0912
 7641TIP3    H244339   6.420   5.807   5.096  0.1382 -0.5599 -0.7326
 7642TIP3   OH244340   5.946   4.384   0.038 -0.5101 -0.1510  0.2640
 7642TIP3    H144341   6.018   4.373   0.100 -0.9647 -1.2348  0.6284
 7642TIP3    H244342   5.928   4.477   0.038 -0.6623 -0.1605  1.9678
 7643TIP3   OH244343   0.266   2.847  12.947  0.4446  0.1461 -0.2500
 7643TIP3    H144344   0.287   2.855  13.040  3.0808  1.2974 -0.8575
 7643TIP3    H244345   0.184   2.895  12.937  0.6919  0.9666  1.3138
 7644TIP3   OH244346   3.013   1.788  14.535  0.9013  0.3544  0.5613
 7644TIP3    H144347   2.943   1.775  14.471 -0.9590 -2.8311  2.9620
 7644TIP3    H244348   3.015   1.883  14.549 -0.5413  0.8613 -2.0978
 7645TIP3   OH244349   4.215   0.096   1.080  0.3956 -0.1862 -0.4709
 7645TIP3    H144350   4.210   0.155   1.005 -3.2996  0.7774  0.3268
 7645TIP3    H244351   4.189   0.011   1.045  0.7054 -0.2151 -0.6387
 7646TIP3   OH244352   0.193   4.805   0.075  0.1722 -0.1549  0.5212
 7646TIP3    H144353   0.132   4.760   0.134 -1.7594 -0.2569 -1.4368
 7646TIP3    H244354   0.195   4.750  -0.003  0.0512  1.6485 -0.8061
 7647TIP3   OH244355   1.294   3.420  14.157 -0.0302 -0.3100  0.2584
 7647TIP3    H144356   1.214   3.471  14.172  1.5906  2.5427 -0.1617
 7647TIP3    H244357   1.284   3.387  14.067 -0.5147  0.4775  0.0069
 7648TIP3   OH244358   5.534   0.873   2.332  0.4340  0.2516 -0.0379
 7648TIP3    H144359   5.510   0.952   2.380  0.8904 -0.4749  1.4756
 7648TIP3    H244360   5.454   0.845   2.289  0.1448  1.2340 -0.1605
 7649TIP3   OH244361   5.811   3.672  13.563 -0.5782  0.0499  0.0174
 7649TIP3    H144362   5.850   3.702  13.644 -0.7794  0.3736 -0.0017
 7649TIP3    H244363   5.840   3.582  13.553  0.0750  0.2527  0.0547
 7650TIP3   OH244364   2.721   0.285   2.259 -0.0524  0.1285 -0.1948
 7650TIP3    H144365   2.705   0.247   2.345 -1.4001  0.6651 -0.1711
 7650TIP3    H244366   2.726   0.380   2.275  0.0486  0.2034 -0.6509
 7651TIP3   OH244367   2.216   2.241   3.636  0.3089 -0.4353  0.0188
 7651TIP3    H144368   2.305   2.211   3.653  1.3195  2.2393  0.0500
 7651TIP3    H244369   2.165   2.212   3.711  1.9711  0.8883  1.7551
 7652TIP3   OH244370   1.598   4.207   0.815  0.1536 -0.2255  0.1460
 7652TIP3    H144371   1.661   4.216   0.744 -1.1711 -0.3534 -1.0943
 7652TIP3    H244372   1.519   4.252   0.783 -0.9558 -1.5695  0.8888
 7653TIP3   OH244373   2.158   4.311   0.458  0.0583 -0.3404 -1.0300
 7653TIP3    H144374   2.083   4.333   0.403 -0.9287  0.2383  0.4901
 7653TIP3    H244375   2.121   4.265   0.533  1.1477  0.3752 -0.0077
 7654TIP3   OH244376   2.981   0.196   4.700 -0.1952  0.2943  0.0302
 7654TIP3    H144377   3.047   0.152   4.754 -2.0961 -1.4523  1.0846
 7654TIP3    H244378   2.940   0.125   4.650 -2.3095  1.0250  0.5874
 7655TIP3   OH244379   5.983   1.915  13.666  0.0035  0.4264  0.2023
 7655TIP3    H144380   5.950   2.004  13.653 -0.0315  0.4015  0.1215
 7655TIP3    H244381   6.058   1.907  13.608  0.4726  0.6555  0.7660
 7656TIP3   OH244382   6.309   4.807   1.944  0.4645  0.6797  0.1008
 7656TIP3    H144383   6.251   4.883   1.949  0.0824  0.5009 -1.1822
 7656TIP3    H244384   6.385   4.838   1.895 -0.7747 -0.3416 -2.6608
 7657TIP3   OH244385   0.406   0.925  11.944  0.7942 -0.4638 -0.5357
 7657TIP3    H144386   0.489   0.878  11.957  0.9744  0.1252  0.5702
 7657TIP3    H244387   0.377   0.947  12.033 -0.2943 -0.2153 -0.9415
 7658TIP3   OH244388   3.152   3.129   0.383 -0.6174  0.5414 -0.2697
 7658TIP3    H144389   3.169   3.223   0.376 -1.1973  0.7304  0.6904
 7658TIP3    H244390   3.058   3.122   0.397 -1.0756 -0.3620 -3.0940
 7659TIP3   OH244391   3.854   1.570  11.603  0.0383 -0.3641  0.0150
 7659TIP3    H144392   3.819   1.503  11.545 -2.3443  1.8484 -1.3200
 7659TIP3    H244393   3.798   1.568  11.680 -0.5435  0.5479 -0.3671
 7660TIP3   OH244394   0.652   0.654   4.037  0.0653  0.0584 -0.6356
 7660TIP3    H144395   0.658   0.593   3.964 -1.7825 -1.0582  0.0825
 7660TIP3    H244396   0.559   0.676   4.043  0.7052  3.5333 -1.2654
 7661TIP3   OH244397   1.023   5.184  13.297 -0.1615 -0.0978  0.1241
 7661TIP3    H144398   1.091   5.221  13.353  0.3229 -0.1554 -0.4227
 7661TIP3    H244399   0.958   5.150  13.358  1.1821 -1.7412  0.7172
 7662TIP3   OH244400   0.905   5.275  14.465 -0.1776  0.2199 -0.1312
 7662TIP3    H144401   0.840   5.262  14.534 -0.0463 -1.1906 -0.2480
 7662TIP3    H244402   0.904   5.369  14.450 -1.6527  0.3262  0.3920
 7663TIP3   OH244403   4.536   4.004   4.131  0.1363 -0.7808 -1.0134
 7663TIP3    H144404   4.478   4.073   4.100 -2.0548 -0.6363  2.8068
 7663TIP3    H244405   4.617   4.050   4.155 -0.6426  0.2203 -0.2005
 7664TIP3   OH244406   2.133   0.182  12.527 -0.7659 -0.1424  0.2412
 7664TIP3    H144407   2.174   0.255  12.574 -1.2515  0.0512  0.3685
 7664TIP3    H244408   2.123   0.114  12.593 -0.5593 -0.2272  0.1867
 7665TIP3   OH244409   0.906   3.151   5.410 -1.0487 -0.4177  1.0683
 7665TIP3    H144410   0.900   3.224   5.349  3.1527 -1.4132 -0.8701
 7665TIP3    H244411   0.845   3.085   5.376 -1.8729  0.6166  0.4945
 7666TIP3   OH244412   3.012   4.988  13.669 -0.6950  0.4129 -0.1205
 7666TIP3    H144413   3.037   4.895  13.667  0.7147  0.7760 -0.4520
 7666TIP3    H244414   3.022   5.013  13.761 -0.5520  0.3671 -0.1228
 7667TIP3   OH244415   1.447   5.846  14.127 -0.8934 -0.0735  0.4171
 7667TIP3    H144416   1.426   5.799  14.046  0.4740 -1.7160  0.9602
 7667TIP3    H244417   1.479   5.931  14.097  1.5803 -1.3889 -0.9442
 7668TIP3   OH244418   4.092   1.845  17.224 -0.3430  0.2765  0.2060
 7668TIP3    H144419   4.054   1.796  17.296  0.3332 -1.2195 -0.4121
 7668TIP3    H244420   4.038   1.823  17.148  1.3166 -1.4394 -0.5673
 7669TIP3   OH244421   4.347   3.376  15.194  0.3144  0.2327 -0.6765
 7669TIP3    H144422   4.397   3.321  15.255  1.8092  1.7995 -0.4206
 7669TIP3    H244423   4.373   3.346  15.107  0.6656  0.1285 -0.5385
 7670TIP3   OH244424   4.621   0.795   0.572  0.0714 -0.2642  0.2184
 7670TIP3    H144425   4.577   0.875   0.601  0.7730  0.4461 -0.6166
 7670TIP3    H244426   4.650   0.753   0.652 -0.0196  0.4989  0.6617
 7671TIP3   OH244427   4.788   1.659  14.594  0.7381  0.1079  0.1046
 7671TIP3    H144428   4.705   1.677  14.549  1.5088  0.8362 -1.0852
 7671TIP3    H244429   4.789   1.564  14.606  0.2228 -0.0312 -0.8657
 7672TIP3   OH244430   3.448   4.066  16.393  0.0225  0.4575 -0.2042
 7672TIP3    H144431   3.434   4.017  16.473 -0.2065  1.2843  0.2710
 7672TIP3    H244432   3.417   4.008  16.323  2.3677 -1.2495  0.0398
 7673TIP3   OH244433   4.895   3.603  15.063 -0.5064  0.0805 -0.3545
 7673TIP3    H144434   4.838   3.605  14.987 -2.4905  0.5437  1.0674
 7673TIP3    H244435   4.835   3.598  15.138  1.2957  1.0207  1.2438
 7674TIP3   OH244436   3.663   1.186  15.707  0.5365  0.6321  0.4974
 7674TIP3    H144437   3.617   1.143  15.779  1.3549 -3.0011 -0.9291
 7674TIP3    H244438   3.755   1.171  15.725  0.7802  0.2769 -0.9075
 7675TIP3   OH244439   6.140   3.217   3.690 -0.1127 -0.6685 -0.2983
 7675TIP3    H144440   6.068   3.266   3.650  0.5232  0.7356  0.2198
 7675TIP3    H244441   6.219   3.254   3.650  0.4639 -0.1340  1.2903
 7676TIP3   OH244442   0.008   4.542  15.880 -0.0006  0.0524 -0.0388
 7676TIP3    H144443   0.023   4.577  15.792 -0.1358 -1.5499 -0.7357
 7676TIP3    H244444   0.080   4.481  15.894  1.3181  1.8989  1.9208
 7677TIP3   OH244445   5.720   6.212  12.045 -0.0672 -0.0502 -0.0693
 7677TIP3    H144446   5.705   6.119  12.061  0.6399 -0.4284 -1.4368
 7677TIP3    H244447   5.686   6.226  11.956 -2.3176  1.5402  0.9455
 7678TIP3   OH244448   4.379   0.668   4.930 -0.8733 -0.1588 -0.0936
 7678TIP3    H144449   4.434   0.600   4.969  0.1887  0.8717  0.2805
 7678TIP3    H244450   4.333   0.706   5.004 -1.5778 -0.5563 -0.3216
 7679TIP3   OH244451   0.520   6.033  13.252  0.0596 -0.2304 -0.3455
 7679TIP3    H144452   0.505   6.112  13.304 -0.7219 -0.1644 -0.6555
 7679TIP3    H244453   0.434   5.990  13.249  0.6739 -1.6171  0.6553
 7680TIP3   OH244454   3.031   1.082   5.191  0.1782  1.1858  0.0908
 7680TIP3    H144455   2.946   1.041   5.205  1.0538  0.2245  3.1737
 7680TIP3    H244456   3.050   1.065   5.099 -1.7734 -0.8477 -0.0293
 7681TIP3   OH244457   5.274   2.768  14.555  0.5538  0.2157 -0.1447
 7681TIP3    H144458   5.336   2.714  14.507 -0.8317 -0.6568 -1.0453
 7681TIP3    H244459   5.310   2.775  14.644  0.9717 -1.8873 -0.1080
 7682TIP3   OH244460   3.083   5.335   5.921  0.0110 -0.0618 -0.2683
 7682TIP3    H144461   3.002   5.284   5.919  0.1276 -0.3097  0.8453
 7682TIP3    H244462   3.055   5.425   5.904 -0.2641 -0.3874 -1.6908
 7683TIP3   OH244463   6.386   1.929   2.421  0.2312 -0.4131 -0.6605
 7683TIP3    H144464   6.441   1.985   2.476 -1.9173  1.7853 -0.5278
 7683TIP3    H244465   6.430   1.927   2.336  0.3550  1.7135 -0.7210
 7684TIP3   OH244466   1.182   6.200  13.311  0.7948 -0.6009 -0.1843
 7684TIP3    H144467   1.173   6.293  13.293  1.6476 -0.7567 -1.5430
 7684TIP3    H244468   1.243   6.195  13.385  0.8235 -0.0972 -0.1696
 7685TIP3   OH244469   2.190   6.149  13.053 -0.1807  0.5680  0.1611
 7685TIP3    H144470   2.191   6.171  13.147 -0.8907 -1.9417  0.8434
 7685TIP3    H244471   2.098   6.158  13.028  0.2250  2.7682 -0.7841
 7686TIP3   OH244472   3.166   4.930  10.804  0.2855  1.0734 -0.0891
 7686TIP3    H144473   3.132   4.964  10.721 -0.8687 -0.6953 -0.4003
 7686TIP3    H244474   3.246   4.884  10.780 -0.9452 -0.9559 -0.6034
 7687TIP3   OH244475   2.816   5.712   6.130 -0.0047  0.2251  0.3028
 7687TIP3    H144476   2.849   5.794   6.092 -3.4168  1.4144 -0.4665
 7687TIP3    H244477   2.840   5.717   6.222  3.7298 -0.1414 -0.5106
 7688TIP3   OH244478   0.094   4.434   1.058 -0.1508  0.0012  0.3860
 7688TIP3    H144479   0.100   4.434   1.153  1.6705  2.0713  0.3769
 7688TIP3    H244480   0.155   4.503   1.031  0.7888 -1.7547 -2.3692
 7689TIP3   OH244481   2.702   4.135   3.657  0.5229 -0.1994  0.9322
 7689TIP3    H144482   2.706   4.051   3.703  2.2560  0.4287  2.0295
 7689TIP3    H244483   2.793   4.166   3.656  0.1059  1.0727 -0.5815
 7690TIP3   OH244484   3.589   3.393  10.814  0.3644 -0.2292 -1.1151
 7690TIP3    H144485   3.604   3.397  10.908 -0.2564  0.2346 -1.0338
 7690TIP3    H244486   3.535   3.315  10.801 -0.9848  0.6474 -0.8863
 7691TIP3   OH244487   0.193   0.455   0.259  0.5348 -0.0727 -0.2332
 7691TIP3    H144488   0.221   0.523   0.321 -0.6855  0.8070 -0.5992
 7691TIP3    H244489   0.178   0.378   0.314 -4.0993  1.6395  1.3744
 7692TIP3   OH244490   5.770   4.804   4.218  0.2695  0.0657 -0.1728
 7692TIP3    H144491   5.840   4.855   4.178  1.6866 -1.3940  0.3318
 7692TIP3    H244492   5.689   4.840   4.182  1.3608 -1.7881 -5.3141
 7693TIP3   OH244493   3.851   1.847  15.200 -0.0945  1.0612 -0.5630
 7693TIP3    H144494   3.781   1.912  15.206  0.2328  1.3909 -0.2771
 7693TIP3    H244495   3.915   1.875  15.265 -0.1337  0.2235 -0.1510
 7694TIP3   OH244496   3.897   6.747  15.422  0.2479  0.4845 -0.3034
 7694TIP3    H144497   3.968   6.805  15.448  0.4642 -0.3055  0.9805
 7694TIP3    H244498   3.817   6.800  15.431  0.4235  0.5578  1.0345
 7695TIP3   OH244499   3.094   4.974  11.061  0.2973 -0.0733  0.4233
 7695TIP3    H144500   3.135   4.933  10.985 -0.7312 -1.3747  0.5367
 7695TIP3    H244501   3.042   5.046  11.025  1.0626  0.3120  0.0769
 7696TIP3   OH244502   0.008   6.410  15.880  0.1126  0.4756  0.5023
 7696TIP3    H144503  -0.040   6.469  15.822 -1.8785 -1.7613 -0.2475
 7696TIP3    H244504   0.099   6.441  15.876 -0.5844  2.4911 -1.0507
 7697TIP3   OH244505   4.663   5.817   1.878  0.1079  0.0326 -0.6191
 7697TIP3    H144506   4.653   5.801   1.784  0.0686  1.3344 -0.8569
 7697TIP3    H244507   4.574   5.816   1.912  0.0436  0.4863 -0.7662
 7698TIP3   OH244508   0.001   3.041  12.112 -0.8307  0.1196 -0.0074
 7698TIP3    H144509   0.046   3.124  12.129 -0.6934  0.7646 -2.9597
 7698TIP3    H244510  -0.046   3.056  12.030 -0.3101 -2.8950 -0.9836
 7699TIP3   OH244511   5.944   1.434   0.934 -0.3875  0.1415  0.0558
 7699TIP3    H144512   5.990   1.460   1.013  1.2198  0.2014 -0.8584
 7699TIP3    H244513   5.938   1.514   0.882 -1.6925  0.1691  0.2054
 7700TIP3   OH244514   5.668   2.213   1.235 -0.2176  0.2554  0.2811
 7700TIP3    H144515   5.675   2.234   1.328 -0.9331 -1.3936  0.7485
 7700TIP3    H244516   5.758   2.213   1.202  0.1204 -0.0576  1.1931
 7701TIP3   OH244517   5.828   0.974  15.285 -0.1495 -0.3791  0.0523
 7701TIP3    H144518   5.758   1.038  15.296 -0.8104 -1.2810  1.3289
 7701TIP3    H244519   5.838   0.934  15.371  3.1883  0.9413  0.4540
 7702TIP3   OH244520   3.200   3.177   5.636 -0.3366  0.0956 -0.1381
 7702TIP3    H144521   3.122   3.161   5.582 -0.5517  0.7414 -0.0268
 7702TIP3    H244522   3.172   3.155   5.725  0.2661 -1.7954 -0.3623
 7703TIP3   OH244523   3.978   1.632   5.794 -0.3909 -0.3497 -0.3259
 7703TIP3    H144524   4.032   1.578   5.736 -0.6396 -1.5235  0.4954
 7703TIP3    H244525   4.036   1.657   5.865 -0.7021 -0.9813  0.1681
 7704TIP3   OH244526   2.377   1.214  10.781  0.1481 -0.3959 -0.1477
 7704TIP3    H144527   2.357   1.294  10.829  0.6236 -0.5394  0.2896
 7704TIP3    H244528   2.319   1.217  10.704 -0.9549 -0.3970  0.6614
 7705TIP3   OH244529   5.770   3.803   1.646 -0.2741 -0.3592  0.2403
 7705TIP3    H144530   5.762   3.897   1.632  0.0178 -0.2913  0.5204
 7705TIP3    H244531   5.822   3.771   1.573 -1.5682 -0.5287 -0.6354
 7706TIP3   OH244532   1.337   6.172   4.409  0.0722  0.2325  0.0830
 7706TIP3    H144533   1.374   6.088   4.381  1.9157  1.4593 -1.4043
 7706TIP3    H244534   1.297   6.208   4.330  1.7058  1.9267 -0.0432
 7707TIP3   OH244535   5.575   4.806  16.396 -0.3535  0.4705 -0.2244
 7707TIP3    H144536   5.641   4.737  16.398  0.9187  1.6429  0.3445
 7707TIP3    H244537   5.492   4.761  16.409  0.5609 -0.7936  1.7176
 7708TIP3   OH244538   2.034   4.954   2.677 -0.0904 -0.1714  0.3607
 7708TIP3    H144539   2.078   5.038   2.692  0.0272 -0.5482  2.4615
 7708TIP3    H244540   2.106   4.892   2.661 -0.0894 -0.1055  0.1152
 7709TIP3   OH244541   1.533   2.832   6.363 -0.0827 -0.0719  0.1824
 7709TIP3    H144542   1.573   2.766   6.307 -0.9828  0.2159 -0.8208
 7709TIP3    H244543   1.456   2.790   6.400  1.5444 -0.9492  2.8795
 7710TIP3   OH244544   3.467   0.140   2.165  0.3909  0.4785 -0.3543
 7710TIP3    H144545   3.402   0.122   2.232  0.3655  0.9653 -0.2476
 7710TIP3    H244546   3.448   0.076   2.096 -0.1381  0.5521 -0.2837
 7711TIP3   OH244547   1.622   1.229  13.673 -0.4355  0.3440  0.0313
 7711TIP3    H144548   1.654   1.164  13.735  1.2842  1.1365  0.0311
 7711TIP3    H244549   1.660   1.202  13.589  1.6003  2.1568  0.3046
 7712TIP3   OH244550   1.848   5.288   4.035 -0.5965 -0.3254 -0.2722
 7712TIP3    H144551   1.839   5.317   3.944 -0.2066  0.1222 -0.1768
 7712TIP3    H244552   1.854   5.370   4.085  0.1554 -0.5702  0.0486
 7713TIP3   OH244553   5.140   1.175  13.615  0.5731 -0.6063 -0.0108
 7713TIP3    H144554   5.216   1.224  13.585 -0.8694  0.8279 -1.4785
 7713TIP3    H244555   5.136   1.098  13.558  2.5424 -2.3470  1.9727
 7714TIP3   OH244556   1.517   6.416  15.721 -0.9512  0.1507  0.0511
 7714TIP3    H144557   1.442   6.360  15.702  0.3085 -1.4304 -0.5044
 7714TIP3    H244558   1.494   6.459  15.804 -1.6940 -1.7663  0.9085
 7715TIP3   OH244559   1.412   2.803  16.005 -0.3517 -0.1279 -0.2479
 7715TIP3    H144560   1.498   2.809  15.964  0.7248  0.1868  1.9094
 7715TIP3    H244561   1.362   2.876  15.968  0.9077  0.7694 -0.2513
 7716TIP3   OH244562   5.934   4.394   5.278 -0.4214  0.2099 -0.3936
 7716TIP3    H144563   5.918   4.484   5.249 -1.4131  0.4535  0.8450
 7716TIP3    H244564   5.874   4.381   5.351  0.1604 -1.2578 -0.1443
 7717TIP3   OH244565   3.033   3.716   1.149  1.1225 -0.0428  0.3215
 7717TIP3    H144566   2.972   3.644   1.162  0.3454  0.6554  0.6260
 7717TIP3    H244567   2.982   3.784   1.106  1.3138  1.0422  1.7396
 7718TIP3   OH244568   4.390   5.471  13.822 -0.4618  0.0224 -0.3769
 7718TIP3    H144569   4.388   5.566  13.829  0.4928  0.2523 -2.4780
 7718TIP3    H244570   4.480   5.447  13.845  0.3045  0.0303 -3.0008
 7719TIP3   OH244571   4.591   3.660  16.747  0.4776  0.2166 -0.0839
 7719TIP3    H144572   4.638   3.579  16.768  0.5394 -0.1134 -1.3849
 7719TIP3    H244573   4.499   3.634  16.742  0.2271  0.6897  1.6326
 7720TIP3   OH244574   3.908   2.192   3.321  0.2703  0.6015  0.1295
 7720TIP3    H144575   3.819   2.187   3.285  0.2803  0.7639  0.0821
 7720TIP3    H244576   3.958   2.241   3.255  0.5836 -0.1664 -0.2135
 7721TIP3   OH244577   2.936   2.273   1.103  0.1095  0.2995 -0.1796
 7721TIP3    H144578   2.847   2.240   1.095  0.0098  0.0018  1.7932
 7721TIP3    H244579   2.942   2.341   1.036 -1.7041  0.5572 -0.1321
 7722TIP3   OH244580   5.275   0.664  12.904  0.0239  0.1012 -0.9915
 7722TIP3    H144581   5.282   0.572  12.930  1.6003  0.3058 -0.6030
 7722TIP3    H244582   5.253   0.710  12.985 -2.2959 -0.0619 -1.4606
 7723TIP3   OH244583   2.797   1.999  12.714  0.1793 -0.3336  0.2060
 7723TIP3    H144584   2.781   1.918  12.762 -1.7003 -1.5037 -2.1797
 7723TIP3    H244585   2.875   1.982  12.663  0.4290 -0.1979  0.5352
 7724TIP3   OH244586   5.117   1.068  15.206  0.0372 -0.1164  0.0947
 7724TIP3    H144587   5.051   1.030  15.264  0.9499  0.4377  1.5573
 7724TIP3    H244588   5.186   1.002  15.201 -0.5617 -0.6752 -1.3911
 7725TIP3   OH244589   5.671   3.213  16.835 -0.1560  0.2306 -0.1548
 7725TIP3    H144590   5.731   3.164  16.779 -1.1512 -0.8125 -0.3564
 7725TIP3    H244591   5.724   3.241  16.909  0.4770 -1.0922 -0.0784
 7726TIP3   OH244592   3.171   5.273   1.287 -0.0181  0.2748  0.3397
 7726TIP3    H144593   3.153   5.216   1.212 -0.8947 -2.3365  2.3735
 7726TIP3    H244594   3.265   5.259   1.305 -0.3687 -1.2045  1.2410
 7727TIP3   OH244595   2.769   5.580   4.623 -0.2791  0.3327 -0.2223
 7727TIP3    H144596   2.778   5.485   4.616 -0.3266  0.2636  0.5630
 7727TIP3    H244597   2.810   5.602   4.707 -3.0166  0.6070  1.1476
 7728TIP3   OH244598   1.577   3.567   0.434 -0.7625 -0.1587 -0.1015
 7728TIP3    H144599   1.568   3.535   0.524 -0.4166  1.1310  0.4197
 7728TIP3    H244600   1.494   3.610   0.416 -1.9344 -2.7926 -1.4517
 7729TIP3   OH244601   2.794   0.718  16.260  0.6729  0.3792  0.5462
 7729TIP3    H144602   2.856   0.790  16.272  0.3141  0.3839  2.9395
 7729TIP3    H244603   2.818   0.654  16.326 -1.3825  0.0757  1.0855
 7730TIP3   OH244604   6.201   1.800  14.863 -0.1111 -0.1346  0.0470
 7730TIP3    H144605   6.112   1.786  14.832 -1.7542  3.5207  2.5043
 7730TIP3    H244606   6.221   1.891  14.840  1.1253  0.6047  3.4545
 7731TIP3   OH244607   5.693   5.821  13.132  0.0708 -0.2815 -0.3672
 7731TIP3    H144608   5.626   5.867  13.183  0.7287  1.1327 -0.7068
 7731TIP3    H244609   5.713   5.742  13.183 -0.8725 -0.0263  0.4229
 7732TIP3   OH244610   1.303   3.262  12.393 -0.0937 -0.9079 -0.2524
 7732TIP3    H144611   1.264   3.328  12.451  0.3985 -2.4982  2.0419
 7732TIP3    H244612   1.370   3.310  12.344 -0.4193  0.5051  0.6245
 7733TIP3   OH244613   0.582   5.948  13.983  0.3617  0.8725 -0.3826
 7733TIP3    H144614   0.513   5.906  13.933  0.3868 -3.2272  2.5163
 7733TIP3    H244615   0.536   6.000  14.049  0.0334 -0.2365  0.2886
 7734TIP3   OH244616   5.228   0.207  17.102  0.0160  0.5698 -0.2741
 7734TIP3    H144617   5.214   0.232  17.011  0.8835  0.2956 -0.4932
 7734TIP3    H244618   5.322   0.191  17.109  0.0055  0.8277  0.7331
 7735TIP3   OH244619   0.799   1.771   1.712  0.3490 -0.3668 -0.2132
 7735TIP3    H144620   0.781   1.784   1.805  0.3562  0.6013 -0.3399
 7735TIP3    H244621   0.843   1.851   1.684  0.5525 -0.7406 -1.0053
 7736TIP3   OH244622   0.302   5.254   2.259 -0.5588 -0.1017 -1.0493
 7736TIP3    H144623   0.267   5.215   2.179  0.3625 -1.0417 -1.0190
 7736TIP3    H244624   0.234   5.238   2.325 -0.7166 -0.5890 -1.3243
 7737TIP3   OH244625   1.385   1.456  14.239  0.2994  0.0108  0.0770
 7737TIP3    H144626   1.372   1.464  14.145  0.4753 -1.0849 -0.0501
 7737TIP3    H244627   1.476   1.483  14.253  0.4337 -0.3284 -0.1371
 7738TIP3   OH244628   1.420   4.407   2.043 -0.0389 -0.0838  0.4183
 7738TIP3    H144629   1.496   4.359   2.011 -1.4179 -1.4524 -0.9523
 7738TIP3    H244630   1.440   4.499   2.025  1.3939 -0.3944  0.3567
 7739TIP3   OH244631   0.952   3.194   5.893  0.0555  0.8148 -0.0112
 7739TIP3    H144632   1.029   3.152   5.933 -0.8932 -0.3170  0.6789
 7739TIP3    H244633   0.935   3.270   5.948  1.1944  1.6067 -0.6940
 7740TIP3   OH244634   0.962   1.718  12.147 -0.6582  0.0665 -0.9425
 7740TIP3    H144635   1.029   1.749  12.209 -2.2337 -0.1080  0.9562
 7740TIP3    H244636   0.956   1.787  12.082 -0.9602  1.7010  0.7375
 7741TIP3   OH244637   2.072   2.281  13.726 -0.3930 -0.1332  0.2140
 7741TIP3    H144638   2.024   2.216  13.777  1.7550 -1.2179  0.9657
 7741TIP3    H244639   2.144   2.309  13.782  0.4339  0.7219 -1.1917
 7742TIP3   OH244640   5.956   4.805   2.561  0.2429 -0.2566 -0.1393
 7742TIP3    H144641   6.030   4.777   2.615  1.4117  2.6187 -0.0985
 7742TIP3    H244642   5.892   4.840   2.624  0.6765  1.0777 -0.4013
 7743TIP3   OH244643   6.359   6.648  13.034 -0.5217  0.7830  0.0406
 7743TIP3    H144644   6.283   6.679  13.082 -0.4664  1.0130 -0.0167
 7743TIP3    H244645   6.355   6.553  13.041  0.3046  0.8378  1.7781
 7744TIP3   OH244646   1.057   3.422  14.498 -0.6753 -0.3655 -0.1353
 7744TIP3    H144647   1.107   3.378  14.429  0.1228  0.7754 -0.3181
 7744TIP3    H244648   1.099   3.395  14.580 -0.8450 -0.7617 -0.1802
 7745TIP3   OH244649   5.918   5.559   1.958  0.6797  0.0413 -0.0296
 7745TIP3    H144650   5.969   5.609   1.895 -0.4317  0.3185 -0.7457
 7745TIP3    H244651   5.974   5.552   2.034  1.2152  1.6145 -0.2382
 7746TIP3   OH244652   3.671   3.211   4.355  0.2007  0.1925 -0.2264
 7746TIP3    H144653   3.597   3.171   4.309  0.5843 -0.3900 -0.3583
 7746TIP3    H244654   3.737   3.141   4.358 -0.2313 -0.2151  2.2512
 7747TIP3   OH244655   6.268   2.071  16.807 -0.0177  0.0687 -0.0742
 7747TIP3    H144656   6.235   2.144  16.754 -0.0566 -0.5168 -0.8638
 7747TIP3    H244657   6.270   1.997  16.747  0.2636 -0.5236  0.6610
 7748TIP3   OH244658   1.501   6.560  12.347  0.0128  0.1436 -0.0773
 7748TIP3    H144659   1.447   6.566  12.268  1.1179 -0.0717 -0.8822
 7748TIP3    H244660   1.506   6.649  12.381  1.0148  0.5897 -1.3120
 7749TIP3   OH244661   4.090   4.052   6.315 -0.5624 -0.0162  0.3286
 7749TIP3    H144662   4.073   4.010   6.400 -1.3401  0.1478  0.2654
 7749TIP3    H244663   4.129   4.137   6.338 -1.5465  0.3921  0.5751
 7750TIP3   OH244664   1.647   0.702   5.663 -0.0225 -0.0391 -0.6527
 7750TIP3    H144665   1.584   0.637   5.632 -2.8776  1.2531  1.9318
 7750TIP3    H244666   1.701   0.654   5.725 -0.2967 -0.5441 -0.7946
 7751TIP3   OH244667   2.357   2.406   3.120 -0.5230 -0.3020 -0.6087
 7751TIP3    H144668   2.431   2.354   3.153  0.2561 -0.5081 -2.5223
 7751TIP3    H244669   2.327   2.358   3.043 -2.3320  0.0832 -0.1920
 7752TIP3   OH244670   5.613   3.637  11.193  0.0180  0.2937  0.7981
 7752TIP3    H144671   5.577   3.636  11.104  0.6537 -0.7784  0.5291
 7752TIP3    H244672   5.579   3.717  11.232 -1.9954 -0.2685  0.3010
 7753TIP3   OH244673   2.324   6.556  12.315  0.4485 -0.5924 -0.1625
 7753TIP3    H144674   2.232   6.536  12.294  0.7106 -0.1901 -1.8278
 7753TIP3    H244675   2.362   6.471  12.337  0.2949 -1.2316 -2.1162
 7754TIP3   OH244676   3.530   4.386   4.827 -0.5065 -0.3424 -0.7141
 7754TIP3    H144677   3.569   4.344   4.904  0.3533 -0.5462 -1.2587
 7754TIP3    H244678   3.458   4.438   4.863 -0.7897 -1.2716  0.1108
 7755TIP3   OH244679   6.103   3.421   2.104  0.4166 -0.0725 -0.1010
 7755TIP3    H144680   6.041   3.493   2.105  1.5048  0.9078 -0.0734
 7755TIP3    H244681   6.093   3.380   2.190 -1.2479 -0.9159 -0.6606
 7756TIP3   OH244682   1.169   5.836   0.356 -0.3423  0.1403  0.2001
 7756TIP3    H144683   1.093   5.854   0.412 -1.5176 -2.7516 -0.3054
 7756TIP3    H244684   1.159   5.895   0.282 -1.0378  1.1202  1.0482
 7757TIP3   OH244685   1.028   1.100  16.734 -0.2985  0.7438 -0.2286
 7757TIP3    H144686   1.109   1.111  16.683  0.3791 -0.9673  0.4105
 7757TIP3    H244687   1.003   1.189  16.758  2.8405  1.2729  1.7432
 7758TIP3   OH244688   0.166   5.512  14.372  0.3806  0.0701 -0.2624
 7758TIP3    H144689   0.131   5.527  14.284  0.4733  1.5823 -0.0603
 7758TIP3    H244690   0.194   5.420  14.371 -0.3168 -0.1489 -1.5600
 7759TIP3   OH244691   4.397   0.206  15.405  0.1815 -0.5226 -0.3110
 7759TIP3    H144692   4.421   0.222  15.496  0.0380 -0.3690 -0.2992
 7759TIP3    H244693   4.456   0.262  15.354 -0.6833  0.4858 -0.2478
 7760TIP3   OH244694   0.022   3.718  15.834  0.2455  0.0384 -0.2200
 7760TIP3    H144695   0.114   3.712  15.858  0.0536  0.8079  0.7524
 7760TIP3    H244696  -0.024   3.732  15.916 -0.7023  0.1023 -0.7412
 7761TIP3   OH244697   5.016   2.154  15.166  0.7688 -0.2910  0.0183
 7761TIP3    H144698   4.997   2.233  15.116  1.1799 -0.1085  0.1498
 7761TIP3    H244699   4.932   2.130  15.206  0.3136 -0.7376 -1.1736
 7762TIP3   OH244700   3.880   3.096   4.528  0.0869  0.0336 -0.3739
 7762TIP3    H144701   3.965   3.136   4.511  1.9665 -1.9760  3.0026
 7762TIP3    H244702   3.836   3.158   4.587 -1.2478  1.4159 -2.6827
 7763TIP3   OH244703   4.355   0.412   5.211  0.4028 -0.0099 -0.1165
 7763TIP3    H144704   4.280   0.471   5.204  0.6325  0.5314  1.6078
 7763TIP3    H244705   4.378   0.413   5.304  2.1562 -0.6657 -0.5063
 7764TIP3   OH244706   3.185   4.482  15.361 -0.2580  0.0446  0.7731
 7764TIP3    H144707   3.177   4.575  15.344 -0.7440  0.0673  1.1257
 7764TIP3    H244708   3.279   4.465  15.359 -0.0837  0.7875  2.0218
 7765TIP3   OH244709   2.576   6.173   6.532  0.7451  0.4490 -0.3222
 7765TIP3    H144710   2.555   6.103   6.594  1.2530 -0.6425 -1.3255
 7765TIP3    H244711   2.605   6.246   6.587  0.1441 -0.0984  0.7598
 7766TIP3   OH244712   4.494   1.721   3.861  0.5350 -0.0194  0.6440
 7766TIP3    H144713   4.411   1.692   3.822 -0.0595  2.1481  0.1575
 7766TIP3    H244714   4.471   1.740   3.952  0.0063  2.1874  0.1126
 7767TIP3   OH244715   6.651   3.967   3.471 -0.0314 -0.2287  0.2791
 7767TIP3    H144716   6.743   3.942   3.469 -0.3136 -1.2931 -0.3529
 7767TIP3    H244717   6.616   3.925   3.550 -0.2075 -0.7235 -0.0588
 7768TIP3   OH244718   1.052   5.221   1.538 -0.3837  0.4091  0.3194
 7768TIP3    H144719   1.082   5.130   1.543 -1.3565  0.0303 -0.4305
 7768TIP3    H244720   1.061   5.245   1.446 -1.2591  0.6625  0.2849
 7769TIP3   OH244721   5.966   5.811  12.606  0.2819  0.1632 -0.3126
 7769TIP3    H144722   5.961   5.717  12.588  0.5973 -0.0529  0.7011
 7769TIP3    H244723   5.899   5.850  12.549  1.4744 -0.4401 -2.1928
 7770TIP3   OH244724   0.116   5.141  11.489  0.9510 -0.7724 -0.0507
 7770TIP3    H144725   0.057   5.086  11.538  1.0543 -0.6566  0.2048
 7770TIP3    H244726   0.094   5.125  11.397  0.7540 -0.9799  0.0340
 7771TIP3   OH244727   5.003   0.625  13.868 -0.1320 -0.6823 -0.2447
 7771TIP3    H144728   4.984   0.716  13.847  0.0843 -0.4569  0.5262
 7771TIP3    H244729   5.092   0.610  13.834 -0.0477 -0.5189 -0.0942
 7772TIP3   OH244730   1.468   0.292  12.969 -0.1323  0.8432 -0.6172
 7772TIP3    H144731   1.394   0.265  13.024  0.7180  0.2905  0.2890
 7772TIP3    H244732   1.437   0.279  12.879  0.2687 -3.6528 -0.3307
 7773TIP3   OH244733   4.997   5.569  15.921  0.4674  0.3365  0.3558
 7773TIP3    H144734   5.055   5.540  15.991  0.4115  0.9812  0.6759
 7773TIP3    H244735   5.054   5.574  15.844  0.5000 -0.4960  0.3226
 7774TIP3   OH244736   0.844   2.698   3.086 -0.4864 -0.0105 -0.3376
 7774TIP3    H144737   0.755   2.734   3.086 -0.5259 -0.0614 -1.4040
 7774TIP3    H244738   0.848   2.647   3.005 -0.5158 -2.5920  1.1681
 7775TIP3   OH244739   4.252   2.844  12.666 -0.2111  0.3410  0.0373
 7775TIP3    H144740   4.341   2.860  12.634 -0.9177  1.7597 -1.3114
 7775TIP3    H244741   4.259   2.855  12.761  1.1000  0.1577 -0.0163
 7776TIP3   OH244742   0.317   1.967   0.443  0.0324  0.2478 -0.0126
 7776TIP3    H144743   0.364   2.050   0.437 -0.7082  0.5977 -1.2042
 7776TIP3    H244744   0.268   1.974   0.526  1.3768  0.2298  0.8044
 7777TIP3   OH244745   0.647   5.592   3.684 -0.0046  0.2001 -0.1689
 7777TIP3    H144746   0.713   5.609   3.617 -1.1943 -1.2059 -1.7837
 7777TIP3    H244747   0.597   5.674   3.690  1.1411  0.8910  0.2575
 7778TIP3   OH244748   6.584   2.887   2.202 -0.5092  0.0635 -0.7206
 7778TIP3    H144749   6.574   2.907   2.109 -0.0362  0.0136 -0.7854
 7778TIP3    H244750   6.503   2.919   2.242 -0.7096  0.1019 -1.1439
 7779TIP3   OH244751   3.300   3.204  12.962 -0.6017  0.0835  0.7402
 7779TIP3    H144752   3.380   3.171  13.003  1.1745  2.2272 -0.7779
 7779TIP3    H244753   3.279   3.140  12.895  0.9074  0.3373 -0.0192
 7780TIP3   OH244754   2.299   6.154   4.594  0.2446 -0.4286 -0.3521
 7780TIP3    H144755   2.274   6.121   4.680  0.4329 -0.5190 -0.3308
 7780TIP3    H244756   2.392   6.132   4.586  0.2602 -0.3051 -0.5250
 7781TIP3   OH244757   4.643   0.721  15.100 -0.0218  0.3364  0.5100
 7781TIP3    H144758   4.657   0.632  15.132  1.5374  0.8485  1.3210
 7781TIP3    H244759   4.720   0.770  15.128  0.7088  1.2190 -2.6040
 7782TIP3   OH244760   0.575   5.709  15.691  0.1520  0.0719  0.0368
 7782TIP3    H144761   0.642   5.647  15.661 -0.6649 -0.9780  0.3017
 7782TIP3    H244762   0.568   5.693  15.785 -0.7589 -0.1299 -0.0618
 7783TIP3   OH244763   0.282   5.664   4.634  0.1727  0.3280  0.5672
 7783TIP3    H144764   0.333   5.605   4.578 -0.2875  1.1503 -0.7608
 7783TIP3    H244765   0.192   5.634   4.625  0.1895 -0.0636  1.5716
 7784TIP3   OH244766   2.926   2.118   3.210  0.1302 -0.6225  0.7504
 7784TIP3    H144767   3.003   2.168   3.236  0.0873 -0.8484  1.3081
 7784TIP3    H244768   2.890   2.084   3.291 -1.7572  1.1878  0.7197
 7785TIP3   OH244769   1.551   2.774   3.122 -0.7508 -0.3112  0.0099
 7785TIP3    H144770   1.577   2.817   3.203 -1.0427  1.1425 -0.6371
 7785TIP3    H244771   1.455   2.779   3.122 -0.7621 -0.5348 -0.2976
 7786TIP3   OH244772   5.410   2.134   5.670 -0.6388 -0.4339 -0.3485
 7786TIP3    H144773   5.419   2.229   5.656  1.3643 -0.5592 -0.1479
 7786TIP3    H244774   5.356   2.127   5.748  1.0113  0.6523  0.9701
 7787TIP3   OH244775   5.968   0.697  11.939  0.3513 -0.1664  0.1214
 7787TIP3    H144776   5.976   0.606  11.909  1.7140 -1.0828  2.8782
 7787TIP3    H244777   5.934   0.744  11.863 -0.4324 -2.9568 -1.4179
 7788TIP3   OH244778   5.058   0.501  11.839  0.0951 -0.3658  0.4709
 7788TIP3    H144779   5.140   0.480  11.793  0.6650 -1.0739  1.7562
 7788TIP3    H244780   5.069   0.463  11.926 -1.5650 -0.3739  0.7121
 7789TIP3   OH244781   1.587   0.720   2.274  0.0838 -0.4608 -0.3174
 7789TIP3    H144782   1.612   0.806   2.307 -0.8818  0.0626 -0.8883
 7789TIP3    H244783   1.646   0.659   2.318  0.3345  0.4222  0.6118
 7790TIP3   OH244784   1.433   1.172  12.435  0.1437 -0.5523 -0.3414
 7790TIP3    H144785   1.343   1.196  12.414 -0.0785 -0.7687  0.3329
 7790TIP3    H244786   1.477   1.165  12.350 -0.0883  1.0036 -0.6082
 7791TIP3   OH244787   2.761   2.183   2.651 -0.3063 -1.0515  0.4523
 7791TIP3    H144788   2.825   2.112   2.660 -0.3400 -0.9085  2.1966
 7791TIP3    H244789   2.795   2.238   2.581 -0.3876 -2.8717 -1.1003
 7792TIP3   OH244790   1.189   1.751   3.179 -0.1332 -0.1306 -0.2649
 7792TIP3    H144791   1.236   1.794   3.107  0.0961  1.3968  0.7411
 7792TIP3    H244792   1.177   1.661   3.149  1.2269  0.0788 -1.6015
 7793TIP3   OH244793   4.530   3.571  14.003 -0.3688  0.2507  0.6724
 7793TIP3    H144794   4.449   3.619  14.019 -0.0886  0.9966 -0.0245
 7793TIP3    H244795   4.514   3.483  14.037 -0.3788  1.2169  3.3818
 7794TIP3   OH244796   4.067   3.401  11.316  0.7383  0.6833 -0.0135
 7794TIP3    H144797   4.105   3.442  11.239 -0.4223 -0.5880 -1.3169
 7794TIP3    H244798   3.980   3.440  11.324  0.4758  0.1056  0.0544
 7795TIP3   OH244799   2.504   0.364  12.937 -0.3498  0.0171 -0.4294
 7795TIP3    H144800   2.421   0.400  12.904 -0.1739  1.2227  0.3975
 7795TIP3    H244801   2.542   0.435  12.988  0.2372 -1.2178  0.8997
 7796TIP3   OH244802   6.744   0.735  14.530  0.1918  0.5981  0.1007
 7796TIP3    H144803   6.738   0.820  14.573 -1.1500  0.9057 -0.6513
 7796TIP3    H244804   6.752   0.755  14.437 -0.8047 -0.0914 -0.1520
 7797TIP3   OH244805   5.275   4.145  16.699 -0.2488  0.0730  0.2302
 7797TIP3    H144806   5.315   4.178  16.780  1.1625 -1.1731  0.0869
 7797TIP3    H244807   5.316   4.060  16.686  0.4240  0.7365 -2.4310
 7798TIP3   OH244808   6.535   2.672  14.751  0.0483  0.4050  0.1902
 7798TIP3    H144809   6.476   2.682  14.676 -2.6219 -1.4947  1.8191
 7798TIP3    H244810   6.581   2.755  14.758 -0.2216  0.9336 -2.9845
 7799TIP3   OH244811   0.370   4.721   3.678 -0.0625  0.4270 -0.2697
 7799TIP3    H144812   0.384   4.628   3.693 -1.1583  0.6162  2.4881
 7799TIP3    H244813   0.291   4.724   3.624 -0.0791 -0.2553 -0.2955
 7800TIP3   OH244814   1.186   1.250  14.201 -0.0769 -0.2826  0.1911
 7800TIP3    H144815   1.246   1.310  14.157 -1.3930  0.9023 -0.0748
 7800TIP3    H244816   1.140   1.206  14.130  0.6786 -1.4513  0.3900
 7801TIP3   OH244817   0.536   1.780   2.929 -0.0770  0.1973 -0.0830
 7801TIP3    H144818   0.507   1.693   2.901 -1.5940  0.5735  0.1960
 7801TIP3    H244819   0.604   1.763   2.994 -1.6519 -0.8800  1.3918
 7802TIP3   OH244820   1.320   0.384   0.116 -0.4963  0.4677  0.0163
 7802TIP3    H144821   1.236   0.343   0.138 -1.7286  1.5657 -2.3150
 7802TIP3    H244822   1.322   0.464   0.169 -1.2772  0.7945 -0.4285
 7803TIP3   OH244823   1.272   4.081   4.358  0.4861 -0.0683  0.1012
 7803TIP3    H144824   1.256   4.014   4.292  1.3838 -1.7447  1.5124
 7803TIP3    H244825   1.195   4.079   4.414 -1.5777  3.2590 -2.2941
 7804TIP3   OH244826   3.018   1.922  17.000 -0.4993  0.1767  0.0789
 7804TIP3    H144827   3.082   1.893  17.065  0.2194  2.1651  0.3368
 7804TIP3    H244828   2.943   1.865  17.013  0.6859 -1.3134  0.7207
 7805TIP3   OH244829   3.705   4.662   0.446 -0.0571 -0.7075 -0.0974
 7805TIP3    H144830   3.653   4.630   0.520  0.0101  2.8529  1.6948
 7805TIP3    H244831   3.640   4.691   0.382 -0.1611 -1.0889 -0.1680
 7806TIP3   OH244832   6.376   4.504   0.796 -0.0285 -0.0530  0.2211
 7806TIP3    H144833   6.289   4.470   0.775  0.0579 -0.9333  1.2201
 7806TIP3    H244834   6.360   4.571   0.862 -0.1081  1.2416 -1.0584
 7807TIP3   OH244835   6.729   1.134   4.764 -0.1440  0.1701  0.6073
 7807TIP3    H144836   6.737   1.202   4.831 -0.1694  0.7840 -0.0001
 7807TIP3    H244837   6.819   1.107   4.746 -0.0459  0.8075  0.0923
 7808TIP3   OH244838   5.482   3.521  13.900  0.4035 -0.4724  0.4471
 7808TIP3    H144839   5.467   3.607  13.941  0.3058  0.1093 -0.7817
 7808TIP3    H244840   5.404   3.507  13.846  0.2604 -1.5048  0.8967
 7809TIP3   OH244841   3.695   3.086   3.031 -0.0257  0.1897  0.6410
 7809TIP3    H144842   3.753   3.103   3.105 -0.4145  1.5893  0.6467
 7809TIP3    H244843   3.659   3.172   3.008 -0.1716 -0.2632 -0.9606
 7810TIP3   OH244844   2.370   0.328   0.809 -0.1653  0.0198  0.0635
 7810TIP3    H144845   2.390   0.243   0.850  0.8965 -0.1984 -0.8446
 7810TIP3    H244846   2.449   0.380   0.822 -0.4675  0.5466 -0.1816
 7811TIP3   OH244847   1.039   4.602  15.940  0.1029  0.0387  0.5308
 7811TIP3    H144848   1.051   4.509  15.918  1.9896  0.0157  1.4641
 7811TIP3    H244849   1.065   4.608  16.032 -0.7647  1.3766  0.7152
 7812TIP3   OH244850   3.735   3.086   3.802  0.9670 -0.0390 -0.2583
 7812TIP3    H144851   3.816   3.051   3.763  2.0729  0.8897  1.0936
 7812TIP3    H244852   3.736   3.179   3.779 -0.4854 -0.2606 -1.4067
 7813TIP3   OH244853   4.823   1.958   4.842  0.2849  0.2208 -0.5456
 7813TIP3    H144854   4.763   1.887   4.817  0.2894  0.2478 -0.6318
 7813TIP3    H244855   4.866   1.983   4.760  1.2605 -0.5743 -0.3095
 7814TIP3   OH244856   4.811   3.985   0.014 -0.4162 -0.1050  0.0624
 7814TIP3    H144857   4.868   4.057   0.039 -0.8994  1.2911 -2.4967
 7814TIP3    H244858   4.722   4.019   0.028 -0.7338 -1.6304  2.3657
 7815TIP3   OH244859   2.112   0.368  13.992  0.1905  0.1488  0.6350
 7815TIP3    H144860   2.094   0.457  14.019  0.5762  0.7567 -1.0090
 7815TIP3    H244861   2.139   0.375  13.901  0.3038 -1.6418  0.4882
 7816TIP3   OH244862   3.254   3.908   4.083  0.5503  0.0967 -0.5664
 7816TIP3    H144863   3.333   3.911   4.029  2.0722 -0.4633  1.4881
 7816TIP3    H244864   3.239   3.999   4.109  0.4004  0.2288 -1.1084
 7817TIP3   OH244865   5.152   6.661   2.674  0.4494  0.0199  0.3815
 7817TIP3    H144866   5.060   6.651   2.699  0.2907 -0.4965 -0.3614
 7817TIP3    H244867   5.185   6.572   2.669  1.3390  0.2473  1.8282
 7818TIP3   OH244868   3.524   3.290   6.863 -0.2147  0.3716 -0.3119
 7818TIP3    H144869   3.461   3.334   6.806 -0.6198 -1.5729 -1.4452
 7818TIP3    H244870   3.471   3.253   6.934 -0.3736 -1.0465 -1.1297
 7819TIP3   OH244871   6.021   5.719   0.760 -0.4917  0.9246  0.2632
 7819TIP3    H144872   6.086   5.702   0.829  0.7975  0.3143 -1.0263
 7819TIP3    H244873   5.939   5.687   0.797 -0.0469  1.5320  1.8842
 7820TIP3   OH244874   3.125   6.021  15.096 -0.4309  0.3262 -0.2779
 7820TIP3    H144875   3.083   5.975  15.023 -0.6548 -0.1066  0.1211
 7820TIP3    H244876   3.150   5.952  15.157 -1.8689  0.7839  0.9066
 7821TIP3   OH244877   0.712   6.659   0.341  0.6432 -0.4535  0.1491
 7821TIP3    H144878   0.746   6.626   0.424  1.3386 -0.4829 -0.1478
 7821TIP3    H244879   0.630   6.612   0.329 -0.4313  0.8789  1.7377
 7822TIP3   OH244880   1.822   1.701  12.069 -0.2578 -0.0717 -0.0855
 7822TIP3    H144881   1.856   1.732  12.153 -1.0236  0.3550  0.0770
 7822TIP3    H244882   1.730   1.680  12.086 -0.1986 -0.8144 -0.6120
 7823TIP3   OH244883   5.619   3.302  12.300  0.9837  0.3049  0.4168
 7823TIP3    H144884   5.652   3.268  12.217  2.6275  1.0018  0.7409
 7823TIP3    H244885   5.530   3.331  12.280  0.4235 -1.8097 -0.4592
 7824TIP3   OH244886   2.249   3.757   1.568  0.3215  0.4517 -0.4866
 7824TIP3    H144887   2.344   3.743   1.564  0.1469 -0.8193 -0.5004
 7824TIP3    H244888   2.211   3.670   1.560 -0.7495  0.0320  4.9609
 7825TIP3   OH244889   1.580   3.659  13.050 -0.5866 -0.3415 -0.1689
 7825TIP3    H144890   1.644   3.688  12.985 -0.7922  0.5506  0.0114
 7825TIP3    H244891   1.516   3.608  12.999  0.1099 -1.0080 -0.3920
 7826TIP3   OH244892   1.566   3.128  16.783  0.1003 -0.0046 -0.1703
 7826TIP3    H144893   1.491   3.174  16.747 -0.2423  0.5790  1.2051
 7826TIP3    H244894   1.609   3.192  16.840 -0.4903 -1.3871  1.9377
 7827TIP3   OH244895   5.699   0.306  11.407  0.0208  0.6648  0.4117
 7827TIP3    H144896   5.685   0.323  11.500  0.3770 -0.4205  0.6875
 7827TIP3    H244897   5.794   0.296  11.398 -0.1185 -0.8717  0.2695
 7828TIP3   OH244898   4.674   1.754  16.544 -0.3197  0.4025 -0.5524
 7828TIP3    H144899   4.650   1.739  16.453  0.6539  2.2346 -1.1532
 7828TIP3    H244900   4.591   1.751  16.591 -1.1028  1.3956 -1.7981
 7829TIP3   OH244901   5.163   4.741  14.950  0.3741 -0.1939 -0.2486
 7829TIP3    H144902   5.130   4.682  14.882  0.6382  0.0364 -0.5846
 7829TIP3    H244903   5.234   4.789  14.907  1.5912 -1.1277  0.6217
 7830TIP3   OH244904   0.263   3.085  11.771 -0.1036  0.2430  0.0690
 7830TIP3    H144905   0.325   3.129  11.830  0.2256  1.1304 -0.8954
 7830TIP3    H244906   0.317   3.055  11.698 -0.7977  1.0424 -0.7958
 7831TIP3   OH244907   5.971   5.523   3.861  0.1422 -0.1479  0.1858
 7831TIP3    H144908   5.940   5.560   3.944 -1.7014  0.8833 -0.9020
 7831TIP3    H244909   5.958   5.592   3.797 -0.3886 -1.6105 -1.3557
 7832TIP3   OH244910   2.987   0.873   2.129 -0.7063  0.0503 -0.4839
 7832TIP3    H144911   2.999   0.782   2.101 -1.6848  0.4055 -2.2241
 7832TIP3    H244912   2.910   0.902   2.081  1.2272  2.6862 -2.2973
 7833TIP3   OH244913   6.327   4.315  12.479  0.2593 -0.6392  0.1650
 7833TIP3    H144914   6.357   4.366  12.555  0.5870 -0.1915 -0.2631
 7833TIP3    H244915   6.405   4.301  12.427  0.1567 -1.5136  0.2276
 7834TIP3   OH244916   1.079   3.723  15.093  0.5779 -0.3749  0.4849
 7834TIP3    H144917   1.162   3.731  15.044  0.2593  2.0544  0.2174
 7834TIP3    H244918   1.099   3.757  15.180 -0.1977  0.5987  0.3027
 7835TIP3   OH244919   0.433   5.251   1.135  0.1974  0.0841 -0.1070
 7835TIP3    H144920   0.452   5.236   1.043 -0.1835  1.1894 -0.3857
 7835TIP3    H244921   0.500   5.203   1.182 -0.1413 -1.2574 -0.9368
 7836TIP3   OH244922   1.849   4.655  16.199 -1.0093  0.3569  0.1094
 7836TIP3    H144923   1.876   4.725  16.140 -2.0106  1.1158  0.5272
 7836TIP3    H244924   1.909   4.661  16.274 -0.4278  0.0856 -0.3294
 7837TIP3   OH244925   2.114   0.575   5.646  0.5760  0.3719 -0.4184
 7837TIP3    H144926   2.204   0.544   5.641  0.4569  0.0629 -0.7276
 7837TIP3    H244927   2.062   0.502   5.612  0.1431  0.2162  0.5520
 7838TIP3   OH244928   3.186   4.846  14.757 -0.0861  0.0365  0.2018
 7838TIP3    H144929   3.235   4.764  14.755  0.0980  0.1698 -1.2509
 7838TIP3    H244930   3.119   4.836  14.690 -1.4128  0.2679  1.4423
 7839TIP3   OH244931   1.148   4.404  13.808  0.0375 -0.4102  0.1373
 7839TIP3    H144932   1.159   4.494  13.839 -0.1734 -0.2747 -0.1735
 7839TIP3    H244933   1.054   4.391  13.806  0.0778 -0.7809  0.5760
 7840TIP3   OH244934   1.457   5.268  11.875  0.2986  0.7498 -0.1423
 7840TIP3    H144935   1.458   5.354  11.917 -0.0423  0.4577  0.4782
 7840TIP3    H244936   1.366   5.255  11.848  0.2394  0.3706  0.2243
 7841TIP3   OH244937   0.691   5.686  13.506  0.1104  0.4816 -0.2079
 7841TIP3    H144938   0.715   5.696  13.598 -0.9864  2.5302 -0.0700
 7841TIP3    H244939   0.700   5.593  13.489 -0.6492 -0.1374  2.2701
 7842TIP3   OH244940   0.424   4.828   5.691  0.6029  0.1174  0.3037
 7842TIP3    H144941   0.511   4.867   5.678  0.0521  0.9007 -1.3164
 7842TIP3    H244942   0.434   4.736   5.665  1.1068  0.0350  0.7886
 7843TIP3   OH244943   0.388   6.199  15.557  0.9797 -0.3418  0.1421
 7843TIP3    H144944   0.357   6.117  15.519  3.7197 -1.0788 -0.7364
 7843TIP3    H244945   0.406   6.255  15.482 -1.2629  1.3403  0.7366
 7844TIP3   OH244946   2.930   5.151  11.849  0.1718  0.4011  0.1072
 7844TIP3    H144947   2.879   5.102  11.914 -0.2585 -1.6203 -1.6508
 7844TIP3    H244948   3.011   5.101  11.840  0.9938  1.6381  0.2994
 7845TIP3   OH244949   3.334   2.300  14.919  0.0897  0.3313  0.6993
 7845TIP3    H144950   3.425   2.329  14.909 -0.2537  1.9256  1.8965
 7845TIP3    H244951   3.341   2.207  14.939  1.4491  0.3656  0.4798
 7846TIP3   OH244952   0.893   1.332  11.787  0.4185 -0.5198  0.1108
 7846TIP3    H144953   0.952   1.258  11.806  0.0244 -0.6859  0.7408
 7846TIP3    H244954   0.872   1.323  11.694  1.3824 -0.4609 -0.1243
 7847TIP3   OH244955   4.724   4.323  12.828 -0.2720 -0.5467  1.2358
 7847TIP3    H144956   4.755   4.374  12.754 -0.6738 -1.5900  0.3135
 7847TIP3    H244957   4.753   4.234  12.810 -2.1187 -1.2097  1.2830
 7848TIP3   OH244958   4.167   4.479  10.548 -0.1782  0.0488 -0.3235
 7848TIP3    H144959   4.245   4.423  10.547  0.6682  1.1426  0.8434
 7848TIP3    H244960   4.185   4.546  10.483 -0.4548 -0.0835 -0.5379
 7849TIP3   OH244961   4.772   6.056  14.398  0.5232  0.0004 -0.2343
 7849TIP3    H144962   4.736   6.141  14.425  0.3572 -0.2778  0.4317
 7849TIP3    H244963   4.827   6.077  14.323  0.4000  0.6871 -0.1451
 7850TIP3   OH244964   6.446   3.660   4.298  0.2910  0.0539  0.2363
 7850TIP3    H144965   6.406   3.685   4.382 -1.5697  1.0534 -0.8734
 7850TIP3    H244966   6.534   3.698   4.301 -0.8652  3.0583  0.4747
 7851TIP3   OH244967   0.051   3.939   1.312 -0.0638  0.4676  0.0098
 7851TIP3    H144968   0.083   3.950   1.401 -1.7485 -0.3577  0.7578
 7851TIP3    H244969   0.024   3.847   1.308 -1.7256  0.9570 -0.7514
 7852TIP3   OH244970   3.587   5.427  15.579 -0.0361  0.1849 -0.5877
 7852TIP3    H144971   3.543   5.461  15.500 -1.1235 -0.0485 -0.0965
 7852TIP3    H244972   3.626   5.505  15.620  0.0873  0.3835 -1.0706
 7853TIP3   OH244973   4.410   1.050  14.704 -0.2382  0.0589  0.5745
 7853TIP3    H144974   4.334   1.028  14.650 -0.7036 -1.3564  1.7406
 7853TIP3    H244975   4.372   1.075  14.789  0.5730 -0.5002  1.1130
 7854TIP3   OH244976   1.256   3.124  12.829 -0.3413 -0.5322 -0.8972
 7854TIP3    H144977   1.163   3.103  12.814 -0.7842  0.2534  0.5220
 7854TIP3    H244978   1.302   3.084  12.755 -1.6292 -2.3517 -0.7765
 7855TIP3   OH244979   4.410   6.144  12.382 -0.2509  0.4646  0.4440
 7855TIP3    H144980   4.475   6.085  12.420 -0.0341 -0.0085 -0.6259
 7855TIP3    H244981   4.418   6.225  12.432  1.0671  0.3676  0.4124
 7856TIP3   OH244982   0.904   1.937   2.719  0.0869  0.1998 -0.0891
 7856TIP3    H144983   0.891   1.843   2.710  0.1357 -0.0540  2.1366
 7856TIP3    H244984   0.874   1.973   2.635  1.1458 -1.8651 -1.4466
 7857TIP3   OH244985   5.001   1.571  14.353  0.5432  0.8033 -0.4807
 7857TIP3    H144986   5.066   1.502  14.371  1.4635  1.7498 -0.1088
 7857TIP3    H244987   5.005   1.628  14.429 -0.2703  1.2341 -0.7583
 7858TIP3   OH244988   3.966   1.165   4.606 -0.4565 -0.3244  0.3271
 7858TIP3    H144989   3.934   1.076   4.590  0.5613 -0.5255 -0.7203
 7858TIP3    H244990   4.055   1.153   4.640  0.9501  0.2874 -2.8373
 7859TIP3   OH244991   0.466   1.439   4.400  0.2262 -0.1612  0.2346
 7859TIP3    H144992   0.451   1.353   4.440  1.5277 -0.3861  0.3015
 7859TIP3    H244993   0.382   1.485   4.409 -0.2777 -1.1575  0.8546
 7860TIP3   OH244994   4.335   0.450  15.164  0.0010  0.0357  0.0134
 7860TIP3    H144995   4.317   0.404  15.082 -0.4740 -1.4804  0.9272
 7860TIP3    H244996   4.279   0.407  15.228 -2.1133  3.2799  0.5850
 7861TIP3   OH244997   0.942   6.473  17.073 -0.0567 -0.5768  1.1083
 7861TIP3    H144998   0.987   6.403  17.120 -0.2522 -1.0910  0.5368
 7861TIP3    H244999   0.856   6.478  17.114 -0.2247 -1.0213  0.8165
 7862TIP3   OH245000   1.209   6.453   0.356 -0.4418  0.1309  0.2304
 7862TIP3    H145001   1.301   6.430   0.369  0.2750  1.4963 -1.9048
 7862TIP3    H245002   1.189   6.513   0.427  0.5822  0.4518  0.2634
 7863TIP3   OH245003   2.896   4.665   5.782 -1.0941 -0.2326  0.3732
 7863TIP3    H145004   2.814   4.710   5.759 -0.0328  2.0612  0.7281
 7863TIP3    H245005   2.946   4.662   5.701 -1.1445 -0.7933  0.3585
 7864TIP3   OH245006   4.616   4.716  14.151  0.2854  0.0728 -0.0590
 7864TIP3    H145007   4.678   4.758  14.211  1.7146 -1.0746 -0.6673
 7864TIP3    H245008   4.670   4.688  14.077 -1.3257  0.8765 -1.6195
 7865TIP3   OH245009   6.642   5.516  16.308  0.1065  0.1191 -0.0988
 7865TIP3    H145010   6.550   5.531  16.286  0.8758  2.1629 -2.4072
 7865TIP3    H245011   6.655   5.562  16.391 -1.0709 -0.8845  0.6868
 7866TIP3   OH245012   5.416   0.855   0.929 -0.4336 -0.3986  0.1087
 7866TIP3    H145013   5.468   0.935   0.926  0.2587 -0.8261  0.5285
 7866TIP3    H245014   5.365   0.856   0.847 -0.9542  0.8045  0.4317
 7867TIP3   OH245015   6.376   5.633  14.355 -0.0831  0.1253  0.5951
 7867TIP3    H145016   6.302   5.690  14.377 -0.8920  0.1092 -1.7672
 7867TIP3    H245017   6.349   5.546  14.382  0.4832  0.5602  2.7320
 7868TIP3   OH245018   4.482   2.709   5.499 -0.3407  0.6809 -0.6984
 7868TIP3    H145019   4.406   2.679   5.548  0.9293 -0.6208  0.5914
 7868TIP3    H245020   4.518   2.629   5.459  2.1700  0.5907  1.4279
 7869TIP3   OH245021   1.320   4.830   0.323 -0.1874  0.2374  0.4496
 7869TIP3    H145022   1.310   4.904   0.382  1.9748  0.6581  0.3751
 7869TIP3    H245023   1.370   4.864   0.249 -3.1800 -0.1632 -1.9366
 7870TIP3   OH245024   4.734   1.018   2.715  0.2461  0.1683  0.6356
 7870TIP3    H145025   4.799   0.963   2.671 -0.2500  1.8176 -2.4405
 7870TIP3    H245026   4.649   0.980   2.690 -0.0600  0.0597  1.7742
 7871TIP3   OH245027   2.903   1.781  11.071 -0.7612  0.3424  0.3397
 7871TIP3    H145028   2.976   1.719  11.069 -1.1698 -0.1189 -1.3943
 7871TIP3    H245029   2.915   1.828  11.154  0.2118 -1.2399  1.1558
 7872TIP3   OH245030   3.645   1.846  14.925 -0.4278 -0.3977 -0.2668
 7872TIP3    H145031   3.662   1.876  15.014 -1.1813  0.8716 -0.5320
 7872TIP3    H245032   3.684   1.914  14.869 -0.6243 -0.8026 -0.9067
 7873TIP3   OH245033   6.092   0.038  13.937  0.3756 -0.1099  0.6846
 7873TIP3    H145034   6.136  -0.043  13.961  0.2379 -0.5082 -0.3484
 7873TIP3    H245035   6.031   0.013  13.868  0.4781  0.8989  0.2066
 7874TIP3   OH245036   3.661   4.906  16.280 -0.3634  0.0208  0.2783
 7874TIP3    H145037   3.608   4.853  16.341 -0.0021 -0.5814  0.0766
 7874TIP3    H245038   3.625   4.994  16.288  0.5196  0.2583  2.3746
 7875TIP3   OH245039   0.367   4.861  16.319  0.2839 -0.0812 -0.0192
 7875TIP3    H145040   0.282   4.836  16.355  0.8037  1.4080  2.5141
 7875TIP3    H245041   0.401   4.781  16.279 -1.3345 -1.3005  0.9197
 7876TIP3   OH245042   1.994   6.233  12.518  0.3026  0.4263 -0.4497
 7876TIP3    H145043   2.085   6.213  12.495 -0.1119 -1.8418 -0.4207
 7876TIP3    H245044   1.964   6.156  12.566 -1.2579  1.6983  0.7345
 7877TIP3   OH245045   3.433   5.594  14.077  0.3120 -0.4374 -0.3493
 7877TIP3    H145046   3.419   5.542  14.156 -1.2203 -0.6637 -0.7379
 7877TIP3    H245047   3.346   5.604  14.039  0.3912  2.9538  0.0355
 7878TIP3   OH245048   3.685   0.718   1.118  0.3115  0.3297 -0.1696
 7878TIP3    H145049   3.749   0.762   1.174  0.0764 -0.4576  0.7522
 7878TIP3    H245050   3.610   0.777   1.115  0.1082  0.1351  0.8223
 7879TIP3   OH245051   2.676   4.189   0.239  0.4546  0.5846  0.0074
 7879TIP3    H145052   2.710   4.191   0.150  1.5247  0.4466  0.4034
 7879TIP3    H245053   2.581   4.179   0.228  0.7723 -2.1567 -1.1076
 7880TIP3   OH245054   1.109   2.073  16.586  0.3499  0.1214  0.2473
 7880TIP3    H145055   1.188   2.126  16.594  0.6145 -0.5011  2.3003
 7880TIP3    H245056   1.038   2.130  16.617 -0.0195  0.6047 -1.3854
 7881TIP3   OH245057   4.615   4.785  15.794  0.2017  0.2018 -0.4593
 7881TIP3    H145058   4.576   4.793  15.707 -0.8217 -1.3728 -0.1839
 7881TIP3    H245059   4.558   4.837  15.851 -0.7351 -0.9730 -0.2930
 7882TIP3   OH245060   2.597   6.473   5.741 -0.2383 -0.2393  0.2652
 7882TIP3    H145061   2.674   6.422   5.716  0.8670  1.7297 -0.6215
 7882TIP3    H245062   2.537   6.463   5.667  0.6162  0.8982 -0.6291
 7883TIP3   OH245063   3.126   1.650   3.515  0.1676  0.4057  0.4084
 7883TIP3    H145064   3.150   1.646   3.608  1.6451 -0.7172  0.0061
 7883TIP3    H245065   3.075   1.571   3.500 -1.0516  1.1465  0.4916
 7884TIP3   OH245066   5.806   0.891   0.353  0.2342 -0.3414  0.2085
 7884TIP3    H145067   5.806   0.981   0.321 -0.7416  0.1395  1.4544
 7884TIP3    H245068   5.843   0.896   0.441  0.8021 -1.2659  0.0324
 7885TIP3   OH245069   3.837   0.737   5.457  0.2604 -0.4289 -0.4195
 7885TIP3    H145070   3.828   0.651   5.417  0.7580 -1.0031  0.6667
 7885TIP3    H245071   3.828   0.721   5.551 -1.4759  0.9561 -0.2942
 7886TIP3   OH245072   0.457   0.397  14.170 -0.3156  0.7616 -0.1583
 7886TIP3    H145073   0.439   0.442  14.253 -0.4789  2.1879 -0.9503
 7886TIP3    H245074   0.426   0.307  14.185 -1.2666  1.2517  0.9841
 7887TIP3   OH245075   3.113   1.496  15.431 -0.7207  0.4170 -0.3297
 7887TIP3    H145076   3.197   1.531  15.461 -1.2610  1.7150 -0.2688
 7887TIP3    H245077   3.049   1.563  15.455 -1.5037  0.3885 -2.1309
 7888TIP3   OH245078   6.300   2.110  17.079  0.5003  0.2475 -0.3410
 7888TIP3    H145079   6.299   2.020  17.109 -0.0666 -0.0270 -1.1415
 7888TIP3    H245080   6.273   2.105  16.987  0.6628  1.2074 -0.4557
 7889TIP3   OH245081   1.678   2.555  12.209 -0.1700 -0.4323  0.4606
 7889TIP3    H145082   1.677   2.614  12.134  1.1379 -0.3989  0.4478
 7889TIP3    H245083   1.602   2.498  12.196 -1.2843  1.0380  0.3167
 7890TIP3   OH245084   6.241   4.215   3.290  0.4109 -0.1047  0.2276
 7890TIP3    H145085   6.234   4.138   3.234 -1.2458  0.6177 -0.5946
 7890TIP3    H245086   6.192   4.191   3.369 -0.4643  0.2338 -0.2001
 7891TIP3   OH245087   3.175   0.250  10.740 -0.4901 -0.7628  0.0807
 7891TIP3    H145088   3.151   0.310  10.669  2.4011  1.6873  0.9593
 7891TIP3    H245089   3.095   0.242  10.792 -0.9160  2.9614  0.2672
 7892TIP3   OH245090   4.510   5.353   0.918  0.6149  0.4366 -0.4567
 7892TIP3    H145091   4.546   5.267   0.938 -0.5786  0.2998  1.2980
 7892TIP3    H245092   4.556   5.412   0.978 -1.6043  0.3243  1.5064
 7893TIP3   OH245093   5.884   1.381  16.797 -0.4654  0.4458  0.0065
 7893TIP3    H145094   5.883   1.375  16.701 -1.2824  1.7387 -0.0912
 7893TIP3    H245095   5.903   1.473  16.815  0.0841  0.1322  1.0998
 7894TIP3   OH245096   1.932   5.947   2.249 -0.0272 -0.3814  0.4694
 7894TIP3    H145097   1.965   5.860   2.224 -1.1168 -0.2067 -1.9362
 7894TIP3    H245098   1.901   5.984   2.166 -0.9049  1.7371  1.6885
 7895TIP3   OH245099   4.715   1.817  14.835  0.1552 -0.1448  0.0469
 7895TIP3    H145100   4.772   1.884  14.872  0.9912 -1.1513  0.6674
 7895TIP3    H245101   4.773   1.766  14.778 -0.3063 -0.7241  0.0833
 7896TIP3   OH245102   3.512   2.153  16.888 -0.2049  0.7384 -0.0626
 7896TIP3    H145103   3.576   2.216  16.854  0.4772  0.9723  1.5364
 7896TIP3    H245104   3.432   2.171  16.840  0.3278  1.9791 -0.5235
 7897TIP3   OH245105   0.682   0.499  15.648 -0.2316 -0.1776  0.4153
 7897TIP3    H145106   0.686   0.407  15.622 -0.9432 -0.4860  1.3403
 7897TIP3    H245107   0.705   0.499  15.741  2.2600  0.9006 -0.1086
 7898TIP3   OH245108   0.385   1.443  12.068 -0.6188  0.2767  0.0099
 7898TIP3    H145109   0.389   1.353  12.101 -0.4031  0.5317  0.6799
 7898TIP3    H245110   0.417   1.497  12.140  0.0491  0.8249 -0.6883
 7899TIP3   OH245111   2.910   0.719   1.854 -0.0074  0.3623 -0.2602
 7899TIP3    H145112   2.939   0.638   1.895 -0.0106  0.1130 -0.7547
 7899TIP3    H245113   2.839   0.749   1.911  1.3214  1.1026  1.0946
 7900TIP3   OH245114   2.233   3.281  11.165  0.6258  0.3252  0.0660
 7900TIP3    H145115   2.159   3.220  11.153  0.7090  0.2248  0.0646
 7900TIP3    H245116   2.268   3.259  11.251 -0.2776  1.3749  0.7243
 7901TIP3   OH245117   5.608   0.151   4.253  0.1716  0.3571 -0.3152
 7901TIP3    H145118   5.633   0.060   4.269 -0.7489  0.0696 -0.4689
 7901TIP3    H245119   5.684   0.189   4.209  0.3849 -0.4642 -0.6764
 7902TIP3   OH245120   6.185   4.662   4.613  0.0977 -0.0742  0.2555
 7902TIP3    H145121   6.139   4.658   4.697 -1.8430 -1.0722 -0.7821
 7902TIP3    H245122   6.133   4.608   4.554  0.0098  2.4736 -2.2454
 7903TIP3   OH245123   2.624   3.461   4.554  0.3885 -0.6075 -0.0093
 7903TIP3    H145124   2.680   3.410   4.612  1.5009 -0.3320 -0.7919
 7903TIP3    H245125   2.646   3.552   4.574 -1.1028 -0.4205  0.9190
 7904TIP3   OH245126   5.538   5.189   4.190 -0.5717 -0.2531  0.3788
 7904TIP3    H145127   5.621   5.143   4.181 -0.3318  0.2577 -0.0273
 7904TIP3    H245128   5.474   5.120   4.207 -0.4091 -0.8688 -1.3641
 7905TIP3   OH245129   3.068   5.051  13.952  0.0041  0.0660 -0.1933
 7905TIP3    H145130   3.146   5.101  13.927  0.1122  1.4045  2.4037
 7905TIP3    H245131   3.102   4.980  14.007 -0.4361 -0.8363 -1.0658
 7906TIP3   OH245132   4.997   4.358   2.959 -0.0061 -0.2493 -0.0415
 7906TIP3    H145133   4.952   4.276   2.978 -0.7297  0.1246 -0.1005
 7906TIP3    H245134   4.938   4.404   2.899  0.4582  0.2500 -0.1210
 7907TIP3   OH245135   5.567   6.388  15.247  0.1320 -0.0574  0.5562
 7907TIP3    H145136   5.652   6.345  15.232 -1.1031 -2.0098 -1.2827
 7907TIP3    H245137   5.568   6.407  15.341  3.0877  1.1753  0.4085
 7908TIP3   OH245138   2.643   2.552  16.293  0.2579 -0.1118 -0.2321
 7908TIP3    H145139   2.631   2.646  16.276 -0.1217 -0.4318 -1.8922
 7908TIP3    H245140   2.554   2.516  16.291  0.4992 -0.6828 -0.7790
 7909TIP3   OH245141   2.835   3.770   2.371 -0.7407  0.6322 -0.4751
 7909TIP3    H145142   2.831   3.675   2.363  4.5587  0.0660  0.0765
 7909TIP3    H245143   2.812   3.802   2.284 -0.3370 -1.3387 -1.3576
 7910TIP3   OH245144   3.610   0.465   1.462 -0.4571  0.1096  0.2230
 7910TIP3    H145145   3.609   0.487   1.369 -0.4198  0.7932  0.3746
 7910TIP3    H245146   3.613   0.550   1.506 -2.7308 -0.0822  0.9066
 7911TIP3   OH245147   0.950   2.796  11.644 -0.2149 -0.3039 -0.5847
 7911TIP3    H145148   0.997   2.717  11.667 -3.5426 -2.2671  0.2097
 7911TIP3    H245149   0.947   2.848  11.724  0.0994 -0.4402 -0.4868
 7912TIP3   OH245150   3.112   3.062   5.023  0.1998 -0.1848 -0.5409
 7912TIP3    H145151   3.203   3.082   5.000  0.0598  1.4197  0.1958
 7912TIP3    H245152   3.119   2.989   5.085  1.0008 -0.0418 -0.4455
 7913TIP3   OH245153   2.183   4.551  13.323 -0.1861  0.0466  0.1949
 7913TIP3    H145154   2.181   4.614  13.251  0.0859 -0.3359 -0.1496
 7913TIP3    H245155   2.120   4.586  13.387  1.2469  1.6129  0.8143
 7914TIP3   OH245156   3.823   3.329   2.365 -0.4033 -0.7528 -0.2589
 7914TIP3    H145157   3.833   3.404   2.424 -2.5809 -0.0797 -0.6431
 7914TIP3    H245158   3.855   3.255   2.416 -0.9408  0.0125  1.2873
 7915TIP3   OH245159   2.064   0.209   5.561 -0.5208  0.2639  0.2967
 7915TIP3    H145160   2.031   0.253   5.483 -1.3785 -2.0931 -0.7624
 7915TIP3    H245161   2.141   0.161   5.531 -0.9600 -0.8132  0.8384
 7916TIP3   OH245162   5.104   1.141  16.606  0.5603 -0.0956 -0.0717
 7916TIP3    H145163   5.041   1.128  16.677  1.7490 -0.5820  0.9480
 7916TIP3    H245164   5.175   1.079  16.626  0.0117 -1.8102 -2.8353
 7917TIP3   OH245165   2.304   6.077  11.336 -0.5343  0.3700  0.5184
 7917TIP3    H145166   2.221   6.094  11.381 -1.6905 -1.1199 -0.9359
 7917TIP3    H245167   2.279   6.035  11.254  1.6050  1.1844 -0.6419
 7918TIP3   OH245168   4.407   5.199  13.622  0.2312  0.2433 -0.4710
 7918TIP3    H145169   4.344   5.265  13.591  2.0315  1.3901 -1.9098
 7918TIP3    H245170   4.402   5.129  13.557 -1.7145 -1.1996  1.0815
 7919TIP3   OH245171   5.664   3.188   1.368 -0.0992  0.0986 -0.2236
 7919TIP3    H145172   5.657   3.196   1.273  0.8403 -0.8416 -0.3853
 7919TIP3    H245173   5.688   3.097   1.383 -1.6456 -0.1400  1.0089
 7920TIP3   OH245174   3.282   6.475   1.762 -0.1713 -0.1879 -0.2717
 7920TIP3    H145175   3.289   6.492   1.856 -0.8967 -3.3390  0.4804
 7920TIP3    H245176   3.196   6.511   1.739 -0.6148 -0.6383  0.6133
 7921TIP3   OH245177   2.543   5.671   6.463 -0.1190 -0.3759 -0.3949
 7921TIP3    H145178   2.473   5.658   6.399 -0.7773  0.0604  0.2182
 7921TIP3    H245179   2.512   5.629   6.542  0.1471  0.1421 -0.0058
 7922TIP3   OH245180   5.283   6.701   0.021  0.0191 -0.0581 -0.2501
 7922TIP3    H145181   5.304   6.748   0.102 -1.6874 -0.4274  0.4488
 7922TIP3    H245182   5.208   6.646   0.044 -1.1804  0.5782 -2.3336
 7923TIP3   OH245183   1.827   2.427  13.679  0.2776 -0.2101 -0.4114
 7923TIP3    H145184   1.906   2.425  13.732 -0.2538  0.3408  0.4230
 7923TIP3    H245185   1.807   2.520  13.669  1.7187 -0.1117 -3.6954
 7924TIP3   OH245186   4.797   0.262   5.084  0.8301 -0.3241  0.1660
 7924TIP3    H145187   4.773   0.214   5.004 -0.0738  0.7745 -0.2459
 7924TIP3    H245188   4.790   0.197   5.154 -1.6158 -0.5704 -0.1961
 7925TIP3   OH245189   5.169   4.925   1.574 -0.0601 -0.6674 -0.1449
 7925TIP3    H145190   5.105   4.881   1.630 -0.2585 -3.6644 -2.5146
 7925TIP3    H245191   5.117   4.982   1.518 -0.3027 -0.7564 -0.0140
 7926TIP3   OH245192   2.814   2.136  16.147  0.4492  0.0031  0.3324
 7926TIP3    H145193   2.856   2.088  16.075 -2.4870 -1.1948 -0.7592
 7926TIP3    H245194   2.833   2.228  16.129  1.8830 -0.4316 -0.5159
 7927TIP3   OH245195   5.168   2.483  12.488 -0.0516 -0.2142 -0.2136
 7927TIP3    H145196   5.208   2.400  12.462 -0.7452 -0.8819  0.7644
 7927TIP3    H245197   5.080   2.480  12.450 -1.2744 -1.4409  2.4540
 7928TIP3   OH245198   6.653   5.043  16.774  0.2188  0.2131  0.2295
 7928TIP3    H145199   6.671   5.061  16.682  1.0550 -0.3976  0.2564
 7928TIP3    H245200   6.676   5.125  16.819 -1.5726  1.0172 -0.2260
 7929TIP3   OH245201   1.985   4.709  11.114  0.0135 -0.7123 -0.4061
 7929TIP3    H145202   1.932   4.641  11.072 -0.3674  0.2683 -1.5946
 7929TIP3    H245203   2.071   4.700  11.073  0.2716 -1.1549  0.2211
 7930TIP3   OH245204   4.161   0.243   4.157  0.7296 -0.5744  0.2100
 7930TIP3    H145205   4.250   0.278   4.145  1.1205 -1.5542  0.2068
 7930TIP3    H245206   4.107   0.321   4.171  1.6209  0.0235  0.4223
 7931TIP3   OH245207   5.564   5.702   4.190  0.9270 -0.0149  0.1811
 7931TIP3    H145208   5.542   5.651   4.268  0.7339  0.3419  0.3655
 7931TIP3    H245209   5.479   5.727   4.154  1.0158 -0.2654 -0.2009
 7932TIP3   OH245210   0.549   6.266   4.608  0.1592  0.0063 -0.0312
 7932TIP3    H145211   0.571   6.174   4.599  0.4188  0.2219 -2.2824
 7932TIP3    H245212   0.497   6.286   4.530 -3.3173  0.8860  2.2704
 7933TIP3   OH245213   2.529   3.810   3.494  0.1641  0.0764 -0.1305
 7933TIP3    H145214   2.527   3.752   3.417 -0.3685 -0.4385  0.2652
 7933TIP3    H245215   2.437   3.821   3.517  0.3676 -0.7073  1.1255
 7934TIP3   OH245216   3.584   4.177  13.785  0.4644 -0.6559  0.5094
 7934TIP3    H145217   3.519   4.117  13.820  0.0071  0.3422  1.4162
 7934TIP3    H245218   3.667   4.150  13.824  0.9737 -2.9572 -1.8824
 7935TIP3   OH245219   0.623   4.728  10.452 -0.4408 -0.1293 -0.2795
 7935TIP3    H145220   0.579   4.661  10.400 -0.2212 -0.0789 -0.5347
 7935TIP3    H245221   0.625   4.693  10.541  0.6710 -0.9664 -0.6096
 7936TIP3   OH245222   4.182   5.837   4.634  0.5988  0.1116  0.0107
 7936TIP3    H145223   4.107   5.871   4.682  1.3622  0.1216  1.2318
 7936TIP3    H245224   4.145   5.803   4.553 -0.5992  0.9225  0.1900
 7937TIP3   OH245225   2.794   6.339   5.574 -0.5542  0.3103  0.1118
 7937TIP3    H145226   2.852   6.392   5.629  1.4154 -0.6516 -0.9244
 7937TIP3    H245227   2.762   6.270   5.632  0.7714 -0.1517  0.3483
 7938TIP3   OH245228   6.103   6.770  11.554  0.6085  0.1728  0.2092
 7938TIP3    H145229   6.110   6.707  11.482 -1.1727  2.1180 -1.8385
 7938TIP3    H245230   6.042   6.729  11.616 -0.4486 -0.2018 -1.0292
 7939TIP3   OH245231   3.135   0.196   6.667 -0.2170 -0.0631 -0.6516
 7939TIP3    H145232   3.077   0.178   6.593  0.4866  0.4998 -1.3637
 7939TIP3    H245233   3.181   0.114   6.683 -0.4795 -0.2274 -0.7357
 7940TIP3   OH245234   1.561   4.864   3.413 -0.4731 -0.7913 -0.2606
 7940TIP3    H145235   1.518   4.910   3.342 -0.1699 -0.6733 -0.3678
 7940TIP3    H245236   1.650   4.899   3.415 -0.3454 -1.1167 -0.1147
 7941TIP3   OH245237   5.144   4.890   4.912 -0.4430  0.2398  0.1162
 7941TIP3    H145238   5.220   4.931   4.954 -1.0093  1.6680 -0.2276
 7941TIP3    H245239   5.179   4.849   4.833 -0.1933  1.9209 -0.6849
 7942TIP3   OH245240   3.139   3.452  15.714 -0.3635  0.3819 -0.0124
 7942TIP3    H145241   3.124   3.501  15.795 -0.2839 -1.9708  1.5512
 7942TIP3    H245242   3.210   3.391  15.736  0.4943  0.5079 -2.2675
 7943TIP3   OH245243   0.729   1.428   4.291 -0.7142 -0.5347  0.1089
 7943TIP3    H145244   0.639   1.443   4.318 -0.7700 -0.4512 -0.1235
 7943TIP3    H245245   0.723   1.374   4.212 -0.5642 -0.5017  0.0738
 7944TIP3   OH245246   1.936   3.411   1.203 -0.0108  0.4035  0.1999
 7944TIP3    H145247   1.877   3.345   1.240 -0.6602  0.5440 -0.5466
 7944TIP3    H245248   1.890   3.494   1.215  1.0780  0.8314  1.7024
 7945TIP3   OH245249   1.253   5.961   4.030  0.2134  0.1219 -0.2915
 7945TIP3    H145250   1.242   5.928   4.120  1.6086  0.9260  0.2051
 7945TIP3    H245251   1.234   5.886   3.975  1.4115 -1.0125  0.7602
 7946TIP3   OH245252   1.867   2.049  15.244  0.3811  1.1946 -0.3351
 7946TIP3    H145253   1.940   2.108  15.226  0.8561  1.7605  2.7911
 7946TIP3    H245254   1.907   1.964  15.258  0.1495  0.9784 -0.9664
 7947TIP3   OH245255   3.161   1.618  14.248 -0.1540 -0.5124 -0.4357
 7947TIP3    H145256   3.203   1.547  14.296 -2.2040 -1.0019  0.7731
 7947TIP3    H245257   3.145   1.685  14.315 -0.5982 -0.0165 -1.0277
 7948TIP3   OH245258   5.273   1.333   0.947 -0.4505  0.3272 -0.7071
 7948TIP3    H145259   5.188   1.338   0.991 -1.1841 -1.6877 -1.7640
 7948TIP3    H245260   5.323   1.272   1.001  0.4065  1.5528 -0.0564
 7949TIP3   OH245261   2.610   0.690  11.062  0.2502  0.3847  0.2864
 7949TIP3    H145262   2.584   0.609  11.019  1.4303 -0.0094  0.2863
 7949TIP3    H245263   2.660   0.662  11.139 -0.4932  1.1012  1.0494
 7950TIP3   OH245264   1.947   6.211   2.402 -0.1068 -0.8544 -0.3403
 7950TIP3    H145265   2.004   6.135   2.396 -1.0194 -1.5066 -0.9666
 7950TIP3    H245266   2.004   6.286   2.386  1.0550 -1.2750  1.4973
 7951TIP3   OH245267   3.538   0.067  17.004  0.6123 -0.1198  0.1743
 7951TIP3    H145268   3.508  -0.021  17.028  0.5075 -0.0021  0.4832
 7951TIP3    H245269   3.552   0.063  16.909 -1.4947  0.1490 -0.1895
 7952TIP3   OH245270   3.446   4.463  16.681 -0.3767 -0.9223  0.5483
 7952TIP3    H145271   3.378   4.401  16.655 -0.0947 -1.3388  0.7851
 7952TIP3    H245272   3.438   4.535  16.619  0.6401 -2.1365 -1.0985
 7953TIP3   OH245273   1.076   6.768  12.397  0.1056  0.1491  0.4380
 7953TIP3    H145274   0.988   6.805  12.391  0.2324  0.4383  0.3095
 7953TIP3    H245275   1.133   6.838  12.363  0.3936  0.0092  0.6330
 7954TIP3   OH245276   6.452   2.041   2.700  0.1267 -0.4202  0.0791
 7954TIP3    H145277   6.381   1.988   2.663 -2.5784  3.0417 -0.1988
 7954TIP3    H245278   6.471   2.000   2.785 -1.4404 -2.0606 -0.2934
 7955TIP3   OH245279   2.439   1.941   4.881 -0.3492  0.2636 -0.1919
 7955TIP3    H145280   2.392   1.893   4.949 -0.1060  1.3955  0.8229
 7955TIP3    H245281   2.370   1.980   4.827 -0.6108  1.4040  0.9197
 7956TIP3   OH245282   0.150   2.924  16.248 -0.4988  0.3169 -0.1763
 7956TIP3    H145283   0.126   2.967  16.330 -0.4855  0.5097 -0.2726
 7956TIP3    H245284   0.245   2.918  16.252 -0.4163  1.2060 -0.6095
 7957TIP3   OH245285   3.019   0.465   5.446 -0.4469 -0.3952  0.2123
 7957TIP3    H145286   2.967   0.466   5.526  1.0053 -0.2924  1.1982
 7957TIP3    H245287   3.110   0.471   5.476  0.0841  1.8035 -1.5020
 7958TIP3   OH245288   5.750   5.119   5.091  0.3672  0.4220 -0.4172
 7958TIP3    H145289   5.677   5.182   5.087  1.5495  1.8730 -0.1097
 7958TIP3    H245290   5.718   5.043   5.043 -2.3953 -0.1498  2.0183
 7959TIP3   OH245291   0.295   4.190   4.097 -0.3710  0.2338 -0.2111
 7959TIP3    H145292   0.255   4.182   4.184 -0.0304  1.7610  0.1171
 7959TIP3    H245293   0.225   4.224   4.042 -0.7635 -1.3047 -0.7122
 7960TIP3   OH245294   2.782   6.471  12.934  0.1399 -0.2767 -0.3424
 7960TIP3    H145295   2.832   6.527  12.874  0.9820 -0.9342 -0.2733
 7960TIP3    H245296   2.712   6.434  12.880  0.3308 -0.1355 -0.6903
 7961TIP3   OH245297   5.154   5.716   6.641  0.0935  0.6273  0.7035
 7961TIP3    H145298   5.189   5.629   6.626 -1.8842 -0.3480  1.3534
 7961TIP3    H245299   5.083   5.725   6.578  0.7170  2.0739  0.1669
 7962TIP3   OH245300   1.408   6.097   1.498 -0.1204 -0.4201 -0.1432
 7962TIP3    H145301   1.386   6.187   1.472 -1.6692 -0.4432  0.9225
 7962TIP3    H245302   1.391   6.095   1.592  1.2339 -1.4736  0.1024
 7963TIP3   OH245303   2.581   5.947  12.560  0.1186  0.6251 -0.4857
 7963TIP3    H145304   2.604   5.972  12.470 -2.7407  0.6374 -1.3156
 7963TIP3    H245305   2.532   6.021  12.594  1.2689  0.6695  1.1888
 7964TIP3   OH245306   0.221   4.918  13.951 -0.0221 -0.1200 -0.3153
 7964TIP3    H145307   0.157   4.855  13.983 -0.3485  1.3404  2.1290
 7964TIP3    H245308   0.305   4.882  13.979 -0.2334  0.6247  1.4098
 7965TIP3   OH245309   1.911   2.496   5.095 -0.2744 -0.7535 -0.7223
 7965TIP3    H145310   1.833   2.510   5.041  0.2945  0.5922 -1.2359
 7965TIP3    H245311   1.936   2.584   5.125  0.1030 -1.3387  0.7986
 7966TIP3   OH245312   4.587   1.017  15.524  0.1086  0.6217  0.6308
 7966TIP3    H145313   4.589   1.060  15.439 -1.1550 -0.1079  0.2077
 7966TIP3    H245314   4.553   1.084  15.584 -1.2743  0.4198  0.0922
 7967TIP3   OH245315   6.418   4.023  12.142 -0.1600  0.2014  0.3775
 7967TIP3    H145316   6.447   3.970  12.067  0.1093  0.6134  0.1907
 7967TIP3    H245317   6.399   4.109  12.105  2.8282  1.3239  1.2265
 7968TIP3   OH245318   1.431   0.243  15.308  0.4510 -0.2724 -0.3864
 7968TIP3    H145319   1.446   0.201  15.392  1.1349 -2.2206 -1.4105
 7968TIP3    H245320   1.453   0.335  15.322 -0.7911 -0.2584  1.8846
 7969TIP3   OH245321   6.084   4.839  17.197  0.5273 -0.2494 -0.3349
 7969TIP3    H145322   6.143   4.909  17.224  1.3747 -0.3025 -1.9169
 7969TIP3    H245323   6.007   4.885  17.162 -0.3412 -0.1792  1.5463
 7970TIP3   OH245324   4.482   3.251   0.239  0.0149  0.1026  0.4265
 7970TIP3    H145325   4.493   3.162   0.274 -1.6809  0.4165  1.8999
 7970TIP3    H245326   4.427   3.239   0.161  0.9725 -0.2609 -0.2067
 7971TIP3   OH245327   4.930   2.492  13.666 -0.1228  0.3576  0.3977
 7971TIP3    H145328   4.880   2.572  13.649  0.1640  0.9905  2.2325
 7971TIP3    H245329   5.017   2.511  13.631 -0.7415 -0.2004 -1.5268
 7972TIP3   OH245330   1.713   2.098  13.370 -0.0718 -0.0363 -0.1366
 7972TIP3    H145331   1.708   2.131  13.460  0.2229 -0.9871  0.2400
 7972TIP3    H245332   1.622   2.089  13.342 -0.3600 -3.2274  1.4091
 7973TIP3   OH245333   2.771   6.740   5.765 -0.6253 -0.7428 -0.3431
 7973TIP3    H145334   2.780   6.697   5.850 -2.6398  0.0856  0.3757
 7973TIP3    H245335   2.769   6.669   5.702 -0.6303 -1.4889  0.4766
 7974TIP3   OH245336   5.454   4.544  10.996  0.2658  0.0609  0.0467
 7974TIP3    H145337   5.453   4.451  10.972  1.1515  0.2857 -0.9438
 7974TIP3    H245338   5.493   4.587  10.920 -0.5920  1.3058  0.2989
 7975TIP3   OH245339   3.472   1.357   0.128  0.3957  0.2898  0.4327
 7975TIP3    H145340   3.412   1.404   0.071 -0.0076 -0.7835 -0.0344
 7975TIP3    H245341   3.547   1.416   0.137 -0.2646  1.1884  0.1813
 7976TIP3   OH245342   5.302   4.213  12.993  0.3585 -0.7982  0.0917
 7976TIP3    H145343   5.370   4.156  13.030 -0.7291 -1.4767  1.1477
 7976TIP3    H245344   5.254   4.157  12.932  1.5389  0.0553 -1.7117
 7977TIP3   OH245345   5.064   0.203  15.475 -0.4134  0.1819  0.6380
 7977TIP3    H145346   5.137   0.265  15.472 -0.6737  0.5616  1.8562
 7977TIP3    H245347   5.086   0.142  15.546 -0.9534 -0.1137  0.5600
 7978TIP3   OH245348   0.864   3.783  15.323 -0.7790  0.2379  0.4847
 7978TIP3    H145349   0.871   3.867  15.278 -0.2517  1.6039  2.8983
 7978TIP3    H245350   0.770   3.768  15.332 -0.8854  0.9927  0.7112
 7979TIP3   OH245351   4.850   4.212   0.126  0.5018  0.7549  0.5513
 7979TIP3    H145352   4.906   4.279   0.165 -0.2014  2.7029 -1.5189
 7979TIP3    H245353   4.762   4.236   0.152  0.3679 -0.6512  1.4989
 7980TIP3   OH245354   1.913   1.784   0.617  0.5217 -0.1808 -0.2878
 7980TIP3    H145355   1.889   1.769   0.526 -0.1525  0.1767 -0.1797
 7980TIP3    H245356   1.848   1.733   0.666 -0.5688  1.4733  0.0422
 7981TIP3   OH245357   6.517   5.750   3.914 -0.0456 -0.1440 -0.1504
 7981TIP3    H145358   6.500   5.817   3.979 -0.4972 -1.6300  1.3406
 7981TIP3    H245359   6.441   5.691   3.919  0.5963 -1.0961 -0.9737
 7982TIP3   OH245360   6.301   4.103  13.844 -0.4081  0.0915  0.2205
 7982TIP3    H145361   6.312   4.186  13.798  0.2496  0.0285  0.2513
 7982TIP3    H245362   6.224   4.064  13.804  0.8788 -0.5611 -1.7904
 7983TIP3   OH245363   1.280   2.632  12.904  0.1662  0.3722  0.1266
 7983TIP3    H145364   1.276   2.579  12.824  2.5171  0.8184 -0.3451
 7983TIP3    H245365   1.204   2.691  12.897 -0.2689 -0.3150 -1.2459
 7984TIP3   OH245366   1.429   5.534  15.855 -0.1726  0.3236 -0.0393
 7984TIP3    H145367   1.507   5.485  15.882  0.6014  0.4782 -1.8174
 7984TIP3    H245368   1.443   5.622  15.890  1.9039  1.1431 -2.6330
 7985TIP3   OH245369   1.769   6.729  12.260  0.6128  0.4877 -0.4570
 7985TIP3    H145370   1.797   6.808  12.306 -0.9531  0.8846 -0.1357
 7985TIP3    H245371   1.789   6.658  12.320  0.3238  0.8238  0.0446
 7986TIP3   OH245372   5.435   2.982  16.158  0.4185  0.0573  0.8621
 7986TIP3    H145373   5.450   3.022  16.073  1.7030 -0.4367  0.8293
 7986TIP3    H245374   5.352   2.936  16.149  2.1782 -3.0916 -1.3869
 7987TIP3   OH245375   0.507   2.797   4.564 -0.1820  0.6125 -0.5685
 7987TIP3    H145376   0.484   2.743   4.488  0.4353  0.4601 -0.6519
 7987TIP3    H245377   0.602   2.798   4.564 -0.1853  0.9740 -0.0446
 7988TIP3   OH245378   5.826   1.545  11.772  0.8516  0.0173 -0.0469
 7988TIP3    H145379   5.738   1.514  11.796  0.9126 -0.8964 -0.9263
 7988TIP3    H245380   5.822   1.640  11.784  0.1658 -0.1540  1.2125
 7989TIP3   OH245381   2.586   6.468   4.981 -0.2332  0.4045  0.0626
 7989TIP3    H145382   2.663   6.411   4.978  0.0805  0.8514 -0.6632
 7989TIP3    H245383   2.530   6.430   5.048  0.1772 -0.4972 -0.0981
 7990TIP3   OH245384   0.682   2.162   0.297  0.1098  0.0386  0.2377
 7990TIP3    H145385   0.720   2.115   0.371 -0.9788  0.3763  1.0339
 7990TIP3    H245386   0.593   2.183   0.325 -1.2149 -1.9252 -2.0549
 7991TIP3   OH245387   1.401   5.366   6.490 -0.1043  0.4572  0.1192
 7991TIP3    H145388   1.397   5.459   6.510  0.5889  0.8498 -1.4037
 7991TIP3    H245389   1.340   5.325   6.552 -0.4029  1.9049  0.8224
 7992TIP3   OH245390   2.203   4.266  12.095 -0.6689  0.6748  0.0696
 7992TIP3    H145391   2.252   4.185  12.101 -1.4526  0.1365 -0.5950
 7992TIP3    H245392   2.140   4.251  12.025 -1.9516  1.2435  1.0519
 7993TIP3   OH245393   3.288   4.651  13.361  0.2821  0.4715 -0.7755
 7993TIP3    H145394   3.296   4.624  13.270 -0.8899  0.5339 -0.9165
 7993TIP3    H245395   3.272   4.569  13.408  0.3192  0.5047 -0.7050
 7994TIP3   OH245396   1.978   2.252   1.037 -0.2446 -0.1898  0.0054
 7994TIP3    H145397   2.060   2.265   1.085  0.0398  0.6463 -0.6894
 7994TIP3    H245398   1.950   2.163   1.062  0.9980 -0.5917  0.0479
 7995TIP3   OH245399   2.337   5.940   5.510  0.0529  0.6509 -0.2633
 7995TIP3    H145400   2.267   5.996   5.476 -0.3640  1.0786  1.2230
 7995TIP3    H245401   2.313   5.852   5.481 -1.4034  0.7164  0.6354
 7996TIP3   OH245402   1.746   4.439  16.398  0.0982 -0.1923  0.1547
 7996TIP3    H145403   1.834   4.400  16.397 -0.4947 -1.6803 -2.3531
 7996TIP3    H245404   1.725   4.454  16.306 -1.5587  1.9475  0.7909
 7997TIP3   OH245405   3.700   0.859   2.913  0.6803 -0.7235 -1.0763
 7997TIP3    H145406   3.766   0.809   2.962  0.4979  0.3513  0.3380
 7997TIP3    H245407   3.714   0.835   2.822  2.5056 -1.1415 -0.7214
 7998TIP3   OH245408   5.789   5.231   5.429  0.1554  0.8973 -0.5205
 7998TIP3    H145409   5.700   5.245   5.395  0.4129  1.5881 -0.9229
 7998TIP3    H245410   5.799   5.136   5.430  0.1275  0.8267 -2.3949
 7999TIP3   OH245411   5.794   3.737   3.636 -0.1229  0.0574  0.4520
 7999TIP3    H145412   5.729   3.717   3.703 -1.4402  0.5497 -0.6338
 7999TIP3    H245413   5.868   3.680   3.657  0.0403  1.0874  3.0491
 8000TIP3   OH245414   4.430   0.221  15.699 -0.3200  0.4036  0.0000
 8000TIP3    H145415   4.346   0.266  15.702 -0.9089 -0.7211  0.9227
 8000TIP3    H245416   4.472   0.244  15.782 -0.0769  0.2716 -0.0862
 8001TIP3   OH245417   2.101   3.932   1.233  0.5457 -0.6769 -0.0236
 8001TIP3    H145418   2.045   3.967   1.164  0.7721  0.0693  0.1663
 8001TIP3    H245419   2.159   3.870   1.188  2.5657  1.7803 -1.0670
 8002TIP3   OH245420   5.739   2.573  12.485 -0.1862 -0.1487 -0.1523
 8002TIP3    H145421   5.777   2.656  12.455  0.3231  0.0022  0.8707
 8002TIP3    H245422   5.811   2.510  12.482 -0.1052 -0.1151  0.7745
 8003TIP3   OH245423   5.935   3.164  15.610 -0.1972  0.1156 -0.3305
 8003TIP3    H145424   5.989   3.173  15.531  1.6979 -0.2732  0.8427
 8003TIP3    H245425   5.894   3.250  15.621  0.2331  0.4536 -1.2482
 8004TIP3   OH245426   4.548   3.860  15.230  0.2122 -0.0647  0.4556
 8004TIP3    H145427   4.464   3.863  15.277 -0.7956  0.7419 -1.3130
 8004TIP3    H245428   4.546   3.776  15.183  0.3413  0.0200  0.3005
 8005TIP3   OH245429   0.371   5.016  15.307  0.2289  0.4251 -0.1329
 8005TIP3    H145430   0.343   5.095  15.261  2.9699  1.8748  0.4377
 8005TIP3    H245431   0.455   4.994  15.266  0.9777 -0.3726  1.7343
 8006TIP3   OH245432   2.568   1.062   1.751 -0.3693  0.2869 -0.5242
 8006TIP3    H145433   2.504   1.056   1.822 -0.0787  0.4685 -0.2425
 8006TIP3    H245434   2.602   0.974   1.742 -1.1081  0.0495 -1.1018
 8007TIP3   OH245435   4.633   0.517  15.735 -0.5700 -0.2752 -0.3765
 8007TIP3    H145436   4.556   0.573  15.723  0.9575  2.7036  2.0516
 8007TIP3    H245437   4.702   0.561  15.686  0.2560 -1.2049 -0.0730
 8008TIP3   OH245438   4.937   2.623   0.411 -0.7250 -0.2388  0.1343
 8008TIP3    H145439   5.005   2.689   0.403 -0.9103 -0.1911 -1.1913
 8008TIP3    H245440   4.923   2.591   0.322 -0.5568 -2.1575  0.7449
 8009TIP3   OH245441   6.218   4.596  14.100 -0.5996 -0.3528 -0.1767
 8009TIP3    H145442   6.131   4.601  14.060 -0.3124 -2.8962 -1.3570
 8009TIP3    H245443   6.270   4.544  14.038  0.6906 -2.0546  2.1479
 8010TIP3   OH245444   0.582   1.346  12.490 -0.2078  0.7342 -0.2474
 8010TIP3    H145445   0.671   1.327  12.459 -0.4335  1.1704 -1.1864
 8010TIP3    H245446   0.593   1.419  12.551  0.1978  0.1237  0.4149
 8011TIP3   OH245447   0.285   0.175  10.779  0.6780 -0.1532 -0.1035
 8011TIP3    H145448   0.332   0.099  10.814  1.6134  1.6541  3.0470
 8011TIP3    H245449   0.205   0.180  10.832 -0.0776  0.2915 -1.2402
 8012TIP3   OH245450   5.855   1.677  13.620 -0.5440  0.3833  0.0778
 8012TIP3    H145451   5.867   1.761  13.663 -1.7409  0.2610  0.6844
 8012TIP3    H245452   5.787   1.692  13.554  0.1384  0.1844 -0.6929
 8013TIP3   OH245453   1.856   6.191  16.302 -0.0021  0.3299 -0.1604
 8013TIP3    H145454   1.826   6.114  16.351 -1.3137  0.3596 -0.8673
 8013TIP3    H245455   1.804   6.263  16.338 -1.3723  0.2639 -1.8906
 8014TIP3   OH245456   6.384   2.621  17.107 -0.5227  0.3899 -0.0988
 8014TIP3    H145457   6.477   2.597  17.106 -1.0249 -1.8549  0.8973
 8014TIP3    H245458   6.359   2.624  17.015  0.5084  0.9439 -0.3725
 8015TIP3   OH245459   1.622   2.190  17.203 -0.3197  0.0623 -0.5216
 8015TIP3    H145460   1.527   2.198  17.206 -0.3553 -0.4749 -0.0542
 8015TIP3    H245461   1.640   2.102  17.237  0.2295 -0.5357 -2.2146
 8016TIP3   OH245462   2.405   0.898  11.087  0.3169 -0.0944 -0.7535
 8016TIP3    H145463   2.460   0.824  11.061 -1.5210 -0.6128 -3.6143
 8016TIP3    H245464   2.327   0.857  11.125  0.3375  0.4885 -0.0706
 8017TIP3   OH245465   1.088   5.469  14.676 -0.4537 -0.1347 -0.0248
 8017TIP3    H145466   1.010   5.512  14.642 -0.5423  0.3679  0.7836
 8017TIP3    H245467   1.108   5.516  14.757  0.1910 -0.8025  0.2169
 8018TIP3   OH245468   3.833   2.093  15.979  0.0613 -0.2118 -0.0295
 8018TIP3    H145469   3.765   2.052  16.034  1.2819 -0.7948  1.0915
 8018TIP3    H245470   3.784   2.150  15.920 -1.3305  0.2905  1.5267
 8019TIP3   OH245471   1.245   5.302  13.436 -0.0468  0.1177 -0.5170
 8019TIP3    H145472   1.276   5.392  13.424 -0.4275  0.5038  1.1424
 8019TIP3    H245473   1.301   5.266  13.504 -1.8342  0.1494  1.0560
 8020TIP3   OH245474   0.269   4.432  15.876 -0.2223 -0.2462  0.9635
 8020TIP3    H145475   0.304   4.406  15.961  2.9294 -0.0295 -0.1453
 8020TIP3    H245476   0.346   4.453  15.823 -2.0183 -0.6184 -2.0482
 8021TIP3   OH245477   5.921   6.376  13.478 -0.3123  0.1214  0.0069
 8021TIP3    H145478   5.865   6.335  13.412 -0.8438  1.3115 -0.3024
 8021TIP3    H245479   6.010   6.361  13.447 -0.5656  2.5827 -2.2478
 8022TIP3   OH245480   1.391   2.716   5.942 -0.6273 -0.1844 -0.3339
 8022TIP3    H145481   1.398   2.798   5.991  1.9118  0.1630 -1.1226
 8022TIP3    H245482   1.341   2.658   6.000  0.2999  0.9188  1.6781
 8023TIP3   OH245483   4.886   3.210   4.506  0.7397  0.2841  0.0185
 8023TIP3    H145484   4.951   3.230   4.573 -0.0338  0.8536  0.6235
 8023TIP3    H245485   4.833   3.140   4.544  1.4392 -0.7049 -0.7765
 8024TIP3   OH245486   3.932   6.353   2.573 -0.1912  0.0980  0.1630
 8024TIP3    H145487   3.843   6.352   2.608 -0.2880  1.5507  0.0366
 8024TIP3    H245488   3.989   6.337   2.648 -0.4770  1.3380  0.6596
 8025TIP3   OH245489   6.711   5.011  13.232 -0.6872  0.2377  0.3229
 8025TIP3    H145490   6.665   5.093  13.254 -1.9099 -0.4730  0.4846
 8025TIP3    H245491   6.670   4.982  13.151 -0.4467 -0.3538  0.4135
 8026TIP3   OH245492   1.148   1.445  16.877  0.1406 -0.1293  0.1983
 8026TIP3    H145493   1.184   1.482  16.958 -1.0325 -0.5254  0.9289
 8026TIP3    H245494   1.064   1.408  16.903  0.9325 -2.7098 -0.6127
 8027TIP3   OH245495   1.403   2.276   5.194 -0.1860  0.4335  0.2340
 8027TIP3    H145496   1.402   2.337   5.268  3.0149 -1.1107  1.7544
 8027TIP3    H245497   1.483   2.300   5.146 -1.0877  0.0243 -1.5485
 8028TIP3   OH245498   1.864   2.587  13.047 -0.1004 -0.2331 -0.4187
 8028TIP3    H145499   1.850   2.656  13.111 -1.4337 -1.6637  0.8933
 8028TIP3    H245500   1.816   2.616  12.969 -0.9874  0.1326  0.2530
 8029TIP3   OH245501   0.754   4.231  14.408  0.0286  0.6004 -0.0343
 8029TIP3    H145502   0.804   4.306  14.440 -1.1134  0.9060  1.0788
 8029TIP3    H245503   0.816   4.184  14.351  1.0675  1.8254  0.0387
 8030TIP3   OH245504   4.863   3.950  15.889  0.1264 -0.2182  0.4240
 8030TIP3    H145505   4.894   3.864  15.864  1.4932  0.4278 -0.2182
 8030TIP3    H245506   4.942   4.005  15.889 -0.5765  0.8576  1.5965
 8031TIP3   OH245507   2.429   0.400  11.349  0.1630  0.1834  0.0923
 8031TIP3    H145508   2.520   0.385  11.373 -0.0294 -3.0782 -0.8150
 8031TIP3    H245509   2.379   0.344  11.409 -0.9490 -0.7662 -1.6481
 8032TIP3   OH245510   0.636   5.068  16.905  1.0115 -0.0457  0.0657
 8032TIP3    H145511   0.643   5.095  16.997 -0.0956  0.1753  0.1041
 8032TIP3    H245512   0.579   5.135  16.866  0.1456 -1.0253 -0.3946
 8033TIP3   OH245513   0.307   6.728  12.477  0.2613  0.0796 -0.0172
 8033TIP3    H145514   0.229   6.673  12.477  0.1980  0.1628 -0.5368
 8033TIP3    H245515   0.274   6.817  12.470  0.3842  0.1472  0.2587
 8034TIP3   OH245516   0.709   1.017   3.317 -0.5723 -0.4047  0.1806
 8034TIP3    H145517   0.697   0.990   3.408 -1.3485  1.3533  0.6545
 8034TIP3    H245518   0.803   1.030   3.309 -0.4453 -1.0299  0.5910
 8035TIP3   OH245519   6.411   0.124   4.947 -0.4334 -0.0082 -0.2991
 8035TIP3    H145520   6.474   0.165   4.888 -1.1361  0.5154 -0.7023
 8035TIP3    H245521   6.450   0.039   4.968  0.6982  0.5617 -0.0283
 8036TIP3   OH245522   4.795   6.182   5.848 -0.3195  0.7206 -0.0320
 8036TIP3    H145523   4.887   6.210   5.853 -0.0897 -0.2178  2.1769
 8036TIP3    H245524   4.786   6.145   5.760  1.6783 -0.0012  0.0131
 8037TIP3   OH245525   4.092   0.408   0.474 -0.1651 -0.0369  0.5498
 8037TIP3    H145526   4.162   0.443   0.419 -1.0384 -2.1111 -2.0738
 8037TIP3    H245527   4.013   0.453   0.446 -0.4193 -0.1298  1.0894
 8038TIP3   OH245528   3.233   1.797  15.696 -0.4517  0.4628  0.3602
 8038TIP3    H145529   3.291   1.743  15.750 -0.3569  0.2117  0.0106
 8038TIP3    H245530   3.270   1.885  15.702 -0.4990  0.4567  0.7841
 8039TIP3   OH245531   4.757   3.514  14.352 -0.5412 -0.3647 -0.0750
 8039TIP3    H145532   4.753   3.588  14.412 -0.1929  0.3552 -0.9173
 8039TIP3    H245533   4.787   3.441  14.406 -0.4284  0.2126  0.6665
 8040TIP3   OH245534   3.086   5.416  16.324 -0.0844 -0.6456  0.5556
 8040TIP3    H145535   3.180   5.418  16.341 -0.2806  1.8276  1.7778
 8040TIP3    H245536   3.052   5.496  16.364 -2.6271 -1.1078 -0.4526
 8041TIP3   OH245537   5.055   3.555  14.177  0.1666  0.1995 -0.0864
 8041TIP3    H145538   4.978   3.561  14.120 -0.4721  1.2406  0.8364
 8041TIP3    H245539   5.062   3.642  14.216  1.2356 -0.1737  0.5851
 8042TIP3   OH245540   1.233   6.458   4.406  0.4972  0.2130 -1.4119
 8042TIP3    H145541   1.275   6.372   4.396 -0.0663 -0.0296 -1.7240
 8042TIP3    H245542   1.284   6.501   4.474 -1.0412 -1.5483  1.0325
 8043TIP3   OH245543   5.376   3.923   0.111  0.0836  0.4898  0.4172
 8043TIP3    H145544   5.326   3.846   0.084  0.0606  0.3179  0.9403
 8043TIP3    H245545   5.309   3.990   0.127  0.0757  0.4967  0.3574
 8044TIP3   OH245546   5.667   5.629  12.153 -0.1310 -0.0826 -0.0903
 8044TIP3    H145547   5.668   5.545  12.197 -0.7618 -0.2097 -0.3150
 8044TIP3    H245548   5.760   5.650  12.140  0.0531 -0.2239  0.9260
 8045TIP3   OH245549   2.769   0.074   3.665  0.1616  0.7311  0.7182
 8045TIP3    H145550   2.766  -0.022   3.657  0.6762  0.7216  0.6061
 8045TIP3    H245551   2.805   0.090   3.752 -0.9408  0.8326  1.1751
 8046TIP3   OH245552   0.342   6.217  10.953  0.7105  0.0292 -0.4766
 8046TIP3    H145553   0.404   6.172  11.011 -0.6312 -1.1219  0.1447
 8046TIP3    H245554   0.266   6.236  11.009  0.6627  1.8243 -1.0980
 8047TIP3   OH245555   3.985   4.235  16.016 -0.0105  0.1016  0.3576
 8047TIP3    H145556   4.014   4.317  15.975 -0.5508 -0.3142 -0.9293
 8047TIP3    H245557   3.988   4.171  15.945 -1.5882 -0.5274  0.8063
 8048TIP3   OH245558   1.795   3.076   3.510 -0.0313  0.5435 -0.0400
 8048TIP3    H145559   1.880   3.061   3.550 -0.9327 -1.4478  1.2802
 8048TIP3    H245560   1.761   3.153   3.555  0.1661  0.0238  1.0246
 8049TIP3   OH245561   3.014   2.789  11.603 -0.0768  0.2067  0.4553
 8049TIP3    H145562   2.934   2.782  11.655  0.6183  1.8084  1.8390
 8049TIP3    H245563   2.984   2.786  11.512 -1.6588  0.3767  0.9418
 8050TIP3   OH245564   1.677   0.987   0.656  0.3887 -0.2134  0.6155
 8050TIP3    H145565   1.675   0.997   0.561  0.9926  0.3608  0.6506
 8050TIP3    H245566   1.769   0.969   0.676  0.4392  0.6217  1.1700
 8051TIP3   OH245567   5.103   5.560   2.482  0.8352 -0.6737  0.5646
 8051TIP3    H145568   5.023   5.599   2.519  0.6562  1.6963 -2.0268
 8051TIP3    H245569   5.082   5.467   2.474 -2.1825  0.0097 -0.9795
 8052TIP3   OH245570   6.148   0.135   4.873  0.6668 -0.3075  0.3153
 8052TIP3    H145571   6.150   0.054   4.924  1.7015 -0.8509 -0.5576
 8052TIP3    H245572   6.239   0.163   4.869  0.3584  0.7426  0.3410
 8053TIP3   OH245573   5.911   3.990   2.212  0.5592 -0.1053 -0.1568
 8053TIP3    H145574   5.958   4.054   2.265  1.1354  0.4987 -1.3413
 8053TIP3    H245575   5.839   3.960   2.267  0.1453  1.7297  0.3589
 8054TIP3   OH245576   3.938   3.942   6.122  0.7691 -0.2019 -0.1493
 8054TIP3    H145577   4.001   3.961   6.191  1.3710 -1.1853 -0.4160
 8054TIP3    H245578   3.960   4.003   6.051  0.4701  0.4601  0.3102
 8055TIP3   OH245579   1.457   2.631   3.449  0.1200 -0.1203 -0.4446
 8055TIP3    H145580   1.546   2.660   3.433 -0.0115  0.3292 -0.3910
 8055TIP3    H245581   1.410   2.649   3.367  0.3944 -1.6828 -0.9828
 8056TIP3   OH245582   3.989   4.126   1.833  0.2063 -0.4099  0.5464
 8056TIP3    H145583   4.068   4.097   1.788  0.7215  0.4529  0.8820
 8056TIP3    H245584   4.021   4.161   1.917 -0.5446 -0.1709  0.7374
 8057TIP3   OH245585   3.470   5.641   1.042  0.5009  0.6543 -0.2912
 8057TIP3    H145586   3.499   5.718   0.992 -0.3556 -0.1978 -2.1997
 8057TIP3    H245587   3.383   5.665   1.075  0.9507  1.1100  0.6271
 8058TIP3   OH245588   3.548   3.243   1.538 -0.1426 -0.0996 -0.1101
 8058TIP3    H145589   3.457   3.271   1.523 -0.3015 -0.3730  0.3248
 8058TIP3    H245590   3.598   3.288   1.470 -0.7159 -0.6079 -0.8862
 8059TIP3   OH245591   1.125   1.279   5.212 -0.3949  0.2469 -0.4819
 8059TIP3    H145592   1.210   1.238   5.198  0.2824  1.2677  0.4336
 8059TIP3    H245593   1.105   1.262   5.304 -1.8781 -1.1872 -1.0277
 8060TIP3   OH245594   6.550   5.291  11.446 -0.8504  0.2763  0.2770
 8060TIP3    H145595   6.534   5.373  11.401  1.0317  0.6010  0.1127
 8060TIP3    H245596   6.529   5.223  11.381  1.6723  0.7292 -1.1802
 8061TIP3   OH245597   2.579   2.296   0.862  0.7021 -0.4115 -0.0245
 8061TIP3    H145598   2.537   2.382   0.861  0.2151 -0.6092  1.3405
 8061TIP3    H245599   2.672   2.315   0.850  0.6773  0.3700  0.8852
 8062TIP3   OH245600   2.144   5.727   0.213  0.3000  0.2151 -0.2674
 8062TIP3    H145601   2.131   5.815   0.249  1.9207  0.0142  0.9517
 8062TIP3    H245602   2.192   5.680   0.282 -2.8667 -2.5453  0.3373
 8063TIP3   OH245603   3.102   0.085  11.705  0.3351  0.1552 -0.0818
 8063TIP3    H145604   3.036   0.052  11.644 -0.7101 -1.7047  1.9462
 8063TIP3    H245605   3.056   0.151  11.757  0.3996 -0.2872  0.5452
 8064TIP3   OH245606   1.417   1.217  13.045 -0.6192  0.5839 -0.5159
 8064TIP3    H145607   1.356   1.290  13.059  0.1795  1.2014 -0.1958
 8064TIP3    H245608   1.431   1.181  13.133  0.4522  1.2535 -0.3908
 8065TIP3   OH245609   4.232   1.648   6.477  0.3007 -0.0883 -0.5568
 8065TIP3    H145610   4.193   1.718   6.529  0.1553 -0.7348  0.2301
 8065TIP3    H245611   4.301   1.690   6.427 -0.0976  0.7022 -0.4503
 8066TIP3   OH245612   5.625   2.833   6.030  0.1025  0.0330 -0.4615
 8066TIP3    H145613   5.668   2.913   5.998  0.6129 -0.5652 -1.2997
 8066TIP3    H245614   5.603   2.854   6.121 -0.3890  1.3679 -0.8536
 8067TIP3   OH245615   6.354   0.117   3.009 -0.5510  0.2813  0.6338
 8067TIP3    H145616   6.330   0.103   2.918  0.9004 -0.1621  0.2988
 8067TIP3    H245617   6.328   0.037   3.054  0.6624 -0.3854  0.1883
 8068TIP3   OH245618   5.292   2.877  15.432 -0.2268 -0.5441 -0.1375
 8068TIP3    H145619   5.217   2.926  15.465  0.0134  0.5909 -1.1855
 8068TIP3    H245620   5.355   2.879  15.503  0.0405  1.3030 -0.3716
 8069TIP3   OH245621   3.328   3.307  15.812 -0.2351 -0.1373  0.2399
 8069TIP3    H145622   3.315   3.345  15.899 -1.6145  1.3111 -0.5407
 8069TIP3    H245623   3.415   3.268  15.816  0.5973  1.6771  1.6585
 8070TIP3   OH245624   3.131   0.310   1.720 -0.5436 -0.0428  0.2997
 8070TIP3    H145625   3.107   0.361   1.643 -2.1016 -1.6201 -0.3141
 8070TIP3    H245626   3.184   0.370   1.772 -0.6236  1.5257 -1.3184
 8071TIP3   OH245627   4.588   1.061  11.232  0.3077 -0.3026 -0.4491
 8071TIP3    H145628   4.635   1.143  11.249  0.2979 -0.1400 -1.2134
 8071TIP3    H245629   4.653   0.993  11.249  0.2986 -0.1525  0.2499
 8072TIP3   OH245630   4.109   6.348   4.414 -0.9901  0.1413  0.9941
 8072TIP3    H145631   4.019   6.337   4.446 -0.3276 -1.2466  2.5627
 8072TIP3    H245632   4.123   6.274   4.356 -0.9054  0.4546  0.6118
 8073TIP3   OH245633   4.782   0.285   2.948  0.3947 -0.0958  0.0954
 8073TIP3    H145634   4.737   0.219   2.895 -1.6833  0.4994  1.0156
 8073TIP3    H245635   4.791   0.244   3.034  0.1556  0.3654  0.3475
 8074TIP3   OH245636   0.662   1.148  17.034 -0.1720 -0.5830 -0.1990
 8074TIP3    H145637   0.649   1.109  16.947  1.0471 -1.0710 -0.1696
 8074TIP3    H245638   0.639   1.240  17.022  0.8181 -0.4596 -1.2554
 8075TIP3   OH245639   3.394   1.042   6.570 -0.6643 -0.5403  0.3903
 8075TIP3    H145640   3.335   1.117   6.576 -0.3625 -0.2886  0.1978
 8075TIP3    H245641   3.478   1.079   6.545 -0.7931 -1.0489 -0.8800
 8076TIP3   OH245642   3.471   3.097  11.607 -0.0078  0.4444  0.0989
 8076TIP3    H145643   3.556   3.065  11.578  0.3570  0.7162  0.8351
 8076TIP3    H245644   3.469   3.189  11.580 -0.7381  0.0448 -1.3295
 8077TIP3   OH245645   0.350   0.260   1.771 -0.2510  0.0179 -0.2189
 8077TIP3    H145646   0.442   0.276   1.793 -0.7164  0.7640  1.3801
 8077TIP3    H245647   0.320   0.200   1.839 -0.3936 -2.1613 -2.0793
 8078TIP3   OH245648   2.807   1.319  13.158  0.4408 -0.0869  0.3257
 8078TIP3    H145649   2.898   1.345  13.144 -0.0857  1.7740  0.0920
 8078TIP3    H245650   2.776   1.379  13.226 -0.4414 -1.1246  0.8613
 8079TIP3   OH245651   3.610   5.086  13.009  0.0470  0.5112  0.2852
 8079TIP3    H145652   3.698   5.069  13.044 -0.9999 -0.1560  2.8476
 8079TIP3    H245653   3.592   5.011  12.953  0.3125 -0.5079  1.5068
 8080TIP3   OH245654   4.275   3.498   2.691 -0.2237 -1.0090 -0.1780
 8080TIP3    H145655   4.322   3.420   2.720  1.2160  0.4353  1.6773
 8080TIP3    H245656   4.230   3.529   2.769  1.4770  1.4698 -0.0533
 8081TIP3   OH245657   2.790   6.026  15.218 -0.1762  0.3105  0.2044
 8081TIP3    H145658   2.728   6.031  15.145  0.6324 -3.0978 -0.9227
 8081TIP3    H245659   2.862   6.083  15.192 -0.4915  0.1773 -1.0394
 8082TIP3   OH245660   2.619   0.556  10.667 -0.0399 -0.1307  0.1723
 8082TIP3    H145661   2.569   0.636  10.652 -0.6728 -0.3265  1.0900
 8082TIP3    H245662   2.710   0.582  10.659 -0.1935  0.9442  1.4986
 8083TIP3   OH245663   0.824   3.630  14.526 -0.4870 -0.7498  0.1203
 8083TIP3    H145664   0.808   3.647  14.619  2.2757  3.0514  0.1381
 8083TIP3    H245665   0.907   3.582  14.524  0.2327  0.4682 -0.3388
 8084TIP3   OH245666   1.180   2.287  13.996  0.1346 -0.1850  0.3070
 8084TIP3    H145667   1.128   2.317  14.070  0.8828  0.2299  0.6784
 8084TIP3    H245668   1.195   2.194  14.013  2.0489  0.3375  1.7788
 8085TIP3   OH245669   6.231   5.078  11.519 -0.6035  0.4285 -0.0818
 8085TIP3    H145670   6.221   5.105  11.428  0.8619  0.1803 -0.3401
 8085TIP3    H245671   6.173   5.003  11.529 -0.3011  0.0688 -0.9889
 8086TIP3   OH245672   0.185   3.037  16.654  0.0361  0.4424  0.4698
 8086TIP3    H145673   0.192   3.079  16.739 -0.2869 -0.6217  1.0387
 8086TIP3    H245674   0.262   3.068  16.606  1.6219 -0.8654  2.0218
 8087TIP3   OH245675   4.947   0.269  12.906 -0.5729  0.0608  0.3551
 8087TIP3    H145676   4.979   0.206  12.971 -1.7372  0.1037  0.9800
 8087TIP3    H245677   4.950   0.220  12.823 -0.3732 -0.4373  0.6502
 8088TIP3   OH245678   4.956   2.174   1.848  0.2435 -0.6235 -1.0835
 8088TIP3    H145679   4.862   2.160   1.846 -0.1044  0.9000  0.9435
 8088TIP3    H245680   4.978   2.207   1.761 -1.9015  2.9073 -0.4973
 8089TIP3   OH245681   0.417   5.416  13.125  0.2573 -0.1073  0.6404
 8089TIP3    H145682   0.400   5.348  13.059  0.7847 -0.8092  1.2041
 8089TIP3    H245683   0.406   5.498  13.078  0.7877 -0.5919 -0.3774
 8090TIP3   OH245684   6.032   1.407  14.920 -0.0724  0.1599  0.4843
 8090TIP3    H145685   6.085   1.476  14.880 -1.2657  0.0739 -1.3386
 8090TIP3    H245686   5.942   1.438  14.914 -0.6218 -1.4592 -0.2111
 8091TIP3   OH245687   3.036   5.042  15.181  0.5055  0.1476  0.2018
 8091TIP3    H145688   3.063   5.036  15.089  2.1499 -1.1459  0.7093
 8091TIP3    H245689   3.118   5.052  15.229  0.4383 -4.6323  1.8973
 8092TIP3   OH245690   4.388   2.761   0.297 -0.2425  0.1811 -0.5856
 8092TIP3    H145691   4.417   2.852   0.309 -0.0385  0.1140 -0.5669
 8092TIP3    H245692   4.384   2.726   0.386  0.0288  0.0636 -0.6208
 8093TIP3   OH245693   1.292   2.399  11.464  0.0204 -0.7286  0.4970
 8093TIP3    H145694   1.367   2.349  11.432  0.1441 -0.6613  0.6794
 8093TIP3    H245695   1.323   2.489  11.467  0.0463 -0.7466  0.9050
 8094TIP3   OH245696   5.818   6.442   3.507  0.5382  0.1171 -0.2007
 8094TIP3    H145697   5.900   6.469   3.549 -0.2187  0.2214  1.2882
 8094TIP3    H245698   5.789   6.519   3.459 -0.0469  1.0278  1.5188
 8095TIP3   OH245699   4.655   0.737   2.453 -0.2660 -0.1116 -0.3478
 8095TIP3    H145700   4.686   0.662   2.505  0.5317 -0.1057 -0.7955
 8095TIP3    H245701   4.724   0.750   2.388 -1.1529  0.0180 -1.2765
 8096TIP3   OH245702   4.546   0.467   0.014  0.1193 -0.0383  0.2996
 8096TIP3    H145703   4.521   0.381   0.048  1.7305  0.1678  2.1672
 8096TIP3    H245704   4.506   0.471  -0.073 -2.3067 -1.5536  1.2276
 8097TIP3   OH245705   4.961   3.950  12.553  0.1714 -0.0901  0.0278
 8097TIP3    H145706   4.942   3.882  12.488  1.8168 -0.0539 -0.5317
 8097TIP3    H245707   4.875   3.974  12.589 -0.6751 -0.7481 -1.4811
 8098TIP3   OH245708   0.770   5.818   5.804  0.0845 -0.0516 -0.2548
 8098TIP3    H145709   0.799   5.902   5.839  2.7878 -0.4814 -1.2413
 8098TIP3    H245710   0.680   5.833   5.777  0.6929  2.7250 -1.0178
 8099TIP3   OH245711   4.318   0.923  11.861 -0.3766 -0.0184 -0.2747
 8099TIP3    H145712   4.312   0.939  11.955  2.4070 -0.3573  0.0529
 8099TIP3    H245713   4.348   1.006  11.823  1.0480 -0.5702 -0.4402
 8100TIP3   OH245714   4.025   1.290   4.248 -0.0220  0.1815 -0.2121
 8100TIP3    H145715   3.993   1.200   4.239  1.0151 -0.1266 -1.0552
 8100TIP3    H245716   4.010   1.313   4.339  0.8385 -1.3038  0.3299
 8101TIP3   OH245717   3.788   0.901   1.882  0.0415 -0.6435  0.5113
 8101TIP3    H145718   3.823   0.989   1.899 -0.2622 -0.7276  1.6098
 8101TIP3    H245719   3.840   0.843   1.938  0.8569 -1.3145 -0.8703
 8102TIP3   OH245720   4.243   6.276  17.116 -0.5169  0.0345 -0.0377
 8102TIP3    H145721   4.291   6.216  17.174  1.0688  0.4099 -0.9084
 8102TIP3    H245722   4.193   6.331  17.176  0.9291  0.2837  0.9949
 8103TIP3   OH245723   3.928   3.027  12.248 -0.2455 -0.1617  0.2735
 8103TIP3    H145724   3.954   3.034  12.156 -0.4621 -2.3287 -0.0115
 8103TIP3    H245725   3.935   3.116  12.282  0.5487  0.5618 -1.6449
 8104TIP3   OH245726   6.599   2.805   1.183  0.6132 -0.1133 -0.0455
 8104TIP3    H145727   6.644   2.837   1.105  0.2627 -0.7180 -0.5026
 8104TIP3    H245728   6.539   2.875   1.207  1.4736  0.5235  0.3154
 8105TIP3   OH245729   0.799   6.208   3.574  0.0640  0.2668  0.0120
 8105TIP3    H145730   0.838   6.143   3.633 -0.1960  0.2229  0.1376
 8105TIP3    H245731   0.735   6.158   3.523  1.2046  0.0177 -1.2440
 8106TIP3   OH245732   1.726   1.477   4.312 -0.6561 -0.0754 -0.3746
 8106TIP3    H145733   1.691   1.564   4.327 -1.1562 -0.3110 -0.1448
 8106TIP3    H245734   1.813   1.478   4.351 -0.1884  0.6781 -1.4079
 8107TIP3   OH245735   4.492   2.758  13.349 -0.7889 -0.6570 -0.6740
 8107TIP3    H145736   4.525   2.805  13.273  1.0657 -1.1721 -0.2175
 8107TIP3    H245737   4.459   2.675  13.313 -1.9945  0.0095 -1.1738
 8108TIP3   OH245738   6.156   1.496  14.180  0.1387  0.0006 -0.2953
 8108TIP3    H145739   6.187   1.449  14.257  1.4009  0.2381 -0.6249
 8108TIP3    H245740   6.184   1.442  14.106 -2.4667 -1.0674 -0.6056
 8109TIP3   OH245741   4.863   1.828  15.447 -0.2193 -0.0059 -0.7314
 8109TIP3    H145742   4.951   1.846  15.412 -0.9427  1.4194 -1.9192
 8109TIP3    H245743   4.871   1.742  15.487  1.3852 -0.5394 -2.0527
 8110TIP3   OH245744   0.347   5.062  11.786  0.1427 -0.5558  0.2671
 8110TIP3    H145745   0.335   5.156  11.801  0.0502 -0.4682 -0.3425
 8110TIP3    H245746   0.366   5.054  11.693 -0.9945 -1.2447  0.0660
 8111TIP3   OH245747   5.458   0.447   3.137  0.4244  0.4422 -0.3078
 8111TIP3    H145748   5.477   0.540   3.145 -0.2792  0.4872  1.4144
 8111TIP3    H245749   5.437   0.419   3.227  1.3645 -1.5466 -0.6455
 8112TIP3   OH245750   2.956   0.180  14.961  0.1990 -0.3271 -0.0019
 8112TIP3    H145751   3.016   0.232  14.907  0.9379 -0.0395  1.0490
 8112TIP3    H245752   3.013   0.121  15.010 -0.5472 -1.3535 -0.3483
 8113TIP3   OH245753   3.878   4.170   5.178  0.2274 -0.6468  0.4430
 8113TIP3    H145754   3.942   4.105   5.149 -0.0634 -0.5357 -0.4763
 8113TIP3    H245755   3.931   4.247   5.199  0.3791 -0.3391 -0.9271
 8114TIP3   OH245756   0.697   3.487   5.011 -0.4911  0.1488 -0.1087
 8114TIP3    H145757   0.779   3.538   5.007  1.1918 -2.4399 -1.3448
 8114TIP3    H245758   0.646   3.518   4.937  0.0324  0.7675 -0.2229
 8115TIP3   OH245759   5.626   1.105   0.098 -0.4257 -0.0979  0.7494
 8115TIP3    H145760   5.554   1.062   0.052 -0.7309  0.7267  0.4320
 8115TIP3    H245761   5.600   1.197   0.102  1.1187  0.4403 -0.4057
 8116TIP3   OH245762   3.300   2.269   2.340 -0.0622  0.1478 -0.6828
 8116TIP3    H145763   3.245   2.255   2.418 -0.0145  2.1572 -0.2421
 8116TIP3    H245764   3.373   2.321   2.372  0.3075  0.4312 -1.9555
 8117TIP3   OH245765   5.892   3.708  12.750  0.2110  0.1513  0.0416
 8117TIP3    H145766   5.838   3.662  12.685  0.2317 -1.3244  1.0157
 8117TIP3    H245767   5.905   3.643  12.819  1.7552  1.0807  0.6517
 8118TIP3   OH245768   3.659   4.012   6.342 -0.1273  0.0480  0.1281
 8118TIP3    H145769   3.644   3.977   6.254 -1.2344  0.6828  0.0372
 8118TIP3    H245770   3.618   4.099   6.340 -1.1067 -0.3503  1.5749
 8119TIP3   OH245771   0.218   2.496  11.334 -0.7315 -0.0531 -0.0194
 8119TIP3    H145772   0.204   2.504  11.429 -2.6341  1.6650 -0.3761
 8119TIP3    H245773   0.283   2.564  11.315  1.5111 -1.9845  0.3228
 8120TIP3   OH245774   4.516   1.244   3.859 -0.1530  0.8616 -0.9869
 8120TIP3    H145775   4.426   1.211   3.862  0.6577 -1.6884 -1.5911
 8120TIP3    H245776   4.512   1.320   3.801 -1.7123 -0.0753 -2.2012
 8121TIP3   OH245777   1.384   6.734   3.596  0.5270 -0.0432  0.0819
 8121TIP3    H145778   1.350   6.664   3.541  1.9638  0.6167 -1.7714
 8121TIP3    H245779   1.479   6.719   3.598  0.6020  0.4739  1.6874
 8122TIP3   OH245780   4.769   0.673   4.135 -0.4614  0.8744 -0.8748
 8122TIP3    H145781   4.760   0.697   4.227 -0.8714  1.0280 -0.9505
 8122TIP3    H245782   4.845   0.723   4.104  1.1572 -0.9604 -0.0450
 8123TIP3   OH245783   3.852   0.953   3.201  0.2985  0.0889  0.1508
 8123TIP3    H145784   3.926   0.986   3.251  0.5076 -0.1583  0.0105
 8123TIP3    H245785   3.888   0.878   3.153 -0.1741 -0.3799  0.5172
 8124TIP3   OH245786   0.094   1.884   6.510  0.1185  0.1208 -0.1487
 8124TIP3    H145787   0.034   1.810   6.515  0.6435 -0.2419  0.9030
 8124TIP3    H245788   0.181   1.846   6.522  0.6013  0.6316 -1.7025
 8125TIP3   OH245789   5.225   6.533   1.854 -0.1667  0.8874  0.4145
 8125TIP3    H145790   5.318   6.511   1.862 -0.2576  0.5873  0.6991
 8125TIP3    H245791   5.216   6.618   1.897 -0.1591  0.5514  1.1053
 8126TIP3   OH245792   5.560   2.813   3.837 -0.2604 -0.3366 -0.0888
 8126TIP3    H145793   5.636   2.757   3.825  0.0227 -0.0682  0.4136
 8126TIP3    H245794   5.586   2.873   3.907 -1.4510 -1.1522  1.0844
 8127TIP3   OH245795   4.690   2.937  14.647  0.1638  0.1853  0.2565
 8127TIP3    H145796   4.612   2.933  14.703  0.1150 -2.0831  0.1416
 8127TIP3    H245797   4.675   2.868  14.583  0.7201  1.9974 -1.9373
 8128TIP3   OH245798   5.853   2.528   6.712  0.3588  0.0130 -0.7484
 8128TIP3    H145799   5.901   2.608   6.733  0.3090 -0.5346  1.7593
 8128TIP3    H245800   5.762   2.547   6.734  0.3408 -0.6765 -0.1480
 8129TIP3   OH245801   2.926   2.195  14.317 -0.1043  0.5888 -0.2742
 8129TIP3    H145802   2.960   2.259  14.379  1.2613  0.3557 -0.7512
 8129TIP3    H245803   2.833   2.187  14.339 -0.2253  2.4452  0.0326
 8130TIP3   OH245804   2.157   1.962  13.913  0.3251  0.4010 -0.2737
 8130TIP3    H145805   2.247   1.994  13.924  0.8542 -1.3399  0.9610
 8130TIP3    H245806   2.102   2.040  13.919  1.6433  1.2949  0.6551
 8131TIP3   OH245807   2.700   2.299   2.900  0.0233 -0.2941 -0.1612
 8131TIP3    H145808   2.732   2.283   2.811  2.3560 -0.9778  0.7420
 8131TIP3    H245809   2.690   2.211   2.938  1.9892  0.0065  1.1861
 8132TIP3   OH245810   4.345   2.665   2.498  0.0942  0.5331  0.0481
 8132TIP3    H145811   4.290   2.663   2.419  0.8299  0.2413 -0.4771
 8132TIP3    H245812   4.299   2.723   2.558 -2.1454 -1.6766  0.6347
 8133TIP3   OH245813   0.062   3.273  16.496  0.3024 -0.1433 -0.3790
 8133TIP3    H145814   0.125   3.295  16.427  0.2838  1.0932 -0.0323
 8133TIP3    H245815   0.070   3.178  16.507 -0.5494 -0.5980 -2.9075
 8134TIP3   OH245816   1.729   5.544   6.073  0.0853  0.7480 -0.6388
 8134TIP3    H145817   1.731   5.635   6.104  2.7553  1.0124 -1.2838
 8134TIP3    H245818   1.734   5.492   6.153  0.5252  1.2489 -0.3291
 8135TIP3   OH245819   2.088   2.664  12.659 -0.4600 -0.2951 -0.7340
 8135TIP3    H145820   2.102   2.581  12.704 -2.9838  0.7476  2.4176
 8135TIP3    H245821   2.156   2.722  12.695 -0.8154 -0.1663 -0.2477
 8136TIP3   OH245822   0.490   3.302  17.088 -0.3276 -0.5632 -0.1324
 8136TIP3    H145823   0.554   3.277  17.154 -0.8425 -2.7219 -0.3568
 8136TIP3    H245824   0.440   3.373  17.128  1.3715  0.3146  0.5223
 8137TIP3   OH245825   3.155   6.291  14.872  0.0202  0.1372  1.0063
 8137TIP3    H145826   3.101   6.351  14.821 -0.2577  0.4835  1.6800
 8137TIP3    H245827   3.198   6.235  14.808 -0.4966  0.4086  0.4182
 8138TIP3   OH245828   4.196   4.432  12.451  0.0118  0.4994 -0.0737
 8138TIP3    H145829   4.180   4.514  12.405 -1.4520 -0.1820 -0.8745
 8138TIP3    H245830   4.172   4.364  12.388 -0.0420 -0.5056  0.9907
 8139TIP3   OH245831   2.448   5.393  13.093 -0.2994 -0.6396 -0.1640
 8139TIP3    H145832   2.423   5.360  13.180 -2.3170  0.9886 -0.0377
 8139TIP3    H245833   2.489   5.319  13.050 -0.6522 -1.9501  1.6310
 8140TIP3   OH245834   1.033   4.088   1.606 -0.0797 -0.0493 -0.5117
 8140TIP3    H145835   0.974   4.160   1.626  1.0940  0.5111  1.1654
 8140TIP3    H245836   1.096   4.088   1.678  1.7515 -0.8348 -2.0325
 8141TIP3   OH245837   1.897   2.240   1.333 -0.2929 -0.5739 -0.2727
 8141TIP3    H145838   1.812   2.284   1.338 -0.8132 -1.4097 -1.3474
 8141TIP3    H245839   1.885   2.173   1.266  1.1546 -0.8623 -0.2691
 8142TIP3   OH245840   5.048   6.638  13.959 -0.1851 -0.2902  0.2430
 8142TIP3    H145841   4.954   6.642  13.941 -0.3772 -1.2023  0.9527
 8142TIP3    H245842   5.078   6.729  13.952 -0.9706 -0.0889 -0.7006
 8143TIP3   OH245843   4.881   2.058  11.959  0.1446  0.5007  0.0733
 8143TIP3    H145844   4.882   2.009  11.877 -0.2266  1.6297 -0.6283
 8143TIP3    H245845   4.971   2.054  11.991  0.6104  1.2029 -1.1037
 8144TIP3   OH245846   2.871   6.561  12.693  0.8598  0.0126 -0.0938
 8144TIP3    H145847   2.873   6.653  12.719  2.1813  0.6251 -2.1297
 8144TIP3    H245848   2.962   6.533  12.696  0.4699 -1.2767  0.5595
 8145TIP3   OH245849   2.302   5.713  10.595 -0.4484  0.3681  0.2629
 8145TIP3    H145850   2.297   5.655  10.671  1.8687 -2.0934 -1.2685
 8145TIP3    H245851   2.212   5.721  10.565 -0.9461 -2.2607  0.7716
 8146TIP3   OH245852   2.820   3.271   0.281 -0.0831 -0.3416 -0.1852
 8146TIP3    H145853   2.758   3.256   0.352  1.1583 -2.5657  0.5353
 8146TIP3    H245854   2.769   3.255   0.201 -0.7097 -1.1004  0.3505
 8147TIP3   OH245855   2.718   5.560   1.755  0.1551 -0.2458  0.2751
 8147TIP3    H145856   2.696   5.649   1.729 -0.4070 -0.0737  1.3060
 8147TIP3    H245857   2.634   5.516   1.764  0.4340 -0.9462 -0.3844
 8148TIP3   OH245858   4.242   3.433  17.086 -0.0155 -0.6095 -0.2105
 8148TIP3    H145859   4.151   3.442  17.057  0.0047 -1.6628 -0.6380
 8148TIP3    H245860   4.264   3.519  17.122 -1.3681 -0.5032  0.4290
 8149TIP3   OH245861   3.838   2.563  14.489  0.4714 -0.2551 -0.1800
 8149TIP3    H145862   3.822   2.502  14.417  0.9060 -0.3667 -0.1833
 8149TIP3    H245863   3.903   2.625  14.454 -2.1753  2.1208 -1.2840
 8150TIP3   OH245864   0.536   3.602  13.832 -0.1369 -0.2801  0.5889
 8150TIP3    H145865   0.535   3.562  13.919 -0.9344 -0.2323  0.6063
 8150TIP3    H245866   0.588   3.541  13.778 -3.5949 -2.9174 -0.1054
 8151TIP3   OH245867   0.911   5.746   0.175  0.5324  0.2350  0.2659
 8151TIP3    H145868   0.968   5.681   0.216  0.8758  0.5722  0.3311
 8151TIP3    H245869   0.906   5.720   0.083 -1.0448 -1.1043  0.6960
 8152TIP3   OH245870   5.427   4.771   2.450  0.2492 -0.4297 -0.2001
 8152TIP3    H145871   5.428   4.825   2.372 -0.1215 -1.0267 -0.6276
 8152TIP3    H245872   5.469   4.689   2.424 -1.1543 -1.1849 -0.2026
 8153TIP3   OH245873   6.643   0.382  11.868  0.2759 -0.2401  0.0396
 8153TIP3    H145874   6.605   0.373  11.956  1.3518 -1.6672  0.3945
 8153TIP3    H245875   6.611   0.466  11.837 -1.5614 -0.4835  1.1004
 8154TIP3   OH245876   2.893   6.249  15.057 -0.0386 -0.5678  0.2362
 8154TIP3    H145877   2.922   6.340  15.057 -0.9697 -0.2578  1.0356
 8154TIP3    H245878   2.842   6.240  14.976  1.6378 -0.9293 -0.8248
 8155TIP3   OH245879   2.327   1.429  15.904  0.5729  0.4388 -0.0461
 8155TIP3    H145880   2.333   1.473  15.820  1.4999 -0.2262 -0.3351
 8155TIP3    H245881   2.303   1.339  15.883 -2.3256  0.9612  0.5941
 8156TIP3   OH245882   0.793   1.979   4.956  0.0871  0.1356 -0.2646
 8156TIP3    H145883   0.699   1.972   4.941 -0.2077 -0.8263  1.6903
 8156TIP3    H245884   0.811   1.914   5.024  2.1606  0.3656 -0.5353
 8157TIP3   OH245885   2.287   0.691  14.414 -0.2337 -0.1981  0.1279
 8157TIP3    H145886   2.279   0.784  14.393  0.9984 -0.3096 -0.9481
 8157TIP3    H245887   2.365   0.685  14.469  0.7376 -0.7830 -1.2687
 8158TIP3   OH245888   5.151   0.230   3.186  0.3890  0.6138  0.0332
 8158TIP3    H145889   5.129   0.254   3.096  1.2355  0.7651 -0.1464
 8158TIP3    H245890   5.222   0.166   3.176  2.7878  2.9790  0.5915
 8159TIP3   OH245891   1.431   1.894   2.570 -0.5429  0.6399  0.0013
 8159TIP3    H145892   1.417   1.950   2.494  1.8323  0.1014 -0.9419
 8159TIP3    H245893   1.509   1.929   2.612 -1.4739  0.5691  1.9084
 8160TIP3   OH245894   2.017   5.489   3.565 -0.5846  0.2776  0.3288
 8160TIP3    H145895   2.077   5.546   3.516  2.3263 -1.7325  1.2914
 8160TIP3    H245896   2.021   5.522   3.655  0.7221 -0.9962  0.7875
 8161TIP3   OH245897   0.245   0.882   3.968  0.5744 -0.0694 -0.2593
 8161TIP3    H145898   0.180   0.859   3.902  0.5001  1.6538 -0.8537
 8161TIP3    H245899   0.228   0.975   3.987  1.5382 -0.1381  1.1055
 8162TIP3   OH245900   1.060   2.179   0.905  0.2444  0.3468 -0.2669
 8162TIP3    H145901   0.989   2.188   0.841 -0.6847 -0.5238  0.6224
 8162TIP3    H245902   1.132   2.139   0.856 -0.4062 -0.1814 -0.7966
 8163TIP3   OH245903   5.999   3.085   3.916 -0.1002  0.2939 -0.3110
 8163TIP3    H145904   6.064   3.107   3.850 -1.9001 -2.0384 -3.0951
 8163TIP3    H245905   6.000   2.989   3.920 -2.2708  0.2430  0.6392
 8164TIP3   OH245906   5.462   6.559   1.229  0.1318 -0.2134 -0.3035
 8164TIP3    H145907   5.384   6.614   1.237  0.5303  0.4383 -0.7843
 8164TIP3    H245908   5.436   6.474   1.265 -1.3542 -0.5811 -2.1286
 8165TIP3   OH245909   5.232   0.532   2.249 -0.0645  0.1487  0.5238
 8165TIP3    H145910   5.312   0.530   2.302  1.8685  3.2178 -1.9360
 8165TIP3    H245911   5.244   0.460   2.187  0.3695  0.0391  0.7240
 8166TIP3   OH245912   1.546   2.561  10.871 -0.1627  0.3512 -0.0292
 8166TIP3    H145913   1.569   2.647  10.837 -0.3452  0.9543  1.3315
 8166TIP3    H245914   1.456   2.570  10.902  0.7362  0.5808  2.8295
 8167TIP3   OH245915   1.370   3.867   1.217 -0.4934 -0.1621 -0.6329
 8167TIP3    H145916   1.448   3.872   1.161  0.8939 -0.8069  1.1521
 8167TIP3    H245917   1.306   3.818   1.165  0.1295  0.7064 -2.2863
 8168TIP3   OH245918   0.661   5.407   4.534  0.2267 -0.0990  0.4826
 8168TIP3    H145919   0.716   5.354   4.592 -1.3976 -0.7289  1.5357
 8168TIP3    H245920   0.575   5.367   4.540 -0.6492  1.5853 -0.1318
 8169TIP3   OH245921   6.445   5.434  12.424  0.3929 -0.3310  0.1560
 8169TIP3    H145922   6.447   5.520  12.381 -1.3775  0.1682  0.9776
 8169TIP3    H245923   6.361   5.396  12.397  0.2664 -0.9517  1.3835
 8170TIP3   OH245924   2.123   5.391  16.376 -0.3436 -0.2735  0.3344
 8170TIP3    H145925   2.179   5.316  16.396  0.1504  0.4343  1.8008
 8170TIP3    H245926   2.059   5.393  16.447 -2.9095 -1.6102 -1.7900
 8171TIP3   OH245927   1.697   1.344  12.845  0.1762  0.0146  0.2534
 8171TIP3    H145928   1.608   1.330  12.877 -0.2695 -0.7137 -1.2153
 8171TIP3    H245929   1.692   1.325  12.752  1.8798 -0.0051  0.1386
 8172TIP3   OH245930   6.465   5.098   1.545  0.5025 -0.2415 -0.0862
 8172TIP3    H145931   6.512   5.112   1.463  0.6339  0.0277  0.0337
 8172TIP3    H245932   6.454   5.186   1.582  0.4847 -0.3654  0.2076
 8173TIP3   OH245933   0.408   5.438   0.693  0.3072  0.2156 -0.0471
 8173TIP3    H145934   0.428   5.432   0.600 -0.3561 -0.5210 -0.1487
 8173TIP3    H245935   0.318   5.471   0.697  0.3210  0.2198  0.3338
 8174TIP3   OH245936   3.347   0.042  10.834  0.3417 -0.2576  0.4200
 8174TIP3    H145937   3.427   0.064  10.881  0.2892  0.2619  0.2781
 8174TIP3    H245938   3.310   0.127  10.810 -0.2002 -0.4954  0.4025
 8175TIP3   OH245939   5.374   2.256   4.114  0.4238 -0.2516 -0.3032
 8175TIP3    H145940   5.296   2.294   4.073  0.7612  0.8642  0.0444
 8175TIP3    H245941   5.340   2.194   4.178 -0.1535 -0.3995 -0.7409
 8176TIP3   OH245942   4.423   3.380  11.324 -0.3789  0.6191  0.2645
 8176TIP3    H145943   4.410   3.407  11.233 -1.3786 -0.1467  0.1732
 8176TIP3    H245944   4.489   3.311  11.319  0.3929  1.3369  0.2532
 8177TIP3   OH245945   0.246   2.206   4.205 -0.2780 -0.3135  0.0319
 8177TIP3    H145946   0.264   2.207   4.111 -0.9080  0.1944 -0.0912
 8177TIP3    H245947   0.332   2.204   4.246  0.0064 -0.3248 -0.5576
 8178TIP3   OH245948   1.320   0.424   3.826 -0.0833  0.0129  0.5090
 8178TIP3    H145949   1.295   0.483   3.755  1.4929 -1.3058 -1.2290
 8178TIP3    H245950   1.371   0.479   3.886 -0.9951  1.0217  0.3792
 8179TIP3   OH245951   4.632   4.838   1.808  0.0357  0.5422  0.0685
 8179TIP3    H145952   4.612   4.929   1.788  1.5882  0.7008 -0.9130
 8179TIP3    H245953   4.576   4.818   1.884 -1.3438  1.8588 -0.5424
 8180TIP3   OH245954   0.774   1.649   0.495 -0.0906  0.1879 -0.7901
 8180TIP3    H145955   0.714   1.694   0.554 -0.6486 -0.4388 -0.8782
 8180TIP3    H245956   0.859   1.689   0.513 -0.0308 -0.7328  1.2368
 8181TIP3   OH245957   3.822   2.474   4.410  0.0601 -0.7536 -0.4412
 8181TIP3    H145958   3.840   2.536   4.340  0.0999 -0.7372 -0.4163
 8181TIP3    H245959   3.761   2.520   4.468  2.0046  0.2169  0.9325
 8182TIP3   OH245960   4.511   4.215  15.178  0.3467 -0.0079  0.0748
 8182TIP3    H145961   4.534   4.208  15.085 -0.2914 -0.1792 -0.0764
 8182TIP3    H245962   4.503   4.124  15.207 -1.9244 -0.0220 -0.3510
 8183TIP3   OH245963   2.649   3.092  11.558  0.5806  0.0463  0.0645
 8183TIP3    H145964   2.575   3.141  11.595  0.5469 -2.6142  4.2494
 8183TIP3    H245965   2.616   3.056  11.476 -2.0533  0.6162  0.7838
 8184TIP3   OH245966   0.065   5.216  14.622  0.1095  0.1795 -0.4654
 8184TIP3    H145967   0.059   5.129  14.583 -1.8025  1.0481 -2.3558
 8184TIP3    H245968  -0.006   5.218  14.686  0.1680  0.3238 -0.4043
 8185TIP3   OH245969   5.100   2.329  12.769 -0.4446 -0.1724 -0.1075
 8185TIP3    H145970   5.084   2.321  12.864 -1.0249  0.9548 -0.0946
 8185TIP3    H245971   5.111   2.238  12.739  1.2000 -0.4769  1.2747
 8186TIP3   OH245972   3.975   2.599  11.292 -0.3154  0.0972 -0.1685
 8186TIP3    H145973   3.997   2.676  11.344 -0.7403  1.4082 -1.8321
 8186TIP3    H245974   3.915   2.632  11.225 -1.2167 -1.8708 -0.3926
 8187TIP3   OH245975   4.840   1.596   2.294 -0.0036 -0.6706  0.0507
 8187TIP3    H145976   4.817   1.688   2.305 -0.2744 -0.4700 -1.9089
 8187TIP3    H245977   4.935   1.594   2.304 -0.2344 -0.7537  3.3640
 8188TIP3   OH245978   2.745   6.736   0.391  0.3735 -0.0744 -0.6100
 8188TIP3    H145979   2.678   6.668   0.380 -0.1860  0.5122 -0.9160
 8188TIP3    H245980   2.710   6.794   0.459  0.1840  0.6871 -1.3358
 8189TIP3   OH245981   2.412   4.831   1.046  0.2108  0.3183 -0.2735
 8189TIP3    H145982   2.503   4.825   1.076  0.1451  1.6100  0.2482
 8189TIP3    H245983   2.361   4.839   1.127 -0.2723  0.5568 -0.5972
 8190TIP3   OH245984   1.145   4.612  14.032  0.1235 -0.0791 -0.3833
 8190TIP3    H145985   1.077   4.679  14.027 -0.6820 -0.8030  0.5702
 8190TIP3    H245986   1.110   4.546  14.092  1.1191 -1.1006 -0.8847
 8191TIP3   OH245987   4.674   5.088   4.869  0.6622 -0.0560  0.5431
 8191TIP3    H145988   4.746   5.027   4.855  1.8643  1.2747  0.7144
 8191TIP3    H245989   4.707   5.152   4.932 -1.2005 -0.2396  1.7967
 8192TIP3   OH245990   2.544   3.664  15.252 -0.1394 -0.4748 -0.1276
 8192TIP3    H145991   2.597   3.727  15.302  0.3586 -0.9487 -0.0471
 8192TIP3    H245992   2.578   3.579  15.278  0.5495 -0.7247 -1.7325
 8193TIP3   OH245993   4.008   2.548   4.636 -0.1687  0.0883  0.4392
 8193TIP3    H145994   4.027   2.637   4.609 -0.1729  0.4051  1.4747
 8193TIP3    H245995   3.955   2.513   4.564  3.5660 -0.6364 -2.2493
 8194TIP3   OH245996   5.685   2.391   4.308 -0.1214  0.3664 -0.5610
 8194TIP3    H145997   5.657   2.312   4.263 -1.6280  0.4260  0.2113
 8194TIP3    H245998   5.751   2.360   4.371 -2.0014 -0.6223  1.0160
 8195TIP3   OH245999   5.116   4.981  16.884  0.5993  0.3432 -0.0456
 8195TIP3    H146000   5.193   5.017  16.930  0.8998  0.2586 -0.4808
 8195TIP3    H246001   5.041   5.016  16.933  0.9225 -0.1098  0.7910
 8196TIP3   OH246002   1.578   3.938   1.398 -0.0214  0.3390  0.1716
 8196TIP3    H146003   1.627   4.015   1.370  0.9202  0.0717  1.0453
 8196TIP3    H246004   1.547   3.899   1.316 -0.8441  1.8394 -0.2626
 8197TIP3   OH246005   3.369   3.599   3.795  0.3925 -0.6906 -0.1527
 8197TIP3    H146006   3.311   3.673   3.781 -0.4376 -1.3149 -0.1389
 8197TIP3    H246007   3.376   3.592   3.890 -2.2953 -2.6240  0.0467
 8198TIP3   OH246008   2.408   0.722   0.553  0.7332  0.7181 -0.4717
 8198TIP3    H146009   2.314   0.703   0.549  0.6373  0.7831  1.1238
 8198TIP3    H246010   2.419   0.798   0.495  0.1717 -0.5175 -2.2849
 8199TIP3   OH246011   0.913   0.995   5.256  0.0084  0.2874  0.6252
 8199TIP3    H146012   0.870   0.916   5.288  2.9765 -1.5149  0.5498
 8199TIP3    H246013   0.871   1.014   5.172 -1.1298 -0.8544  0.9080
 8200TIP3   OH246014   2.068   1.023  16.493 -0.1456  0.1782 -0.6917
 8200TIP3    H146015   2.006   0.996  16.560 -1.1448 -0.3496 -1.7751
 8200TIP3    H246016   2.106   1.104  16.526 -0.7589  0.0364  0.4071
 8201TIP3   OH246017   5.895   0.742  12.563 -0.0977 -0.5693  0.0454
 8201TIP3    H146018   5.864   0.822  12.522 -0.5935 -0.6965  0.1715
 8201TIP3    H246019   5.885   0.757  12.657 -0.4022 -0.8620  0.0620
 8202TIP3   OH246020   0.114   0.773  13.574  0.2860  0.0182 -0.3769
 8202TIP3    H146021   0.193   0.767  13.628 -1.0438  0.0388  1.6961
 8202TIP3    H246022   0.119   0.859  13.533  1.3425  0.0127 -0.2921
 8203TIP3   OH246023   2.733   2.196  13.709 -0.7156 -0.5404  0.3935
 8203TIP3    H146024   2.695   2.242  13.635 -0.3599  1.2458  1.2669
 8203TIP3    H246025   2.827   2.214  13.703 -0.7822  0.5309  1.8099
 8204TIP3   OH246026   3.785   0.705   2.523  0.0024  0.1925 -0.0511
 8204TIP3    H146027   3.765   0.709   2.430 -2.3825 -1.8999  0.2537
 8204TIP3    H246028   3.788   0.612   2.543  0.1774  0.5850  2.0231
 8205TIP3   OH246029   3.101   2.628   0.471 -0.5835 -0.1137 -0.1814
 8205TIP3    H146030   3.103   2.705   0.527 -1.7483  0.9392 -1.4961
 8205TIP3    H246031   3.017   2.586   0.490 -0.6642 -0.1530 -0.6160
 8206TIP3   OH246032   1.707   1.887   1.897  0.0560  0.2226  0.1111
 8206TIP3    H146033   1.682   1.876   1.805  1.8197 -1.6220 -0.2393
 8206TIP3    H246034   1.660   1.818   1.943  2.0871 -1.4317 -0.1141
 8207TIP3   OH246035   6.652   5.269   3.495 -0.7203 -0.0733 -0.4563
 8207TIP3    H146036   6.584   5.296   3.556  0.0332 -0.9786  0.8419
 8207TIP3    H246037   6.691   5.351   3.464 -1.0443  0.3990  0.3683
 8208TIP3   OH246038   4.287   0.630   6.210 -0.4442 -0.5979 -0.2115
 8208TIP3    H146039   4.344   0.615   6.286 -0.2661 -3.7496 -0.8278
 8208TIP3    H246040   4.202   0.654   6.249  0.3623  0.7609  0.8192
 8209TIP3   OH246041   3.573   1.307  14.320  0.0440 -0.0737 -0.5082
 8209TIP3    H146042   3.628   1.309  14.399 -0.9168 -0.9465  0.2104
 8209TIP3    H246043   3.527   1.391  14.321  0.4991  0.1784 -0.4835
 8210TIP3   OH246044   3.991   6.564   0.088 -0.2312  0.2909 -0.2889
 8210TIP3    H146045   3.963   6.533   0.002 -1.0707 -0.0123  0.0868
 8210TIP3    H246046   4.024   6.486   0.133  2.8432  0.8810 -1.2928
 8211TIP3   OH246047   1.098   0.753   3.295  0.0710  0.3039 -0.2632
 8211TIP3    H146048   1.166   0.804   3.339  0.4526 -1.0301  0.7916
 8211TIP3    H246049   1.118   0.761   3.202  1.9872 -0.4156  0.0328
 8212TIP3   OH246050   6.484   1.390   1.480  0.2262  0.0280 -0.0224
 8212TIP3    H146051   6.401   1.434   1.501  0.1222  0.4989 -1.2938
 8212TIP3    H246052   6.551   1.443   1.522 -0.0514  0.2393  0.1566
 8213TIP3   OH246053   2.487   6.132  15.759  0.4391  0.1833  0.2099
 8213TIP3    H146054   2.401   6.137  15.718  0.9172  0.3777 -0.8068
 8213TIP3    H246055   2.533   6.209  15.726  0.6087  0.7656  1.7112
 8214TIP3   OH246056   0.364   0.601   1.659  0.3714  0.5705  0.2773
 8214TIP3    H146057   0.288   0.620   1.713  0.3927  0.4189  0.3600
 8214TIP3    H246058   0.421   0.547   1.714  0.5597  0.7210  0.2326
 8215TIP3   OH246059   5.332   6.332  13.157  0.2502  0.0091  0.0364
 8215TIP3    H146060   5.411   6.350  13.107  0.8176 -0.7786  0.6164
 8215TIP3    H246061   5.361   6.274  13.228 -0.8174 -0.1677  0.3526
 8216TIP3   OH246062   5.046   2.466   1.219 -0.1219  0.0741  0.2093
 8216TIP3    H146063   5.020   2.534   1.158  0.1898 -1.4485 -1.7209
 8216TIP3    H246064   5.049   2.386   1.167 -0.5483 -1.4609  2.3843
 8217TIP3   OH246065   5.744   0.801  16.328 -0.5123  0.0722  0.0879
 8217TIP3    H146066   5.659   0.840  16.308  0.5529  1.6564 -1.6995
 8217TIP3    H246067   5.727   0.707  16.330 -2.3094  0.3559 -0.2107
 8218TIP3   OH246068   1.106   1.674  11.847  0.5868 -0.0176 -0.7123
 8218TIP3    H146069   1.119   1.621  11.926  2.0232 -1.3294 -1.7658
 8218TIP3    H246070   1.042   1.739  11.872  0.9648 -0.4367  1.5258
 8219TIP3   OH246071   1.138   0.489   4.932 -0.0392 -0.7133  0.1331
 8219TIP3    H146072   1.066   0.434   4.903  0.1377 -2.5424  2.8188
 8219TIP3    H246073   1.098   0.553   4.991  0.3489 -0.8199  0.5167
 8220TIP3   OH246074   1.923   3.320   0.531 -0.2112 -0.2346 -0.2117
 8220TIP3    H146075   1.834   3.316   0.496  0.4328 -2.0144 -1.7504
 8220TIP3    H246076   1.977   3.274   0.467  2.1044  2.0520 -0.0791
 8221TIP3   OH246077   1.886   0.508   2.658  0.2569 -0.1280  0.5165
 8221TIP3    H146078   1.907   0.415   2.668  0.9299  0.1510  1.9934
 8221TIP3    H246079   1.823   0.525   2.728 -3.0754 -0.3148 -2.1322
 8222TIP3   OH246080   4.958   5.986   3.092 -0.6651  0.2531  0.1855
 8222TIP3    H146081   5.029   6.049   3.106 -1.0561  1.1949 -1.7459
 8222TIP3    H246082   4.883   6.039   3.066 -0.8847 -1.0189 -1.9811
 8223TIP3   OH246083   3.356   4.572  11.577  0.2330 -0.3428 -0.0406
 8223TIP3    H146084   3.360   4.595  11.485 -2.7496  1.5481  0.1388
 8223TIP3    H246085   3.424   4.625  11.618  0.1067  0.5384 -0.9263
 8224TIP3   OH246086   2.545   4.783  17.233  0.0801  0.1652  0.4338
 8224TIP3    H146087   2.567   4.876  17.225 -1.1368  0.5048  0.8371
 8224TIP3    H246088   2.450   4.780  17.225  0.2364 -1.2796 -1.5118
 8225TIP3   OH246089   4.018   0.777   3.659  0.1034  0.5613 -0.4590
 8225TIP3    H146090   3.986   0.854   3.705 -0.2715 -0.9539  1.9782
 8225TIP3    H246091   4.111   0.796   3.641 -0.1175  1.7614 -0.3693
 8226TIP3   OH246092   4.086   3.347   1.075  0.5631 -0.5335  0.4968
 8226TIP3    H146093   4.070   3.373   0.984 -0.5064 -1.0728  0.5221
 8226TIP3    H246094   4.166   3.294   1.070  1.3826  0.6725  0.1079
 8227TIP3   OH246095   5.480   3.813   1.636 -0.4085  0.2169  0.5050
 8227TIP3    H146096   5.570   3.826   1.667  0.2794  3.3596 -2.2991
 8227TIP3    H246097   5.489   3.769   1.552 -1.0880  3.2062 -1.2852
 8228TIP3   OH246098   0.494   0.881  12.988 -0.6381  0.5185  0.4942
 8228TIP3    H146099   0.585   0.897  12.965 -0.7745 -0.5539 -0.9191
 8228TIP3    H246100   0.448   0.959  12.957 -0.4016  0.4023 -0.1613
 8229TIP3   OH246101   4.684   2.084   1.870  0.4631 -0.1351  0.2745
 8229TIP3    H146102   4.617   2.152   1.876  1.6270  1.0318  0.6243
 8229TIP3    H246103   4.639   2.008   1.833 -0.6905  1.0894 -0.9104
 8230TIP3   OH246104   3.328   5.396  14.283  0.4906  0.3394  0.1636
 8230TIP3    H146105   3.313   5.419  14.375 -0.2212 -0.3426  0.2233
 8230TIP3    H246106   3.389   5.322  14.287  1.4670  1.1077  0.0266
 8231TIP3   OH246107   6.735   4.279  14.243  0.9381  0.2579 -0.1985
 8231TIP3    H146108   6.721   4.195  14.200  0.5348  0.1107  0.2206
 8231TIP3    H246109   6.812   4.315  14.200  1.4638 -0.5884  0.0242
 8232TIP3   OH246110   3.026   0.917   2.393 -0.2287 -0.9972 -0.0117
 8232TIP3    H146111   3.029   0.923   2.298 -0.6289  2.6245  0.0633
 8232TIP3    H246112   3.114   0.940   2.422 -0.1249 -2.0119  0.5140
 8233TIP3   OH246113   2.796   2.562   1.960 -0.2724 -0.3197  0.0273
 8233TIP3    H146114   2.880   2.607   1.971 -0.0806 -0.6289 -0.1399
 8233TIP3    H246115   2.756   2.565   2.047 -0.4644  0.5606 -0.0913
 8234TIP3   OH246116   0.414   2.825  14.156  0.5722  0.0456  0.9800
 8234TIP3    H146117   0.451   2.887  14.093 -1.4451 -0.6252 -0.9913
 8234TIP3    H246118   0.400   2.745  14.105  1.5139 -1.5421  3.0326
 8235TIP3   OH246119   0.144   6.646  16.544  0.3188  0.1948 -1.0550
 8235TIP3    H146120   0.187   6.721  16.502  0.7662  0.5607  0.0141
 8235TIP3    H246121   0.055   6.647  16.509 -0.4489  2.6902  0.6474
 8236TIP3   OH246122   3.590   4.438  15.669  0.5330  0.4122 -0.1995
 8236TIP3    H146123   3.657   4.369  15.671 -0.3456 -0.4481  0.4370
 8236TIP3    H246124   3.524   4.409  15.732  0.2623  1.9794  0.2714
 8237TIP3   OH246125   1.786   3.177  12.603  0.1983  0.4438  0.2552
 8237TIP3    H146126   1.880   3.162  12.597 -0.0042 -0.5084 -0.9457
 8237TIP3    H246127   1.762   3.145  12.690  0.9978  0.8919  0.6568
 8238TIP3   OH246128   0.928   5.660  13.044  0.0675 -0.3145  0.0261
 8238TIP3    H146129   0.838   5.659  13.078 -0.4098 -1.5357 -1.1859
 8238TIP3    H246130   0.975   5.598  13.099 -0.6421 -2.0981 -1.2841
 8239TIP3   OH246131   4.033   1.038   2.878 -0.6222 -0.0833  0.2492
 8239TIP3    H146132   4.086   0.964   2.908  0.0232  0.7026  1.1069
 8239TIP3    H246133   3.959   0.997   2.833 -0.3840 -1.2560  0.8673
 8240TIP3   OH246134   4.559   5.332   0.048 -0.5658  0.2494  0.0904
 8240TIP3    H146135   4.515   5.333   0.133  0.8179  0.3492  0.8289
 8240TIP3    H246136   4.508   5.271  -0.005  0.6292 -2.7539  2.1446
 8241TIP3   OH246137   5.914   3.326  14.065 -0.2722 -0.4350  0.0025
 8241TIP3    H146138   5.872   3.377  13.996 -0.7308 -1.1131 -0.2313
 8241TIP3    H246139   5.905   3.381  14.144 -2.5259 -0.9489  0.1923
 8242TIP3   OH246140   3.442   2.173   4.050  0.0105 -0.3159  0.0762
 8242TIP3    H146141   3.445   2.251   4.106  0.1268 -1.5988  1.9597
 8242TIP3    H246142   3.478   2.202   3.966  2.8299  0.9742  1.5839
 8243TIP3   OH246143   3.222   0.253   5.598 -0.6846  0.0990  0.4498
 8243TIP3    H146144   3.141   0.204   5.581  0.5913 -2.0509  0.2588
 8243TIP3    H246145   3.224   0.265   5.693  0.6401 -3.4578  1.0113
 8244TIP3   OH246146   1.047   4.342  12.032 -0.7169 -0.3402 -0.4916
 8244TIP3    H146147   1.068   4.417  11.976  0.2697 -0.2109  0.0285
 8244TIP3    H246148   1.081   4.367  12.118 -0.7884 -1.1997 -0.2104
 8245TIP3   OH246149   4.745   5.732   4.226 -0.0209  0.0618  0.6784
 8245TIP3    H146150   4.735   5.689   4.141  0.4635 -0.7759  1.0211
 8245TIP3    H246151   4.658   5.725   4.267 -0.1035 -0.0600  0.4832
 8246TIP3   OH246152   0.937   5.547  12.816 -0.0441 -0.0583 -0.0465
 8246TIP3    H146153   1.030   5.569  12.802 -0.4054  1.5184 -0.2249
 8246TIP3    H246154   0.919   5.576  12.905  0.3047 -2.9981  1.0892
 8247TIP3   OH246155   0.973   2.105  12.949  0.4418 -0.3818  0.1040
 8247TIP3    H146156   0.916   2.044  12.901 -0.7501 -0.4302  1.5114
 8247TIP3    H246157   1.021   2.152  12.880 -1.2141 -0.4292 -1.1463
 8248TIP3   OH246158   2.721   6.586  14.043 -0.1137  0.3828 -0.1295
 8248TIP3    H146159   2.632   6.616  14.059  0.0230  1.7966 -1.7388
 8248TIP3    H246160   2.776   6.643  14.096  0.0265  1.9835 -1.8853
 8249TIP3   OH246161   1.863   5.777   0.530 -0.4408  0.2431  0.3489
 8249TIP3    H146162   1.930   5.716   0.500  0.6435  1.2957  0.5534
 8249TIP3    H246163   1.806   5.724   0.585 -0.4721 -0.9347 -0.7583
 8250TIP3   OH246164   3.397   2.414   4.232  0.5276  0.1514 -0.7449
 8250TIP3    H146165   3.439   2.469   4.298 -1.2196  0.1942  0.4043
 8250TIP3    H246166   3.311   2.393   4.269  0.3023 -1.5876 -2.0908
 8251TIP3   OH246167   2.736   5.113   2.825 -0.0884 -0.0479 -0.0705
 8251TIP3    H146168   2.805   5.086   2.764  1.5410  1.1233  1.1650
 8251TIP3    H246169   2.702   5.195   2.789 -0.2669 -0.1980 -0.2463
 8252TIP3   OH246170   0.920   6.508  12.745  0.1319 -0.2445  0.2158
 8252TIP3    H146171   0.999   6.561  12.736 -0.2187  0.2730  0.1478
 8252TIP3    H246172   0.942   6.425  12.702  0.8950 -0.3906  0.8565
 8253TIP3   OH246173   0.846   2.587   1.562  0.1542 -0.2758  0.5086
 8253TIP3    H146174   0.762   2.578   1.608  0.2157  0.5905  0.8043
 8253TIP3    H246175   0.865   2.681   1.566  0.9778 -0.4269  0.1532
 8254TIP3   OH246176   1.202   1.813  14.218 -0.0381 -0.5147  0.4119
 8254TIP3    H146177   1.189   1.719  14.203  1.8378 -0.5880 -1.3169
 8254TIP3    H246178   1.221   1.820  14.311 -2.6798 -1.4627  1.1084
 8255TIP3   OH246179   0.744   2.980  15.744  0.4443 -0.1590 -0.1312
 8255TIP3    H146180   0.804   2.909  15.768  1.3135  0.0268 -1.5820
 8255TIP3    H246181   0.755   2.988  15.649 -0.8601  0.8293 -0.2186
 8256TIP3   OH246182   5.629   0.380   2.342 -0.1644 -0.0588  0.0502
 8256TIP3    H146183   5.577   0.454   2.375  0.8662  0.0747  1.4377
 8256TIP3    H246184   5.697   0.421   2.289  0.4622  0.0238  0.8936
 8257TIP3   OH246185   6.728   2.020  14.075 -0.0914  0.2834 -0.1606
 8257TIP3    H146186   6.699   2.097  14.125 -1.3584  0.8501 -1.6965
 8257TIP3    H246187   6.651   1.964  14.072 -0.4235  0.7995 -2.4506
 8258TIP3   OH246188   1.732   5.691   3.753 -0.2888  0.4100 -0.0488
 8258TIP3    H146189   1.683   5.692   3.671 -0.1880 -0.9283 -0.1431
 8258TIP3    H246190   1.820   5.720   3.729 -0.4251  0.6369 -0.2836
 8259TIP3   OH246191   2.003   0.598  12.728  0.0670  0.5287  0.1350
 8259TIP3    H146192   1.923   0.612  12.778  0.4474  0.0809  0.9029
 8259TIP3    H246193   2.049   0.682  12.732 -0.9386  1.1710 -1.4002
 8260TIP3   OH246194   1.027   4.914  11.211 -0.2069 -0.1235 -0.1237
 8260TIP3    H146195   0.988   4.987  11.162  0.5244  0.4399  0.1024
 8260TIP3    H246196   1.094   4.879  11.153  0.3771  0.2756  0.2948
 8261TIP3   OH246197   0.919   3.843   4.899  0.1938  0.6719  0.2367
 8261TIP3    H146198   0.915   3.754   4.863 -0.7429 -0.1558  2.2191
 8261TIP3    H246199   0.841   3.850   4.953  0.0554  2.8742 -0.1756
 8262TIP3   OH246200   4.678   6.062   6.061 -0.2222 -0.3856 -0.2311
 8262TIP3    H146201   4.616   6.135   6.066  0.5565  0.2641  0.1132
 8262TIP3    H246202   4.722   6.073   5.977  1.0915  0.5602  0.5320
 8263TIP3   OH246203   5.838   0.015  16.590 -0.2381 -0.6044  0.2452
 8263TIP3    H146204   5.820   0.084  16.526  1.8084  0.1583  0.4084
 8263TIP3    H246205   5.760  -0.040  16.589 -1.0978  0.5596 -1.3806
 8264TIP3   OH246206   0.025   6.322  10.855  0.3389 -0.3681  0.0714
 8264TIP3    H146207   0.010   6.244  10.908 -0.5161 -1.0547 -1.1334
 8264TIP3    H246208  -0.056   6.372  10.862  0.4414 -0.1726 -0.1168
 8265TIP3   OH246209   4.594   0.794   1.299 -0.3063 -0.0102 -0.0983
 8265TIP3    H146210   4.504   0.805   1.330 -0.0974 -1.3353  1.0855
 8265TIP3    H246211   4.615   0.703   1.319  0.5029 -0.4282 -2.5693
 8266TIP3   OH246212   4.262   1.768  14.532  0.4900 -0.1869 -0.2278
 8266TIP3    H146213   4.312   1.807  14.603 -1.0803 -1.2220  1.5614
 8266TIP3    H246214   4.318   1.699  14.498  1.2003  0.2145  0.1037
 8267TIP3   OH246215   5.781   0.349  17.166  0.0879  0.5658 -0.1764
 8267TIP3    H146216   5.788   0.275  17.226 -1.1131  3.1723  3.5705
 8267TIP3    H246217   5.870   0.381  17.156  0.2462  0.4691  0.8239
 8268TIP3   OH246218   2.335   6.460  15.959 -0.0523 -0.0892 -0.1497
 8268TIP3    H146219   2.315   6.369  15.980  2.3262 -0.6275  0.0424
 8268TIP3    H246220   2.430   6.463  15.952  0.0425  2.6541  1.0373
 8269TIP3   OH246221   1.800   4.314  10.782  0.4141 -0.4723 -0.0318
 8269TIP3    H146222   1.828   4.223  10.768 -1.7332 -1.1675 -0.1264
 8269TIP3    H246223   1.716   4.321  10.736  0.9303  1.8378 -0.7650
 8270TIP3   OH246224   2.934   2.643  12.150 -0.1960 -0.6439 -0.7494
 8270TIP3    H146225   2.967   2.700  12.080  0.3546  1.9271  1.4417
 8270TIP3    H246226   3.010   2.628  12.206 -1.1076 -0.6869  0.5058
 8271TIP3   OH246227   3.694   1.181   3.293 -0.1026  0.3806  0.0387
 8271TIP3    H146228   3.670   1.108   3.237 -1.9129  1.4306 -0.6321
 8271TIP3    H246229   3.767   1.148   3.346 -0.6099 -1.7494 -0.5085
 8272TIP3   OH246230   5.900   2.190  15.895  0.3566 -0.2202  0.6069
 8272TIP3    H146231   5.911   2.258  15.829  0.8720 -1.8188 -1.0193
 8272TIP3    H246232   5.971   2.206  15.958 -0.3319  1.4957  0.9983
 8273TIP3   OH246233   4.939   3.653  17.172 -0.0580  0.1660 -0.0522
 8273TIP3    H146234   4.860   3.641  17.120 -0.0256  0.5897 -0.2033
 8273TIP3    H246235   4.915   3.625  17.260 -0.3865  0.3364 -0.0897
 8274TIP3   OH246236   4.047   6.730  11.417 -0.1697  0.0347 -0.1559
 8274TIP3    H146237   4.083   6.650  11.378 -1.6896 -1.3965  1.2259
 8274TIP3    H246238   3.969   6.750  11.364 -0.2529  0.1268  0.0008
 8275TIP3   OH246239   3.770   3.420  12.188  0.6624  0.0912 -0.0775
 8275TIP3    H146240   3.822   3.374  12.254 -0.6457 -0.5697  0.5338
 8275TIP3    H246241   3.697   3.361  12.169 -1.7172  2.2831  1.5392
 8276TIP3   OH246242   5.019   2.883  10.669 -0.0005 -0.0953 -0.6327
 8276TIP3    H146243   4.952   2.930  10.718  0.0898 -0.1676 -0.4376
 8276TIP3    H246244   5.099   2.933  10.684 -0.1925  0.5375 -1.6491
 8277TIP3   OH246245   2.624   0.367   5.564 -0.1470 -0.1292 -0.7457
 8277TIP3    H146246   2.708   0.381   5.607 -0.3607  1.4372 -0.7765
 8277TIP3    H246247   2.560   0.369   5.635 -0.5767  3.1705 -1.0718
 8278TIP3   OH246248   0.522   1.424   0.268 -0.1778  0.4355  0.5091
 8278TIP3    H146249   0.526   1.337   0.307 -0.6949  0.8143  1.4311
 8278TIP3    H246250   0.577   1.417   0.190  1.7477 -0.0703  1.8375
 8279TIP3   OH246251   3.782   1.567  13.805  0.3066 -0.2260  0.2169
 8279TIP3    H146252   3.858   1.620  13.830 -1.1351  1.9843  0.2222
 8279TIP3    H246253   3.792   1.486  13.855  1.8010  0.6781  1.4888
 8280TIP3   OH246254   2.918   3.193   5.177  0.0748  0.4369 -0.0889
 8280TIP3    H146255   2.973   3.153   5.110 -0.8171  0.2224 -0.7163
 8280TIP3    H246256   2.830   3.160   5.159 -0.5712  2.0639 -0.1523
 8281TIP3   OH246257   3.252   0.954   6.908 -0.3946  0.1668 -0.1522
 8281TIP3    H146258   3.283   0.935   6.997 -0.2738 -0.0195 -0.2348
 8281TIP3    H246259   3.323   0.928   6.851 -0.3451  0.5843 -0.2898
 8282TIP3   OH246260   2.491   0.417  11.032  0.3127  0.3315  0.3701
 8282TIP3    H146261   2.425   0.455  10.974 -0.0422  1.5410  1.5174
 8282TIP3    H246262   2.444   0.399  11.114  1.7611  3.3062  2.0255
 8283TIP3   OH246263   3.019   0.025  14.093 -0.0219 -0.5560  0.0904
 8283TIP3    H146264   3.045  -0.041  14.159 -0.8601 -1.9807 -0.9497
 8283TIP3    H246265   3.067  -0.001  14.014 -0.8256 -0.2587 -0.4968
 8284TIP3   OH246266   4.797   2.236  16.367 -0.6643  0.5755  0.2136
 8284TIP3    H146267   4.780   2.322  16.328  1.8030  1.3353  0.6130
 8284TIP3    H246268   4.732   2.229  16.437 -1.7926  1.4781 -0.6874
 8285TIP3   OH246269   1.357   4.624   6.207  0.2097  0.4180 -0.4006
 8285TIP3    H146270   1.384   4.555   6.268 -0.1663  1.0090  0.4576
 8285TIP3    H246271   1.438   4.670   6.186  0.4356 -0.1732 -0.8429
 8286TIP3   OH246272   5.334   0.835  16.001 -0.5863  0.2031 -0.3820
 8286TIP3    H146273   5.421   0.874  15.991 -0.4099 -0.2335 -0.5896
 8286TIP3    H246274   5.340   0.751  15.955 -0.1209 -1.3339  2.2594
 8287TIP3   OH246275   2.747   2.557   2.732  0.3320  0.2190  0.4889
 8287TIP3    H146276   2.835   2.527   2.756  0.7454  0.2289 -0.9349
 8287TIP3    H246277   2.732   2.633   2.789  1.5325  0.6236  0.3087
 8288TIP3   OH246278   1.927   6.138  11.884  0.9609 -0.2020 -0.0696
 8288TIP3    H146279   1.837   6.121  11.911  0.7586  1.6463  0.5237
 8288TIP3    H246280   1.974   6.056  11.904 -0.6177 -1.3239 -0.7422
 8289TIP3   OH246281   5.037   1.772   2.926 -0.1627  0.0013 -0.6571
 8289TIP3    H146282   5.071   1.692   2.966  0.6832  0.8221  0.3251
 8289TIP3    H246283   4.988   1.742   2.850  1.9277 -1.3190 -1.5714
 8290TIP3   OH246284   5.962   1.024   2.556  0.5838  0.3157 -0.1648
 8290TIP3    H146285   5.987   0.965   2.626  1.7321  2.6817  1.5564
 8290TIP3    H246286   5.874   1.054   2.579  1.2421  1.6454  0.7197
 8291TIP3   OH246287   1.177   5.964  15.622  0.0903  0.0813 -0.1898
 8291TIP3    H146288   1.187   5.954  15.716  0.7981 -1.1376 -0.3706
 8291TIP3    H246289   1.251   5.916  15.585 -1.2872 -1.2431 -1.4018
 8292TIP3   OH246290   4.653   2.302  13.828  0.1870  0.0882  0.3533
 8292TIP3    H146291   4.615   2.347  13.752  0.8060  0.1919  0.0956
 8292TIP3    H246292   4.721   2.362  13.859  1.5749 -0.9819 -0.4815
 8293TIP3   OH246293   0.189   5.999   1.933 -0.4493 -0.6930 -0.1340
 8293TIP3    H146294   0.210   5.984   2.026 -0.2954  1.5466  0.2498
 8293TIP3    H246295   0.170   6.093   1.928 -0.4781 -0.7748 -2.3843
 8294TIP3   OH246296   3.593   1.269   2.292  0.5168 -0.6190  0.2899
 8294TIP3    H146297   3.527   1.292   2.357 -0.7506 -0.0823 -1.1448
 8294TIP3    H246298   3.589   1.339   2.228  4.0743  0.6436  1.2353
 8295TIP3   OH246299   4.227   0.305  13.785  0.1269 -0.2777 -0.2150
 8295TIP3    H146300   4.315   0.273  13.767  0.0372  0.0348 -1.3022
 8295TIP3    H246301   4.240   0.396  13.811  0.1955 -0.5216  0.6424
 8296TIP3   OH246302   0.741   1.934  15.674 -0.2049 -0.4435  0.4480
 8296TIP3    H146303   0.741   1.930  15.578 -0.9678  1.4385  0.3332
 8296TIP3    H246304   0.649   1.933  15.698 -0.0148 -1.1311  1.2079
 8297TIP3   OH246305   3.031   2.453  14.463 -0.0606 -0.0342  0.4293
 8297TIP3    H146306   2.972   2.503  14.406  1.3255  1.6538  0.4054
 8297TIP3    H246307   2.988   2.454  14.548 -0.2483  0.8957  0.3410
 8298TIP3   OH246308   5.779   0.365  14.782 -0.1883 -0.4310  0.4985
 8298TIP3    H146309   5.826   0.288  14.750  1.7493  0.3485  1.3610
 8298TIP3    H246310   5.781   0.357  14.878 -1.6309 -0.2380  0.5752
 8299TIP3   OH246311   0.486   2.863  14.813  0.7929 -0.4443  0.2765
 8299TIP3    H146312   0.518   2.951  14.793  1.6835 -0.8169  0.0152
 8299TIP3    H246313   0.415   2.877  14.875  1.0496  0.4533  0.3860
 8300TIP3   OH246314   4.071   4.086   2.465 -0.2686  0.4564  0.6235
 8300TIP3    H146315   4.049   3.999   2.432  0.1194  0.3763  0.5652
 8300TIP3    H246316   3.988   4.122   2.497 -0.8496  0.8946 -1.2719
 8301TIP3   OH246317   1.844   0.229   1.466 -0.3508  0.4143 -0.3618
 8301TIP3    H146318   1.788   0.195   1.396 -0.2026 -1.3466  0.3232
 8301TIP3    H246319   1.852   0.322   1.447  1.2531 -0.2674 -3.7927
 8302TIP3   OH246320   4.881   0.972  11.251  0.5979 -0.2803  0.1966
 8302TIP3    H146321   4.968   0.966  11.289 -0.2565 -0.3590  2.3048
 8302TIP3    H246322   4.863   1.066  11.247  0.0416 -0.2845  1.7287
 8303TIP3   OH246323   0.508   2.053   2.005  0.3681 -0.6490  0.2542
 8303TIP3    H146324   0.538   2.061   2.096  0.6585 -1.6664  0.2716
 8303TIP3    H246325   0.424   2.098   2.003  0.0336 -1.1928  1.2103
 8304TIP3   OH246326   5.304   6.194  11.475  0.6929 -0.8104 -0.7962
 8304TIP3    H146327   5.225   6.160  11.433  1.1681  0.4757 -2.8495
 8304TIP3    H246328   5.369   6.125  11.464  0.5399 -0.8723 -1.3328
 8305TIP3   OH246329   0.776   3.533   5.415  0.6326  0.2884  0.0761
 8305TIP3    H146330   0.816   3.575   5.491  0.1458  0.4477  0.2458
 8305TIP3    H246331   0.835   3.461   5.394  0.7159  0.1817  0.6685
 8306TIP3   OH246332   0.634   0.814  12.082  0.1482  0.3323 -0.1283
 8306TIP3    H146333   0.707   0.859  12.124  0.3837  0.0207 -0.2016
 8306TIP3    H246334   0.612   0.743  12.141  1.0822 -0.6736 -0.9539
 8307TIP3   OH246335   4.707   3.435  16.822 -0.1892 -0.8509 -0.3366
 8307TIP3    H146336   4.790   3.392  16.799  1.9567  0.9721  3.0892
 8307TIP3    H246337   4.647   3.363  16.841  0.7044 -2.2315 -2.3902
 8308TIP3   OH246338   2.997   3.023  12.274  0.1197 -0.1142 -0.3643
 8308TIP3    H146339   2.946   2.981  12.343 -0.0864  1.3118  0.3964
 8308TIP3    H246340   3.055   2.955  12.242 -2.4095 -1.9341 -1.4598
 8309TIP3   OH246341   0.328   3.652   3.785 -0.5010 -0.2861 -0.2970
 8309TIP3    H146342   0.327   3.627   3.877  0.5669  2.5497  0.5866
 8309TIP3    H246343   0.237   3.673   3.765 -0.3749  1.7132  0.9806
 8310TIP3   OH246344   6.493   5.360  12.129 -0.1777 -0.1505 -0.0945
 8310TIP3    H146345   6.484   5.452  12.106  3.2191  0.1549 -0.6217
 8310TIP3    H246346   6.478   5.313  12.048  2.0409  0.2667 -0.7944
 8311TIP3   OH246347   3.465   5.946  14.162  0.2482 -0.0715  0.3268
 8311TIP3    H146348   3.513   5.863  14.165  1.1145  0.4324  0.6465
 8311TIP3    H246349   3.420   5.945  14.077  1.3378 -0.2685 -0.2638
 8312TIP3   OH246350   3.313   6.248   5.136 -0.4357  0.3359  0.1211
 8312TIP3    H146351   3.400   6.210   5.148 -1.1167 -0.7627  2.0263
 8312TIP3    H246352   3.328   6.343   5.145  0.7494  0.2874 -1.0285
 8313TIP3   OH246353   1.592   2.153  12.974  0.0146  0.0369 -0.0077
 8313TIP3    H146354   1.586   2.101  13.054 -0.0667  1.5310  1.0055
 8313TIP3    H246355   1.631   2.236  13.002 -1.6372  1.2739 -1.1461
 8314TIP3   OH246356   1.171   4.795   0.707  0.4564 -0.2186 -0.0725
 8314TIP3    H146357   1.119   4.873   0.721  0.5203 -0.4123  1.3377
 8314TIP3    H246358   1.237   4.821   0.643  0.5244  0.9033  0.4412
 8315TIP3   OH246359   5.987   2.381  15.716 -0.3988 -0.5993 -0.0111
 8315TIP3    H146360   5.997   2.463  15.765  1.1506 -0.6990 -0.1001
 8315TIP3    H246361   6.065   2.377  15.660  1.9784 -4.2068  3.0857
 8316TIP3   OH246362   0.052   4.405   4.082  0.1378 -0.4528 -0.1403
 8316TIP3    H146363   0.046   4.499   4.100 -1.3359 -0.0420 -2.4107
 8316TIP3    H246364  -0.023   4.367   4.129 -0.0729 -0.2909 -0.3427
 8317TIP3   OH246365   4.324   6.014  15.230  0.0147 -0.0602  0.0259
 8317TIP3    H146366   4.309   5.921  15.247 -0.2750 -0.0344 -0.0846
 8317TIP3    H246367   4.384   6.041  15.299 -0.6900 -0.0971  0.6696
 8318TIP3   OH246368   4.126   1.502  15.163 -0.1786 -0.4112 -0.0526
 8318TIP3    H146369   4.144   1.412  15.190  0.2466  0.0110  1.1080
 8318TIP3    H246370   4.034   1.502  15.139 -1.0943 -0.4350  3.1021
 8319TIP3   OH246371   1.828   4.723   5.636 -0.0358  0.5256 -0.7146
 8319TIP3    H146372   1.923   4.715   5.641  0.1514  0.1758 -3.2058
 8319TIP3    H246373   1.814   4.812   5.603 -0.4021 -0.1268 -2.4235
 8320TIP3   OH246374   3.468   0.764   0.805  0.1597 -0.2181 -0.9856
 8320TIP3    H146375   3.551   0.811   0.801  1.0369 -1.6280 -0.0419
 8320TIP3    H246376   3.448   0.741   0.715  1.2330 -0.5906 -1.1391
 8321TIP3   OH246377   6.084   4.045   4.960  0.6186  0.8080 -0.0081
 8321TIP3    H146378   6.148   4.083   4.899  0.0083 -1.0256 -1.9189
 8321TIP3    H246379   6.130   3.971   4.999  0.1638  0.4087 -0.2247
 8322TIP3   OH246380   1.422   6.393   3.782  0.3688 -0.3457  0.2587
 8322TIP3    H146381   1.489   6.453   3.750 -1.8813  0.1815 -4.1442
 8322TIP3    H246382   1.359   6.448   3.828 -0.0845  0.1949 -0.9866
 8323TIP3   OH246383   1.039   4.106  17.088  0.1917 -0.0194  0.0540
 8323TIP3    H146384   1.069   4.180  17.035  0.8536 -1.0933 -1.1175
 8323TIP3    H246385   1.112   4.044  17.087 -0.4835 -0.8500  0.6990
 8324TIP3   OH246386   2.910   1.352  15.721  0.3717  0.4198 -0.4027
 8324TIP3    H146387   2.916   1.438  15.763  0.0782 -0.4142  1.4507
 8324TIP3    H246388   2.852   1.365  15.646 -0.3449  1.6465  0.3464
 8325TIP3   OH246389   6.579   1.380   0.467  0.2352  0.1958 -0.7074
 8325TIP3    H146390   6.627   1.310   0.421 -0.4318 -3.4339  3.4194
 8325TIP3    H246391   6.642   1.414   0.530 -0.6334  0.3398  0.1000
 8326TIP3   OH246392   4.573   4.181   1.332  0.3855 -0.0045  0.5246
 8326TIP3    H146393   4.627   4.162   1.255  1.0230  0.2426  0.9078
 8326TIP3    H246394   4.520   4.101   1.344  0.4610 -0.1397 -0.0174
 8327TIP3   OH246395   4.036   2.697   5.257  0.2506  0.3856 -0.6310
 8327TIP3    H146396   4.093   2.631   5.295 -1.5545 -0.7034  0.2987
 8327TIP3    H246397   3.971   2.715   5.325 -0.1493  2.0638 -1.4019
 8328TIP3   OH246398   2.897   5.532   3.488 -0.0535 -0.8178 -0.4636
 8328TIP3    H146399   2.928   5.442   3.478  2.0141 -0.3159  0.8321
 8328TIP3    H246400   2.883   5.543   3.582  0.0898  0.3189 -0.5590
 8329TIP3   OH246401   0.426   3.351   4.496  0.1186  0.4275  0.0730
 8329TIP3    H146402   0.357   3.366   4.561 -0.1730 -0.5926  0.0274
 8329TIP3    H246403   0.455   3.261   4.514 -0.7832 -0.3166 -1.9153
 8330TIP3   OH246404   3.843   0.420   6.099 -0.6268  0.4789 -0.0338
 8330TIP3    H146405   3.846   0.331   6.063  0.3788  1.2526 -2.0030
 8330TIP3    H246406   3.815   0.475   6.026 -2.0639  1.7215  1.3742
 8331TIP3   OH246407   6.167   2.715   3.003 -0.1516 -0.1424 -0.8544
 8331TIP3    H146408   6.129   2.709   2.915 -1.3559  0.0467 -0.3715
 8331TIP3    H246409   6.154   2.628   3.040 -2.5066  0.5713  0.2147
 8332TIP3   OH246410   1.839   1.449  15.027  0.0477  0.3955 -0.1288
 8332TIP3    H146411   1.760   1.483  14.985 -1.1953  1.0055  2.5057
 8332TIP3    H246412   1.811   1.368  15.070  0.7029  0.8635  1.2377
 8333TIP3   OH246413   2.285   4.930  12.027 -0.3332  0.1990 -0.1709
 8333TIP3    H146414   2.201   4.960  11.994 -0.9773  0.6806  1.7651
 8333TIP3    H246415   2.297   4.843  11.989 -0.5661  1.0501 -2.2974
 8334TIP3   OH246416   4.396   5.161  12.515  0.1442  0.0060  0.6836
 8334TIP3    H146417   4.385   5.066  12.515  1.4352 -0.1702  0.1775
 8334TIP3    H246418   4.475   5.176  12.567  0.1004  0.7828  0.5479
 8335TIP3   OH246419   6.530   3.782  14.121  0.3112  0.1656 -0.6122
 8335TIP3    H146420   6.582   3.804  14.043  2.4576  0.2231  0.7649
 8335TIP3    H246421   6.564   3.697  14.149  0.1305  0.5131  0.7112
 8336TIP3   OH246422   0.779   1.571  16.186 -0.1250  0.3251  0.4690
 8336TIP3    H146423   0.764   1.553  16.279  0.3166  3.1894  1.1766
 8336TIP3    H246424   0.733   1.652  16.169  2.1776  1.4339 -1.0302
 8337TIP3   OH246425   2.217   6.486  13.608  0.1230  0.1459 -0.0236
 8337TIP3    H146426   2.303   6.470  13.569 -0.7477  0.9266 -2.4330
 8337TIP3    H246427   2.208   6.581  13.606 -0.2148  0.1748  1.6307
 8338TIP3   OH246428   6.230   4.598   2.354  0.2373  0.5658 -0.4700
 8338TIP3    H146429   6.135   4.595   2.342  0.2689  2.4508 -1.6386
 8338TIP3    H246430   6.266   4.589   2.266  1.1467  0.2030 -0.0765
 8339TIP3   OH246431   5.473   4.132   5.372 -0.2782  0.1922 -0.0516
 8339TIP3    H146432   5.553   4.131   5.320 -0.2501  1.4054 -0.0485
 8339TIP3    H246433   5.487   4.065   5.439 -0.7808 -2.2515 -2.2431
 8340TIP3   OH246434   2.545   2.985   2.643 -0.2215  0.2834  0.2107
 8340TIP3    H146435   2.534   2.919   2.712 -0.8529  0.6996  0.5189
 8340TIP3    H246436   2.461   2.985   2.598 -0.9860  2.3103  1.4977
 8341TIP3   OH246437   4.892   1.474   0.473  0.0413  0.0581  0.1902
 8341TIP3    H146438   4.985   1.469   0.451  0.1810 -0.1448  0.8190
 8341TIP3    H246439   4.847   1.450   0.391  0.5177  0.9300 -0.3409
 8342TIP3   OH246440   0.929   4.464   3.702 -0.3486  0.2148 -0.6512
 8342TIP3    H146441   0.860   4.521   3.735  0.5959  0.6374  0.6679
 8342TIP3    H246442   0.892   4.376   3.708  0.0715  0.1275  2.6020
 8343TIP3   OH246443   0.902   5.044  13.894 -0.6052 -0.3137  1.0908
 8343TIP3    H146444   0.930   5.132  13.918  1.8341 -0.8312  0.4591
 8343TIP3    H246445   0.815   5.035  13.931 -0.4697  1.9662  2.1103
 8344TIP3   OH246446   4.001   3.013  13.684  0.0635  0.6126 -0.0692
 8344TIP3    H146447   4.060   2.955  13.732  0.2343 -0.0005 -0.9751
 8344TIP3    H246448   3.936   3.041  13.748  0.2813 -0.1894  0.5171
 8345TIP3   OH246449   0.433   3.898   4.205  0.0830  0.4872  0.4034
 8345TIP3    H146450   0.518   3.924   4.240  0.5493 -0.1788 -0.2115
 8345TIP3    H246451   0.434   3.929   4.114 -0.3281  0.4539  0.3850
 8346TIP3   OH246452   0.100   3.628   3.275  0.0112  0.3088  0.2747
 8346TIP3    H146453   0.035   3.678   3.225  1.2617  0.5795 -1.1310
 8346TIP3    H246454   0.072   3.537   3.266  0.8022  0.2299 -1.9114
 8347TIP3   OH246455   4.348   6.376   4.602  0.3226  0.2452  0.3129
 8347TIP3    H146456   4.359   6.282   4.594  1.7904  0.4407 -0.4052
 8347TIP3    H246457   4.269   6.395   4.550 -0.1517 -0.6015  0.7032
 8348TIP3   OH246458   4.694   3.385  11.205 -0.0777 -0.4800  0.5827
 8348TIP3    H146459   4.746   3.406  11.127 -4.2575 -0.4327 -2.5178
 8348TIP3    H246460   4.680   3.470  11.248 -0.5416  0.0716 -0.6226
 8349TIP3   OH246461   3.910   5.075  14.264  0.3188  0.4189 -0.0311
 8349TIP3    H146462   3.987   5.018  14.268  0.1865  0.2528  0.2010
 8349TIP3    H246463   3.940   5.154  14.218  1.0510  1.0173  1.4115
 8350TIP3   OH246464   2.828   5.290   4.221 -0.0147 -0.0412 -0.2834
 8350TIP3    H146465   2.818   5.194   4.220  1.1423 -0.2882  2.3149
 8350TIP3    H246466   2.749   5.322   4.264  0.2946  0.0203  0.2430
 8351TIP3   OH246467   6.072   2.222  13.816  0.0551  0.5490  0.4375
 8351TIP3    H146468   6.069   2.294  13.879 -0.9341 -0.5721  1.7307
 8351TIP3    H246469   6.147   2.169  13.842  0.9105  1.1800 -0.6416
 8352TIP3   OH246470   0.239   1.725   0.278  0.0717 -0.1980 -0.0053
 8352TIP3    H146471   0.242   1.811   0.318  3.2817  0.6811 -1.7481
 8352TIP3    H246472   0.253   1.741   0.185 -1.7564 -2.4823 -0.7776
 8353TIP3   OH246473   5.366   0.573  15.966  0.3387 -0.0744  0.2977
 8353TIP3    H146474   5.392   0.488  16.001 -1.0507 -1.3593 -1.5798
 8353TIP3    H246475   5.300   0.553  15.899 -0.2037  2.5020 -0.0741
 8354TIP3   OH246476   2.441   4.794  13.751  0.2127 -0.3734 -0.0380
 8354TIP3    H146477   2.484   4.832  13.675  0.6820  1.3414  1.0364
 8354TIP3    H246478   2.453   4.699  13.741  3.0156 -0.0433 -0.5027
 8355TIP3   OH246479   1.014   4.081   2.599 -0.3188 -0.0379  0.0189
 8355TIP3    H146480   0.989   4.167   2.567  1.6641  0.4495 -0.3301
 8355TIP3    H246481   1.064   4.042   2.527  0.6815 -0.5867  0.9876
 8356TIP3   OH246482   4.225   2.463  11.336 -0.0034 -0.1880 -0.5334
 8356TIP3    H146483   4.240   2.544  11.385 -0.1414 -0.5128  0.0554
 8356TIP3    H246484   4.136   2.472  11.301 -0.4756 -0.5777  0.5202
 8357TIP3   OH246485   6.704   0.650  16.078 -0.3193  0.3378  0.3219
 8357TIP3    H146486   6.784   0.598  16.073  0.7322  1.9730 -2.0063
 8357TIP3    H246487   6.733   0.736  16.108 -1.7075  0.1901  2.2369
 8358TIP3   OH246488   2.406   1.558  11.738 -0.5289  0.3512  0.3128
 8358TIP3    H146489   2.474   1.575  11.803 -1.1039 -0.1374  1.0580
 8358TIP3    H246490   2.422   1.469  11.708 -2.1146 -0.6501  2.1444
 8359TIP3   OH246491   3.847   4.468  12.883  0.2553  0.3915  0.1586
 8359TIP3    H146492   3.887   4.497  12.965 -0.1599  1.6140 -0.0407
 8359TIP3    H246493   3.918   4.470  12.819  0.5289 -0.3480  0.4334
 8360TIP3   OH246494   5.587   2.386  14.365  0.5279 -0.4642  0.0978
 8360TIP3    H146495   5.598   2.337  14.283  0.2944 -0.5577  0.1205
 8360TIP3    H246496   5.498   2.365  14.393  0.4050  0.0099  0.0844
 8361TIP3   OH246497   3.726   0.553  12.287  0.2438 -0.2713  0.3885
 8361TIP3    H146498   3.658   0.614  12.313  1.0547  0.9009 -0.1457
 8361TIP3    H246499   3.768   0.526  12.369 -0.0511 -0.0344  0.6172
 8362TIP3   OH246500   1.029   5.931   2.596 -0.2097 -0.3894  0.0446
 8362TIP3    H146501   1.011   5.982   2.517  1.0572 -1.4170 -0.9724
 8362TIP3    H246502   1.116   5.894   2.581  0.9346  0.9171  2.7746
 8363TIP3   OH246503   2.137   0.151   1.218  0.0490 -0.7255 -0.3759
 8363TIP3    H146504   2.143   0.224   1.281 -1.0920  0.2574 -1.3564
 8363TIP3    H246505   2.228   0.132   1.196  0.4190 -0.3366  0.7328
 8364TIP3   OH246506   3.401   1.944  11.386 -0.5762  1.3245  0.4618
 8364TIP3    H146507   3.355   1.982  11.311 -0.4640  0.4119 -0.0735
 8364TIP3    H246508   3.410   2.017  11.448  0.1110  2.3133 -0.7687
 8365TIP3   OH246509   1.930   3.320  14.502  0.7163  0.5740  0.1171
 8365TIP3    H146510   1.836   3.305  14.515  1.2125 -1.2505  2.1786
 8365TIP3    H246511   1.934   3.401  14.451 -1.9694  0.4346 -0.4857
 8366TIP3   OH246512   5.182   0.009   3.431 -0.3259 -0.2175 -0.2986
 8366TIP3    H146513   5.215  -0.041   3.357  0.1046 -0.6592  0.1776
 8366TIP3    H246514   5.128  -0.053   3.480 -0.7749  0.1255 -0.3462
 8367TIP3   OH246515   2.943   2.175  15.021 -0.3296 -0.3992  0.1725
 8367TIP3    H146516   2.930   2.100  15.079  1.0307 -1.5413 -0.9131
 8367TIP3    H246517   2.925   2.140  14.933 -0.9874  0.9214 -0.2448
 8368TIP3   OH246518   0.286   2.005   3.472 -0.4470 -0.1928 -1.0335
 8368TIP3    H146519   0.292   2.003   3.376  0.7384 -1.0290 -0.9588
 8368TIP3    H246520   0.206   1.955   3.492 -1.1056  0.6015 -1.5966
 8369TIP3   OH246521   5.621   2.995   0.117 -0.6346 -0.2286  0.5751
 8369TIP3    H146522   5.634   2.909   0.157 -1.6228 -0.6703 -0.0161
 8369TIP3    H246523   5.613   2.977   0.023 -0.0599  0.6085  0.3522
 8370TIP3   OH246524   1.966   4.959  15.472  0.3073 -0.2825 -0.4074
 8370TIP3    H146525   1.894   4.910  15.512  0.0396 -0.5931 -1.2518
 8370TIP3    H246526   1.930   4.993  15.391 -0.4072  3.7286  1.3792
 8371TIP3   OH246527   3.316   4.980   1.632 -0.7003  0.8710 -0.5928
 8371TIP3    H146528   3.381   4.942   1.574  0.2695  1.2934  0.1804
 8371TIP3    H246529   3.284   4.907   1.684  1.3186  1.0528  1.0479
 8372TIP3   OH246530   3.330   4.388  13.951  0.2202  0.4764  0.7716
 8372TIP3    H146531   3.389   4.417  13.881  2.0259 -0.2817  1.9094
 8372TIP3    H246532   3.280   4.316  13.911 -0.3366  1.4531 -0.3638
 8373TIP3   OH246533   3.774   3.948   2.018  0.1160 -0.7162 -0.5684
 8373TIP3    H146534   3.801   4.028   1.974 -0.0220  0.2301  0.9843
 8373TIP3    H246535   3.855   3.907   2.047  0.1711  1.3232  2.7152
 8374TIP3   OH246536   1.889   0.287  15.678 -0.1514  0.1248 -0.1704
 8374TIP3    H146537   1.804   0.303  15.719 -1.5390 -2.1276 -1.9178
 8374TIP3    H246538   1.922   0.208  15.720  0.1558 -0.1132 -0.8413
 8375TIP3   OH246539   3.378   5.516   3.090 -0.1343  0.2647 -0.1119
 8375TIP3    H146540   3.457   5.479   3.129 -0.4628 -0.0817  0.2403
 8375TIP3    H246541   3.406   5.599   3.052  0.6482 -0.4151 -1.0701
 8376TIP3   OH246542   1.825   0.321   2.252  0.8786 -0.2518  0.1490
 8376TIP3    H146543   1.779   0.278   2.180  2.3671 -1.1503 -0.3074
 8376TIP3    H246544   1.799   0.271   2.330  0.7465 -0.4724 -0.0336
 8377TIP3   OH246545   5.853   6.406   0.648 -0.7018 -0.2074  0.1791
 8377TIP3    H146546   5.878   6.499   0.652  0.1364 -0.3556 -1.0137
 8377TIP3    H246547   5.915   6.367   0.586 -1.4430 -1.4411  0.1720
 8378TIP3   OH246548   3.911   3.314   1.893 -0.3922 -0.0254  0.2818
 8378TIP3    H146549   3.995   3.315   1.846 -1.2649 -0.1310 -1.3730
 8378TIP3    H246550   3.856   3.253   1.843 -1.3766 -0.2004  1.5083
 8379TIP3   OH246551   5.966   3.201  12.085  0.6460 -0.1165  0.5174
 8379TIP3    H146552   6.058   3.179  12.071  1.7300  3.6632  0.5054
 8379TIP3    H246553   5.946   3.169  12.173  1.9225 -1.1397  0.4508
 8380TIP3   OH246554   3.874   0.089   3.947  0.1469 -0.2536 -0.2105
 8380TIP3    H146555   3.942   0.139   3.991 -0.2347 -0.9640  1.2493
 8380TIP3    H246556   3.850   0.142   3.871  1.1330  0.8009  0.1916
 8381TIP3   OH246557   3.474   0.326  14.454 -0.2469 -0.3225  0.1757
 8381TIP3    H146558   3.528   0.299  14.379  0.3171 -1.9817  1.1055
 8381TIP3    H246559   3.402   0.262  14.456  0.2481 -0.8896  1.5347
 8382TIP3   OH246560   2.899   3.122  16.768  0.1186  0.3177  0.7534
 8382TIP3    H146561   2.846   3.202  16.765  0.6558  0.7349 -3.0455
 8382TIP3    H246562   2.839   3.052  16.744  0.4307  0.1593  0.4237
 8383TIP3   OH246563   1.652   4.703   0.180 -0.2687  0.4119 -0.8145
 8383TIP3    H146564   1.638   4.654   0.099 -0.0996  0.1426 -0.6826
 8383TIP3    H246565   1.604   4.785   0.167 -3.1219 -0.9517  0.1080
 8384TIP3   OH246566   2.326   4.150  14.014  0.3485  0.2327 -0.2120
 8384TIP3    H146567   2.237   4.151  13.979  0.9004  1.4187 -1.7069
 8384TIP3    H246568   2.318   4.109  14.100 -1.8475  1.4370  0.2429
 8385TIP3   OH246569   3.925   6.179   0.425 -0.3689  0.0596  0.2247
 8385TIP3    H146570   3.852   6.216   0.474 -0.5467 -0.7698  0.6056
 8385TIP3    H246571   3.942   6.243   0.356 -1.1806  0.4643  0.3825
 8386TIP3   OH246572   2.912   1.084  14.577  0.4343  0.2244  0.3240
 8386TIP3    H146573   2.870   1.008  14.536  0.9953  0.3448 -0.4996
 8386TIP3    H246574   2.962   1.047  14.649  0.2967 -0.1278  0.2412
 8387TIP3   OH246575   2.658   3.855   0.012 -0.0373 -0.7979  0.1490
 8387TIP3    H146576   2.728   3.879  -0.049 -2.1536 -2.1458 -3.0599
 8387TIP3    H246577   2.630   3.769  -0.016 -3.4590 -0.0210  0.7858
 8388TIP3   OH246578   0.476   6.692   3.073 -0.0467 -0.0782  0.2517
 8388TIP3    H146579   0.525   6.710   3.153 -0.7681 -0.0994  0.7029
 8388TIP3    H246580   0.475   6.596   3.067  0.4070 -0.0708 -0.0437
 8389TIP3   OH246581   0.878   2.694  11.292 -0.2857 -0.7514  0.2317
 8389TIP3    H146582   0.843   2.767  11.344  0.3966  0.4842 -0.9923
 8389TIP3    H246583   0.803   2.663  11.241  0.1525  1.4542 -1.8932
 8390TIP3   OH246584   2.674   3.226   0.515 -0.1826  0.0405 -0.2491
 8390TIP3    H146585   2.612   3.170   0.561 -0.6557  0.3707 -0.4780
 8390TIP3    H246586   2.631   3.311   0.510  0.1698  0.1993 -0.6625
 8391TIP3   OH246587   2.206   1.362  13.226 -0.2355  0.0692 -0.0068
 8391TIP3    H146588   2.205   1.439  13.169 -0.4228 -0.4375 -0.6994
 8391TIP3    H246589   2.114   1.334  13.230 -0.2544  0.2206  0.7119
 8392TIP3   OH246590   0.498   1.752  15.887  0.3693 -0.0433  0.4411
 8392TIP3    H146591   0.555   1.720  15.816  0.3256  1.2624 -0.2180
 8392TIP3    H246592   0.448   1.675  15.914  0.1808 -0.5296 -1.1648
 8393TIP3   OH246593   0.704   0.937   3.587 -0.0792 -0.1526  0.0581
 8393TIP3    H146594   0.780   0.910   3.639 -0.0586 -1.5088 -0.6372
 8393TIP3    H246595   0.630   0.891   3.627 -0.2375 -0.3179 -0.4165
 8394TIP3   OH246596   2.021   1.323  12.910 -0.3532  0.3282 -0.3260
 8394TIP3    H146597   2.005   1.310  12.817  1.2092  1.2100 -0.7506
 8394TIP3    H246598   2.086   1.256  12.933 -1.1476 -0.2676  0.3052
 8395TIP3   OH246599   4.590   6.417  15.757 -0.4258  0.1741  0.0718
 8395TIP3    H146600   4.541   6.440  15.678 -0.3285  0.3662  0.0668
 8395TIP3    H246601   4.593   6.322  15.756 -0.5566  0.1700 -0.0750
 8396TIP3   OH246602   5.804   4.317   2.444  0.6859  0.2247 -0.2116
 8396TIP3    H146603   5.868   4.249   2.422  0.1049 -0.4504  0.1512
 8396TIP3    H246604   5.843   4.365   2.517  0.4810 -0.6411  0.4880
 8397TIP3   OH246605   1.843   4.078  16.879  0.4554  0.0094 -0.2169
 8397TIP3    H146606   1.798   4.128  16.946  0.7800  0.1381 -0.0904
 8397TIP3    H246607   1.898   4.016  16.928  0.4808 -0.0860 -0.3645
 8398TIP3   OH246608   3.943   5.078   0.561  0.1432 -0.6208 -0.7766
 8398TIP3    H146609   3.974   5.023   0.633 -0.4407 -0.7911 -0.6585
 8398TIP3    H246610   4.004   5.152   0.562 -1.3984  0.7560  1.6151
 8399TIP3   OH246611   3.784   1.073  11.087 -0.0562  0.5321 -0.3529
 8399TIP3    H146612   3.765   1.145  11.028  0.7147  1.7626  0.8551
 8399TIP3    H246613   3.698   1.036  11.108 -0.4060  0.7090 -1.4340
 8400TIP3   OH246614   1.349   5.889   2.215  0.7523  0.1107  0.3513
 8400TIP3    H146615   1.288   5.841   2.271  0.9177 -0.9921 -0.3765
 8400TIP3    H246616   1.390   5.953   2.273  0.0792 -0.2215  1.2153
 8401TIP3   OH246617   3.274   1.782   2.340  0.1943 -0.0382 -0.2930
 8401TIP3    H146618   3.351   1.804   2.392  0.0607 -1.9701  0.7756
 8401TIP3    H246619   3.200   1.819   2.389  0.1425 -1.1976  0.5451
 8402TIP3   OH246620   2.845   2.424  16.139  0.0076 -0.1067 -0.2969
 8402TIP3    H146621   2.765   2.452  16.185 -0.2772  0.4295 -1.1050
 8402TIP3    H246622   2.877   2.504  16.097 -0.3024 -0.7853 -1.8757
 8403TIP3   OH246623   6.641   4.563   0.941  0.0528 -0.1157 -0.1189
 8403TIP3    H146624   6.657   4.641   0.888  1.1839 -0.6653 -0.6266
 8403TIP3    H246625   6.724   4.546   0.985 -0.4482 -0.5218  0.6989
 8404TIP3   OH246626   4.331   5.042   0.401  0.1470  0.4852  0.3439
 8404TIP3    H146627   4.280   5.097   0.340 -2.6901 -0.6337  1.5484
 8404TIP3    H246628   4.326   4.954   0.364  2.0263  0.4572  0.0557
 8405TIP3   OH246629   2.371   5.769   1.931  0.1692  0.2728 -0.5239
 8405TIP3    H146630   2.378   5.720   1.850 -0.7729 -0.0577 -0.4151
 8405TIP3    H246631   2.427   5.846   1.918  2.6877 -1.3907 -0.2372
 8406TIP3   OH246632   0.933   6.492   2.546 -0.0853 -0.0086 -0.3514
 8406TIP3    H146633   0.942   6.475   2.452  2.9059  0.5976 -0.2685
 8406TIP3    H246634   1.008   6.447   2.586 -2.1715 -1.6664  2.0282
 8407TIP3   OH246635   0.019   3.219  14.604 -0.2722 -0.2239  0.4925
 8407TIP3    H146636   0.025   3.177  14.518 -0.3574 -3.2014  1.8014
 8407TIP3    H246637   0.110   3.229  14.632 -0.2771 -0.5512  0.6254
 8408TIP3   OH246638   5.083   4.751  17.173  0.0910  0.3324 -0.4874
 8408TIP3    H146639   5.018   4.740  17.104 -0.8169  1.9511  0.0453
 8408TIP3    H246640   5.128   4.833  17.149  1.6098 -0.5016 -0.5756
 8409TIP3   OH246641   2.217   1.826  12.105  0.6441  0.3128  0.3899
 8409TIP3    H146642   2.258   1.740  12.098 -1.1237 -0.5961  0.6293
 8409TIP3    H246643   2.218   1.846  12.199 -1.4059 -0.7625  0.6924
 8410TIP3   OH246644   6.047   4.569   1.510  0.0689 -0.1387 -0.3368
 8410TIP3    H146645   6.089   4.552   1.594  0.6679 -1.2320 -0.8302
 8410TIP3    H246646   6.045   4.483   1.467 -0.4677  0.3576 -1.3276
 8411TIP3   OH246647   5.076   6.058   4.885  1.1504  0.0188  0.2760
 8411TIP3    H146648   4.996   6.088   4.843 -0.4336 -2.0657  1.5656
 8411TIP3    H246649   5.144   6.068   4.819 -0.6437 -0.3972 -1.7472
 8412TIP3   OH246650   2.532   4.126  14.283 -0.2154 -0.2831  0.0277
 8412TIP3    H146651   2.555   4.183  14.209  0.1882 -0.9590 -0.3712
 8412TIP3    H246652   2.437   4.118  14.277 -0.1255 -0.8859 -0.8384
 8413TIP3   OH246653   2.642   2.316   0.562  0.3094  0.6787 -0.1684
 8413TIP3    H146654   2.576   2.334   0.628  1.2301 -1.5457  1.4845
 8413TIP3    H246655   2.720   2.294   0.612  2.1210  2.3838 -2.0638
 8414TIP3   OH246656   0.467   1.457  16.677  0.2406  0.2748  0.3254
 8414TIP3    H146657   0.435   1.517  16.609  3.1682  0.3243 -1.1434
 8414TIP3    H246658   0.387   1.417  16.712 -1.4892 -0.6763 -3.9861
 8415TIP3   OH246659   2.469   0.943  10.833  0.2970 -0.1347  0.0642
 8415TIP3    H146660   2.439   1.029  10.803  1.3884  0.5368  0.8284
 8415TIP3    H246661   2.479   0.952  10.928  2.5218 -0.4124 -0.0986
 8416TIP3   OH246662   1.707   1.269   4.085  0.2002  0.0708  0.1744
 8416TIP3    H146663   1.622   1.232   4.110  0.2401 -1.1321 -1.2998
 8416TIP3    H246664   1.715   1.348   4.138 -1.7160  0.0821  0.5349
 8417TIP3   OH246665   2.790   5.665  13.405 -0.1733  0.0902  0.3123
 8417TIP3    H146666   2.856   5.598  13.422  0.3975  1.3272  3.7917
 8417TIP3    H246667   2.830   5.721  13.338  0.9194 -0.9673  0.0456
 8418TIP3   OH246668   1.702   6.705  13.452  0.1328 -0.1708  0.0838
 8418TIP3    H146669   1.700   6.757  13.371 -0.8653  2.1309  1.4884
 8418TIP3    H246670   1.795   6.698  13.473  0.3426  0.0721 -0.7130
 8419TIP3   OH246671   1.659   3.843  15.145  0.4615 -0.2203 -0.3877
 8419TIP3    H146672   1.676   3.937  15.138  0.5445 -0.2224 -0.2244
 8419TIP3    H246673   1.680   3.809  15.058 -0.8535  0.1057 -0.8514
 8420TIP3   OH246674   2.652   2.773  11.517  0.0310 -0.3194 -0.1113
 8420TIP3    H146675   2.660   2.698  11.576  2.5590 -0.7433 -0.8982
 8420TIP3    H246676   2.660   2.850  11.573  0.1194 -0.6738  0.3674
 8421TIP3   OH246677   0.798   0.559  11.847  0.1350  0.5946  0.1478
 8421TIP3    H146678   0.838   0.574  11.932  0.7247  2.5672 -0.4081
 8421TIP3    H246679   0.732   0.492  11.862 -0.2302  1.3710  2.3019
 8422TIP3   OH246680   5.261   4.430  15.125  0.2864  0.1328 -0.3844
 8422TIP3    H146681   5.204   4.488  15.175  0.8501  0.3251  0.0400
 8422TIP3    H246682   5.216   4.421  15.041 -1.0436 -0.7860  0.3860
 8423TIP3   OH246683   1.576   3.421   3.859 -0.4481  0.1642  0.1280
 8423TIP3    H146684   1.504   3.483   3.848 -0.2012  0.3473 -0.5204
 8423TIP3    H246685   1.649   3.474   3.892 -0.7620 -0.1244  1.3465
 8424TIP3   OH246686   5.151   4.756   6.078 -0.5039 -0.4968 -0.1611
 8424TIP3    H146687   5.166   4.772   5.985 -1.1048  0.9540 -0.0356
 8424TIP3    H246688   5.236   4.771   6.119 -0.6763  0.9083 -0.2587
 8425TIP3   OH246689   4.191   6.363  15.853 -0.1510 -0.7536 -0.1567
 8425TIP3    H146690   4.266   6.306  15.867  0.5567  0.5445  1.6198
 8425TIP3    H246691   4.216   6.418  15.779  0.0411 -1.2750 -0.4852
 8426TIP3   OH246692   2.266   5.951   3.471 -0.0613  0.0130  0.0799
 8426TIP3    H146693   2.224   6.035   3.456  1.9586  1.3546  1.5069
 8426TIP3    H246694   2.338   5.948   3.408  1.0739  0.2744  1.3306
 8427TIP3   OH246695   2.721   6.306  15.692 -0.6109  0.2765  0.0544
 8427TIP3    H146696   2.723   6.333  15.784  0.1533 -1.7413  0.6839
 8427TIP3    H246697   2.807   6.332  15.657 -1.5239  2.6278 -0.6512
 8428TIP3   OH246698   1.408   6.133   1.053  0.2974 -0.3195 -0.8202
 8428TIP3    H146699   1.435   6.202   0.993 -0.5504  0.2727 -0.5445
 8428TIP3    H246700   1.470   6.139   1.126  1.0637 -0.7629 -1.4180
 8429TIP3   OH246701   3.994   3.647  15.362  0.0080  0.5732 -0.7146
 8429TIP3    H146702   3.981   3.733  15.322 -1.2789  0.4388 -0.6346
 8429TIP3    H246703   3.933   3.589  15.315 -0.8728  0.2184  0.8047
 8430TIP3   OH246704   1.913   3.064   2.884 -0.3453  0.3922  0.5652
 8430TIP3    H146705   1.850   3.086   2.815  0.8827 -2.1056 -1.5507
 8430TIP3    H246706   1.861   3.020   2.951 -1.1027 -0.3499 -0.4799
 8431TIP3   OH246707   4.220   3.935  13.894  0.2786 -0.3052 -0.0687
 8431TIP3    H146708   4.297   3.948  13.838 -0.8385 -0.3120 -1.6956
 8431TIP3    H246709   4.201   4.021  13.930  1.3777 -0.4203  0.8193
 8432TIP3   OH246710   0.090   1.156  12.088  0.7072 -0.4170  0.3822
 8432TIP3    H146711  -0.005   1.155  12.085  0.5956  1.2557  1.7133
 8432TIP3    H246712   0.113   1.078  12.138  0.0491 -0.8659 -0.0034
 8433TIP3   OH246713   4.005   6.607   0.685  0.8718 -0.4504  0.2034
 8433TIP3    H146714   3.997   6.601   0.590  0.9736  0.6740  0.1114
 8433TIP3    H246715   3.917   6.627   0.716  1.1134  0.6801  0.1995
 8434TIP3   OH246716   0.344   0.901   0.659  0.2138 -0.5828  1.3910
 8434TIP3    H146717   0.366   0.964   0.591 -1.2690 -1.2327  0.2401
 8434TIP3    H246718   0.306   0.953   0.730 -0.5148 -0.1303  0.6778
 8435TIP3   OH246719   1.313   0.622  11.311  0.3772 -0.0514  0.1487
 8435TIP3    H146720   1.400   0.651  11.339  0.8483  1.0291 -2.1952
 8435TIP3    H246721   1.265   0.703  11.291 -1.0289 -0.6494  0.9176
 8436TIP3   OH246722   3.067   6.084   3.460  0.3160 -0.0767  0.8223
 8436TIP3    H146723   3.129   6.084   3.387  0.0044 -0.0272  0.5576
 8436TIP3    H246724   3.080   5.999   3.502  0.5938 -0.0505  0.7952
 8437TIP3   OH246725   6.648   5.299  15.387  0.0027  0.3945  0.2111
 8437TIP3    H146726   6.658   5.394  15.394  0.1450  0.4231 -0.3427
 8437TIP3    H246727   6.555   5.286  15.371  0.3355  0.6192 -2.2873
 8438TIP3   OH246728   4.474   2.857   5.133 -0.9434  0.3282  0.1087
 8438TIP3    H146729   4.562   2.861   5.171 -0.0800  0.4665 -1.7935
 8438TIP3    H246730   4.416   2.841   5.208  0.8615 -1.5428  1.2082
 8439TIP3   OH246731   4.193   1.343  15.484  0.4428 -0.1926 -0.0114
 8439TIP3    H146732   4.130   1.363  15.553  0.4799  0.1438 -0.0732
 8439TIP3    H246733   4.269   1.398  15.505 -0.0822  1.0123 -1.1150
 8440TIP3   OH246734   4.974   2.523   2.891  0.2585 -0.1104 -0.0587
 8440TIP3    H146735   4.948   2.487   2.807 -0.5774 -1.6417  0.8029
 8440TIP3    H246736   4.937   2.462   2.956  0.0383  1.5246  1.4517
 8441TIP3   OH246737   2.190   2.102   3.146  0.2359 -0.2917 -0.6424
 8441TIP3    H146738   2.119   2.162   3.123  3.0409  1.9560 -4.5450
 8441TIP3    H246739   2.233   2.143   3.221  0.8882  1.6477 -2.0014
 8442TIP3   OH246740   0.401   5.085  17.196  0.6726 -0.3847  0.3891
 8442TIP3    H146741   0.411   5.067  17.289  0.8823 -0.8551  0.2818
 8442TIP3    H246742   0.382   5.178  17.191  1.2831 -0.2326  0.8616
 8443TIP3   OH246743   5.940   0.770   1.526 -0.1715 -0.0564  0.1918
 8443TIP3    H146744   6.005   0.737   1.464  0.9008  0.1349  1.1826
 8443TIP3    H246745   5.860   0.722   1.504  0.8922 -2.0671  0.4479
 8444TIP3   OH246746   0.002   0.437   0.819  0.4364 -0.3823  0.5286
 8444TIP3    H146747   0.032   0.467   0.904  0.8998  1.4002 -0.2146
 8444TIP3    H246748  -0.091   0.461   0.817  0.5500  0.0560  0.3479
 8445TIP3   OH246749   5.867   1.873   2.781 -0.1864  0.1024 -0.4207
 8445TIP3    H146750   5.785   1.909   2.814 -0.5772 -1.6507  0.6702
 8445TIP3    H246751   5.858   1.877   2.685 -0.9198  1.2186 -0.3205
 8446TIP3   OH246752   5.365   4.980   5.046 -0.4323 -0.0666  0.3775
 8446TIP3    H146753   5.400   5.040   5.112  0.0512  0.6785 -0.5402
 8446TIP3    H246754   5.409   4.897   5.063  1.0664  0.5987 -0.1416
 8447TIP3   OH246755   4.777   3.008   4.266 -0.1127  0.0508  0.1554
 8447TIP3    H146756   4.862   3.052   4.258 -0.0608 -0.2860 -1.7344
 8447TIP3    H246757   4.799   2.918   4.288  0.1258 -0.2511 -1.1815
 8448TIP3   OH246758   3.661   0.307  15.065 -0.1786  0.4863 -0.7540
 8448TIP3    H146759   3.693   0.330  14.977 -0.1574  1.0284 -0.6113
 8448TIP3    H246760   3.591   0.370  15.081  0.5502  1.1246  0.0603
 8449TIP3   OH246761   4.363   4.017   1.369  0.1394 -0.7904 -0.0130
 8449TIP3    H146762   4.288   4.074   1.356  0.0575 -1.1558 -1.2125
 8449TIP3    H246763   4.324   3.930   1.383  0.3320 -1.0295 -0.9115
 8450TIP3   OH246764   2.062   5.601   3.863  0.1358 -0.8063 -0.6063
 8450TIP3    H146765   1.995   5.559   3.916  0.7990 -2.9049 -1.3379
 8450TIP3    H246766   2.132   5.536   3.855  2.4853  1.4039  0.4243
 8451TIP3   OH246767   5.840   0.961   0.899  0.4782 -0.2594 -0.6094
 8451TIP3    H146768   5.899   1.033   0.923  1.3648 -1.5031  1.2744
 8451TIP3    H246769   5.754   0.990   0.928  1.2692 -1.0564  3.1520
 8452TIP3   OH246770   1.541   5.719   3.566 -0.2217  0.1616  0.2261
 8452TIP3    H146771   1.484   5.794   3.549 -0.7187  0.0721  1.4249
 8452TIP3    H246772   1.483   5.652   3.602  0.5237 -0.1248  0.9324
 8453TIP3   OH246773   0.086   2.057   0.947  0.3238  0.0187 -0.0992
 8453TIP3    H146774   0.080   2.001   1.024 -1.6038  1.0763  0.5689
 8453TIP3    H246775   0.144   2.128   0.974 -0.9242  0.7799  0.6830
 8454TIP3   OH246776   4.554   0.133   0.584  0.3709 -0.4850  0.0012
 8454TIP3    H146777   4.646   0.131   0.558  0.2319 -2.1348 -0.4655
 8454TIP3    H246778   4.551   0.197   0.656  1.9244 -0.5974  0.2076
 8455TIP3   OH246779   5.923   3.010   1.825 -0.0909 -0.0465 -0.5161
 8455TIP3    H146780   5.944   3.088   1.875  0.1253  0.2549 -1.0723
 8455TIP3    H246781   5.827   3.011   1.818 -0.0878  0.1615 -0.5161
 8456TIP3   OH246782   4.266   2.165   4.335 -0.0066 -0.0208 -0.6542
 8456TIP3    H146783   4.333   2.132   4.276  1.8163  1.7442  0.3116
 8456TIP3    H246784   4.183   2.145   4.291  1.1624 -1.2483 -2.4341
 8457TIP3   OH246785   3.030   6.130  16.138 -0.4050 -0.0732  1.0482
 8457TIP3    H146786   3.063   6.041  16.149 -1.2781 -0.7472 -1.2140
 8457TIP3    H246787   3.044   6.149  16.045 -0.8654  1.9120  1.3386
 8458TIP3   OH246788   3.678   5.179   1.475 -0.9114 -0.1007  0.6010
 8458TIP3    H146789   3.710   5.105   1.527 -0.4412 -0.3348 -0.0136
 8458TIP3    H246790   3.733   5.179   1.397 -1.1116  0.7138  0.4517
 8459TIP3   OH246791   2.448   3.605   5.904  0.6074 -0.0169  0.2205
 8459TIP3    H146792   2.433   3.697   5.927 -1.0194  0.1014 -1.0668
 8459TIP3    H246793   2.411   3.556   5.978 -2.0674  0.3728 -0.7566
 8460TIP3   OH246794   0.503   0.599  12.239 -0.4936  0.0890 -0.2721
 8460TIP3    H146795   0.498   0.523  12.298  0.2594  0.5951  0.4665
 8460TIP3    H246796   0.491   0.675  12.296 -1.0187  0.5410 -0.9687
 8461TIP3   OH246797   0.932   4.399   5.264 -0.4481  0.3557  0.5452
 8461TIP3    H146798   0.943   4.315   5.309  0.4638  0.4998  0.5945
 8461TIP3    H246799   0.974   4.463   5.320 -0.2355  0.6980  0.0040
 8462TIP3   OH246800   1.349   5.733   5.865  0.0189 -0.3953  0.3419
 8462TIP3    H146801   1.388   5.806   5.817  1.5118 -0.9653  0.6347
 8462TIP3    H246802   1.301   5.775   5.936 -0.8418  0.3754 -0.6591
 8463TIP3   OH246803   1.102   0.103   1.621  0.0219 -0.2474 -0.0879
 8463TIP3    H146804   1.180   0.050   1.635  0.3189 -0.1778 -1.3773
 8463TIP3    H246805   1.131   0.193   1.635 -0.2096 -0.3072  0.9284
 8464TIP3   OH246806   4.377   3.774  16.943  0.4738  0.1283  0.3813
 8464TIP3    H146807   4.382   3.693  16.892  0.7811 -0.4294  1.2748
 8464TIP3    H246808   4.327   3.751  17.021 -1.0874  1.2830 -0.2182
 8465TIP3   OH246809   1.729   1.096  11.713 -0.0787  0.0255  0.2182
 8465TIP3    H146810   1.746   1.123  11.623 -0.7647  1.0821  0.3755
 8465TIP3    H246811   1.810   1.055  11.742  0.8010  1.3073 -0.3147
 8466TIP3   OH246812   5.769   6.005  17.257  0.3055  0.4692  0.5009
 8466TIP3    H146813   5.714   5.946  17.308  0.4866  0.2258  0.4149
 8466TIP3    H246814   5.712   6.081  17.239 -0.4808 -0.3856 -0.8101
 8467TIP3   OH246815   1.443   2.637   4.749  0.3796  0.1597  0.0194
 8467TIP3    H146816   1.435   2.718   4.698 -0.0502  1.1668  1.6373
 8467TIP3    H246817   1.509   2.586   4.702 -0.0525  1.0083 -1.5763
 8468TIP3   OH246818   3.163   5.662  14.950 -0.1691 -0.6267  0.3377
 8468TIP3    H146819   3.113   5.743  14.939  0.2730 -0.5499 -1.3793
 8468TIP3    H246820   3.250   5.684  14.918  0.5119 -1.2365  1.7222
 8469TIP3   OH246821   0.680   6.706   0.833  0.1197 -0.2015  0.2151
 8469TIP3    H146822   0.712   6.704   0.923 -1.7673 -0.4410  0.9204
 8469TIP3    H246823   0.738   6.769   0.788  0.5109  0.6203  1.8069
 8470TIP3   OH246824   0.293   6.518  17.212 -0.2598  0.1864  0.4406
 8470TIP3    H146825   0.340   6.510  17.129  1.4814 -1.1198  1.4856
 8470TIP3    H246826   0.299   6.431  17.251 -1.1772  0.7376  1.8711
 8471TIP3   OH246827   2.999   0.297   5.053  0.3509 -0.3344  0.2334
 8471TIP3    H146828   2.968   0.386   5.071 -1.4938 -0.8951 -0.0111
 8471TIP3    H246829   3.026   0.263   5.138 -0.3208 -0.0466  0.5670
 8472TIP3   OH246830   0.460   5.062   4.826  0.2174 -0.0146 -0.0300
 8472TIP3    H146831   0.528   5.121   4.859  0.1431 -0.7955  1.6045
 8472TIP3    H246832   0.472   4.981   4.877 -0.4441 -0.9963 -1.3746
 8473TIP3   OH246833   2.484   2.321   4.062 -0.3190  0.0719  0.0009
 8473TIP3    H146834   2.569   2.296   4.027 -0.3494  0.4685 -0.3655
 8473TIP3    H246835   2.473   2.267   4.140  0.4958  0.3942  0.3487
 8474TIP3   OH246836   5.587   0.034  13.335  0.1546 -0.2644  0.1642
 8474TIP3    H146837   5.653  -0.017  13.381  0.5978  1.7594  1.9091
 8474TIP3    H246838   5.634   0.111  13.302 -1.4191  2.0262  2.7729
 8475TIP3   OH246839   1.548   2.496   2.507  0.4700  0.1631 -0.4401
 8475TIP3    H146840   1.595   2.502   2.590 -0.7844 -2.2953  0.5657
 8475TIP3    H246841   1.472   2.554   2.518  0.5161  0.1438  0.0026
 8476TIP3   OH246842   6.500   0.579   0.499  0.7404  0.0575  0.7607
 8476TIP3    H146843   6.527   0.641   0.431 -0.7263  1.4798  1.4243
 8476TIP3    H246844   6.430   0.623   0.546  2.0177 -0.6411  3.5663
 8477TIP3   OH246845   6.462   2.997   5.187 -0.2917 -0.1339  0.2377
 8477TIP3    H146846   6.536   3.048   5.154 -0.1842  0.4138  1.2811
 8477TIP3    H246847   6.488   2.973   5.276 -1.1333 -0.4066  0.4137
 8478TIP3   OH246848   2.664   0.259  15.298 -0.2883 -0.1409  0.6917
 8478TIP3    H146849   2.735   0.263  15.362 -0.8473 -1.4165  1.4254
 8478TIP3    H246850   2.589   0.224  15.347 -0.3289 -2.5771 -0.9569
 8479TIP3   OH246851   2.605   3.887  16.853 -0.2544 -0.3437  0.0531
 8479TIP3    H146852   2.657   3.824  16.802 -0.8323  0.5957 -1.7714
 8479TIP3    H246853   2.642   3.882  16.941  1.3029 -1.4742 -0.6118
 8480TIP3   OH246854   3.740   0.687  16.122  0.4734 -0.2059 -0.0100
 8480TIP3    H146855   3.760   0.646  16.038  0.5039 -0.4923  0.1390
 8480TIP3    H246856   3.801   0.760  16.128 -0.2008  0.4411 -0.7005
 8481TIP3   OH246857   2.215   6.117   3.141 -0.3413  0.0527 -0.2427
 8481TIP3    H146858   2.302   6.102   3.177  0.0768  0.9366 -0.8544
 8481TIP3    H246859   2.203   6.046   3.078  0.2880  0.4055 -0.7688
 8482TIP3   OH246860   0.119   0.430  13.558  0.6981 -0.4160  0.6013
 8482TIP3    H146861   0.061   0.408  13.631 -0.2037  0.4299  0.1588
 8482TIP3    H246862   0.184   0.488  13.597 -0.7044  1.3468  0.4643
 8483TIP3   OH246863   6.069   6.585   5.849 -0.1055 -0.5863  0.1816
 8483TIP3    H146864   6.066   6.505   5.902 -0.6375 -0.9870 -0.4342
 8483TIP3    H246865   5.998   6.574   5.786  0.0035  0.2486 -0.0972
 8484TIP3   OH246866   6.256   5.530   1.550 -0.1497  0.3179  0.7131
 8484TIP3    H146867   6.184   5.571   1.503 -0.7801 -1.4021  0.0944
 8484TIP3    H246868   6.333   5.581   1.524 -0.7316  0.4381 -0.9174
 8485TIP3   OH246869   5.185   6.595  16.412  0.8407  0.0094 -0.4147
 8485TIP3    H146870   5.089   6.601  16.410  0.8014 -0.5517 -0.5324
 8485TIP3    H246871   5.202   6.502  16.428  1.3509  0.3387  1.1905
 8486TIP3   OH246872   0.181   5.801   5.430 -0.6445 -1.2327 -0.5221
 8486TIP3    H146873   0.123   5.799   5.506 -0.3639 -0.2727 -0.2666
 8486TIP3    H246874   0.130   5.847   5.363 -0.5766 -1.3237 -0.6353
 8487TIP3   OH246875   2.890   1.472   3.862  0.6149 -0.1892 -0.2780
 8487TIP3    H146876   2.869   1.394   3.810  0.0567  0.2841 -0.7809
 8487TIP3    H246877   2.981   1.492   3.840  0.8470 -0.8443  0.0539
 8488TIP3   OH246878   3.750   3.057  11.968  0.5935  0.4560  0.1893
 8488TIP3    H146879   3.701   3.131  12.004 -0.2627  0.1480 -0.3174
 8488TIP3    H246880   3.782   3.088  11.883 -0.2732  0.0525 -0.2907
 8489TIP3   OH246881   5.086   2.153  16.960  0.3503 -0.4387 -0.3303
 8489TIP3    H146882   5.006   2.101  16.962 -0.0907  0.1672 -1.4629
 8489TIP3    H246883   5.119   2.144  16.870 -0.2096  1.9069 -0.8321
 8490TIP3   OH246884   5.898   1.014  13.973 -0.4939 -0.5211  0.2423
 8490TIP3    H146885   5.936   0.946  13.917  0.5870 -0.4117  0.8238
 8490TIP3    H246886   5.910   0.980  14.062 -2.9263 -1.0851  0.4375
 8491TIP3   OH246887   3.818   5.375  12.798 -0.7632 -0.3110 -0.5176
 8491TIP3    H146888   3.790   5.466  12.782  0.7404  0.6292  1.7547
 8491TIP3    H246889   3.895   5.363  12.743 -2.0456 -0.9325 -2.2838
 8492TIP3   OH246890   4.462   3.822  13.549 -0.1237  0.3026 -0.0325
 8492TIP3    H146891   4.415   3.768  13.612 -0.1871 -0.2637 -0.5564
 8492TIP3    H246892   4.431   3.792  13.464  0.7646  0.3127 -0.3717
 8493TIP3   OH246893   3.174   2.184  12.363  0.0003  0.1341 -0.0888
 8493TIP3    H146894   3.087   2.198  12.399  0.4653  2.7410  0.2151
 8493TIP3    H246895   3.199   2.268  12.325  1.6692 -1.0493 -1.8235
 8494TIP3   OH246896   6.345   1.203  15.952  0.2919 -0.1676  0.2061
 8494TIP3    H146897   6.364   1.239  16.038  0.8459  0.1728 -0.0536
 8494TIP3    H246898   6.340   1.279  15.894 -0.5457 -0.3549  0.0176
 8495TIP3   OH246899   4.074   1.209   0.582  0.8986 -0.2326  0.5552
 8495TIP3    H146900   4.017   1.201   0.506  0.8304  1.3781  0.4150
 8495TIP3    H246901   4.158   1.175   0.552  1.0717  1.0444 -0.4931
 8496TIP3   OH246902   5.470   5.169  16.636 -0.5398  0.4133 -0.5474
 8496TIP3    H146903   5.551   5.192  16.590 -0.6708 -1.7590 -2.0091
 8496TIP3    H246904   5.406   5.155  16.566 -0.5682 -3.7778  0.0764
 8497TIP3   OH246905   4.896   0.769  12.969 -0.2222 -0.3961  0.1240
 8497TIP3    H146906   4.846   0.753  13.049 -1.2314 -0.0682 -0.4127
 8497TIP3    H246907   4.869   0.699  12.909 -0.4558  0.0914 -0.3550
 8498TIP3   OH246908   1.665   0.275   2.025  0.2014 -0.1711  0.3374
 8498TIP3    H146909   1.683   0.266   1.932 -0.8987 -1.8097  0.2469
 8498TIP3    H246910   1.602   0.346   2.031  0.7715  0.3862 -0.0795
 8499TIP3   OH246911   1.137   6.051   1.541 -0.6875  0.3518  0.5759
 8499TIP3    H146912   1.095   5.968   1.565 -0.5644  0.1652  0.1486
 8499TIP3    H246913   1.150   6.096   1.624  0.7318 -0.7552  0.9894
 8500TIP3   OH246914   4.437   1.166   2.637  0.5279 -0.0008  0.2231
 8500TIP3    H146915   4.516   1.221   2.635  1.7155 -1.4911  1.9902
 8500TIP3    H246916   4.456   1.095   2.575  1.7736 -1.7018  2.3708
 8501TIP3   OH246917   2.667   5.200  11.362 -0.0893  0.1866  0.2157
 8501TIP3    H146918   2.587   5.188  11.311 -0.0681  1.0922 -0.0508
 8501TIP3    H246919   2.642   5.179  11.452  0.1669 -2.6267 -0.3005
 8502TIP3   OH246920   2.874   6.137  13.112 -0.1580  0.3440  0.5597
 8502TIP3    H146921   2.903   6.174  13.195 -2.0214  0.4145  1.2425
 8502TIP3    H246922   2.941   6.163  13.049  0.9227  0.9193  1.8933
 8503TIP3   OH246923   1.057   0.035  16.125 -0.0309 -0.7421 -0.0403
 8503TIP3    H146924   1.078   0.085  16.204  1.7910 -1.2024 -0.1807
 8503TIP3    H246925   1.032  -0.052  16.157 -1.8724 -0.1912  0.1301
 8504TIP3   OH246926   1.070   1.637   0.602 -0.5935 -0.2025 -0.5074
 8504TIP3    H146927   1.068   1.630   0.698 -1.6990 -0.7075 -0.5586
 8504TIP3    H246928   1.140   1.577   0.575  0.4914  0.7642  0.0286
 8505TIP3   OH246929   1.546   4.092   5.588  0.4016 -0.8648 -0.0380
 8505TIP3    H146930   1.482   4.126   5.525 -1.3556 -2.8550  0.5590
 8505TIP3    H246931   1.535   4.147   5.665  0.9007  0.0875 -0.6214
 8506TIP3   OH246932   1.327   3.490   4.880 -0.1751  0.1730 -0.2229
 8506TIP3    H146933   1.393   3.480   4.812  0.9195 -0.5658  0.9086
 8506TIP3    H246934   1.256   3.431   4.853  0.6552 -0.8377 -0.2446
 8507TIP3   OH246935   4.462   2.248   6.230 -0.3124 -0.7218 -0.3137
 8507TIP3    H146936   4.467   2.152   6.233 -0.1870 -0.7010  0.4185
 8507TIP3    H246937   4.552   2.277   6.247 -0.8042 -0.4647  2.2503
 8508TIP3   OH246938   0.391   4.937  13.187  0.2278  0.1362 -0.8003
 8508TIP3    H146939   0.305   4.946  13.227  0.6530  1.3068 -0.0982
 8508TIP3    H246940   0.414   4.845  13.198 -1.3290 -0.4176 -1.8724
 8509TIP3   OH246941   1.451   5.606   0.860 -0.3430  0.6214  0.1136
 8509TIP3    H146942   1.508   5.683   0.864 -0.8545  0.9837  0.4887
 8509TIP3    H246943   1.490   5.544   0.922 -0.7026  1.1041  0.8234
 8510TIP3   OH246944   1.877   3.877   3.267 -0.1955  0.1201 -0.0319
 8510TIP3    H146945   1.897   3.943   3.333 -3.2168  2.2843 -1.1059
 8510TIP3    H246946   1.946   3.888   3.201 -0.2463  1.7533  0.1489
 8511TIP3   OH246947   5.898   0.307  11.873  0.4544  0.3998  0.0872
 8511TIP3    H146948   5.873   0.355  11.952 -0.9543  1.3096 -0.8664
 8511TIP3    H246949   5.954   0.236  11.905  0.9967  1.5161  1.7461
 8512TIP3   OH246950   2.385   2.991   1.856 -0.1945 -0.3032  0.1366
 8512TIP3    H146951   2.306   2.936   1.859 -0.8975  0.6801 -0.0910
 8512TIP3    H246952   2.363   3.067   1.909 -0.0707  0.8339 -1.3828
 8513TIP3   OH246953   5.309   0.030  16.537 -0.1413  0.2134  0.4271
 8513TIP3    H146954   5.234   0.082  16.564 -0.6359 -0.7446  0.9813
 8513TIP3    H246955   5.270  -0.046  16.493  0.5174 -0.1038  0.3839
 8514TIP3   OH246956   0.132   5.576   4.292  0.2132  0.6858 -0.1835
 8514TIP3    H146957   0.083   5.501   4.259  0.2507  0.6025 -0.0507
 8514TIP3    H246958   0.068   5.647   4.294  0.5016  1.0048 -1.5659
 8515TIP3   OH246959   5.472   5.782   3.477 -0.8412 -0.1004 -0.2796
 8515TIP3    H146960   5.486   5.861   3.425 -0.0567 -0.1942 -0.2202
 8515TIP3    H246961   5.379   5.764   3.468 -1.0867  0.9879 -0.0720
 8516TIP3   OH246962   2.159   6.352   1.509 -0.2459  0.2442  0.5968
 8516TIP3    H146963   2.176   6.401   1.428 -2.7936  0.9225  0.3817
 8516TIP3    H246964   2.225   6.384   1.571 -0.4866  2.4228 -0.1872
 8517TIP3   OH246965   5.699   3.383   2.862 -0.4038 -0.6390  0.3689
 8517TIP3    H146966   5.750   3.377   2.782  0.7605  0.1512  1.0199
 8517TIP3    H246967   5.617   3.426   2.837 -0.2868 -0.8945 -0.4725
 8518TIP3   OH246968   5.157   5.697   1.501 -0.1707  0.2261  0.1071
 8518TIP3    H146969   5.175   5.619   1.554  0.8152  0.7194  0.5262
 8518TIP3    H246970   5.131   5.662   1.416  2.4365 -0.6243 -0.4592
 8519TIP3   OH246971   2.907   1.620  16.513  0.3580  0.5074 -0.4498
 8519TIP3    H146972   3.001   1.618  16.501  0.2110 -0.3064 -1.6503
 8519TIP3    H246973   2.876   1.685  16.450  0.0545  0.2274 -0.5942
 8520TIP3   OH246974   4.767   0.432  13.074  0.3566  0.4429  0.2873
 8520TIP3    H146975   4.842   0.414  13.131 -0.6164 -1.5175  1.0242
 8520TIP3    H246976   4.778   0.371  13.001 -1.1865 -0.8133  1.0648
 8521TIP3   OH246977   4.522   5.233   6.863 -0.1070 -0.2140  0.6235
 8521TIP3    H146978   4.442   5.182   6.874 -0.9814  1.0031  0.0914
 8521TIP3    H246979   4.504   5.290   6.788  1.0555  0.4704  0.8416
 8522TIP3   OH246980   0.818   0.710  16.820  0.0862 -0.6434 -0.1291
 8522TIP3    H146981   0.823   0.805  16.835 -2.0061 -0.8065  2.3325
 8522TIP3    H246982   0.821   0.672  16.908 -0.3524 -2.7905 -0.9824
 8523TIP3   OH246983   4.350   0.528   2.305 -0.7052 -0.0587 -0.1515
 8523TIP3    H146984   4.338   0.612   2.259  0.5361  0.1130 -0.1958
 8523TIP3    H246985   4.432   0.494   2.270 -0.0847 -0.2502  1.4530
 8524TIP3   OH246986   3.354   5.232  16.675  0.0162  0.0538 -0.1114
 8524TIP3    H146987   3.434   5.276  16.705  0.9448 -1.4325 -0.2687
 8524TIP3    H246988   3.284   5.269  16.729  0.6385  2.0619 -0.6145
 8525TIP3   OH246989   5.403   6.648   4.356  0.0413 -0.7224  0.0787
 8525TIP3    H146990   5.425   6.561   4.389  0.9816 -1.0691 -1.3521
 8525TIP3    H246991   5.452   6.708   4.412 -0.2179 -1.1377  0.7594
 8526TIP3   OH246992   0.973   3.415   3.205 -0.5034 -0.0081  0.4699
 8526TIP3    H146993   1.006   3.463   3.280 -0.4719  0.4221  0.1842
 8526TIP3    H246994   0.956   3.327   3.238  2.6504 -0.8253  0.2160
 8527TIP3   OH246995   6.090   5.786  16.001 -0.1933 -0.3213 -0.0146
 8527TIP3    H146996   6.086   5.847  15.928 -1.3660 -0.5683 -0.1733
 8527TIP3    H246997   6.120   5.838  16.075 -1.3492  0.4907 -0.1043
 8528TIP3   OH246998   2.653   5.655   4.958  0.1685 -0.7208 -0.9001
 8528TIP3    H146999   2.743   5.629   4.936  0.3883  0.4498 -1.4587
 8528TIP3    H247000   2.632   5.723   4.894 -0.2514  0.7192  0.7086
 8529TIP3   OH247001   4.899   3.251   6.383 -0.6724  0.1937  0.0333
 8529TIP3    H147002   4.882   3.341   6.410  0.1172  0.2749  0.2954
 8529TIP3    H247003   4.845   3.198   6.441 -3.2648  0.5711 -1.8945
 8530TIP3   OH247004   4.158   1.668   3.990  0.5985  0.8847 -0.2131
 8530TIP3    H147005   4.169   1.577   4.018 -0.4072  0.5641 -0.8128
 8530TIP3    H247006   4.126   1.661   3.900 -1.0291  1.7872  0.2545
 8531TIP3   OH247007   2.983   0.786  12.238 -0.8137  0.3935  0.3158
 8531TIP3    H147008   3.021   0.709  12.280  1.2516  1.2076  0.0719
 8531TIP3    H247009   2.920   0.820  12.301  1.1961  0.8005  2.2233
 8532TIP3   OH247010   0.465   4.019   4.894  0.0037 -0.6728 -0.5133
 8532TIP3    H147011   0.407   4.088   4.927  1.0637  0.7417 -1.4860
 8532TIP3    H247012   0.430   3.998   4.808 -1.2721 -2.5740  0.3944
 8533TIP3   OH247013   3.097   1.680  12.001  0.4287 -0.2269  0.1785
 8533TIP3    H147014   3.099   1.703  11.908  2.4761  0.6106  0.3579
 8533TIP3    H247015   3.164   1.612  12.010  1.3279  0.7452  1.2435
 8534TIP3   OH247016   0.513   1.946  14.822 -0.3256 -0.1901  0.6667
 8534TIP3    H147017   0.440   2.002  14.793  2.3681  1.9135 -2.9638
 8534TIP3    H247018   0.529   1.973  14.912 -2.3434  1.1718  0.7020
 8535TIP3   OH247019   1.904   5.388   1.908 -0.1077 -0.1245  0.0359
 8535TIP3    H147020   1.867   5.463   1.861  0.0223 -1.2162 -1.9306
 8535TIP3    H247021   1.828   5.344   1.946 -0.3845  0.0289 -0.3228
 8536TIP3   OH247022   0.757   6.234   1.893 -0.0029  0.4399  0.0777
 8536TIP3    H147023   0.696   6.307   1.902 -0.1404  0.4572 -0.8450
 8536TIP3    H247024   0.843   6.272   1.915 -0.0059  1.0205 -0.8191
 8537TIP3   OH247025   5.618   5.262   4.797 -0.4620 -0.1025  0.0706
 8537TIP3    H147026   5.605   5.173   4.763  0.5354 -0.8327  1.5128
 8537TIP3    H247027   5.713   5.272   4.803 -0.5656  1.0324  0.0271
 8538TIP3   OH247028   1.165   4.760   2.375 -0.8012  0.6617 -0.2215
 8538TIP3    H147029   1.223   4.799   2.310 -0.2894 -0.6696 -0.5819
 8538TIP3    H247030   1.214   4.763   2.457 -0.3286 -0.1906 -0.4665
 8539TIP3   OH247031   0.002   5.924  15.763 -0.6752 -0.0398  0.0140
 8539TIP3    H147032  -0.030   6.013  15.776  0.1362  0.2599 -0.0638
 8539TIP3    H247033   0.065   5.930  15.692  2.1202  0.0013  2.3224
 8540TIP3   OH247034   6.350   0.414   2.709  0.3029 -0.0492  0.6548
 8540TIP3    H147035   6.340   0.504   2.680 -1.0757 -0.0667  1.0373
 8540TIP3    H247036   6.286   0.403   2.779 -1.1548 -1.9443 -0.8320
 8541TIP3   OH247037   1.864   1.400  11.662 -0.2573  0.0750  0.2250
 8541TIP3    H147038   1.925   1.326  11.668 -0.1804  0.1665  0.5915
 8541TIP3    H247039   1.920   1.477  11.652 -0.3541  0.0348 -0.6581
 8542TIP3   OH247040   4.635   4.163  12.468 -0.3694  0.1684 -0.2388
 8542TIP3    H147041   4.692   4.230  12.431 -0.2407  0.1077 -0.1506
 8542TIP3    H247042   4.682   4.132  12.546 -0.4472  0.0078 -0.2556
 8543TIP3   OH247043   4.219   0.884  14.224  0.0862 -0.3581 -0.4744
 8543TIP3    H147044   4.240   0.972  14.257  0.9922 -0.2178 -1.3545
 8543TIP3    H247045   4.123   0.880  14.224  0.0237  0.7447 -0.6695
 8544TIP3   OH247046   1.044   3.418   3.536 -0.1741 -0.0291  0.2285
 8544TIP3    H147047   1.001   3.503   3.550 -0.6331 -0.3319  0.6787
 8544TIP3    H247048   0.979   3.366   3.487  0.8004  0.4773 -1.7251
 8545TIP3   OH247049   1.886   3.061   1.062 -0.1038  0.1916 -0.2276
 8545TIP3    H147050   1.959   3.121   1.049  1.2296 -0.9988  1.2071
 8545TIP3    H247051   1.900   2.992   0.997 -0.3313  0.3109 -0.4005
 8546TIP3   OH247052   2.481   1.262  11.996 -0.4689  0.1239  0.2180
 8546TIP3    H147053   2.573   1.236  11.995 -0.9693 -1.7600 -0.7772
 8546TIP3    H247054   2.450   1.237  12.083 -0.6317 -1.5710 -0.3019
 8547TIP3   OH247055   2.067   4.834   0.989  0.3184  0.0732  0.3051
 8547TIP3    H147056   2.023   4.838   1.075  1.0438 -0.5314  0.7133
 8547TIP3    H247057   2.159   4.823   1.010  0.4848 -0.2266 -0.5631
 8548TIP3   OH247058   0.703   1.782   3.146 -0.3450 -0.0340  0.1336
 8548TIP3    H147059   0.637   1.844   3.176  0.8895  1.4076 -0.0087
 8548TIP3    H247060   0.782   1.835   3.135  0.7912 -1.6691  0.1338
 8549TIP3   OH247061   2.344   6.580  11.679  0.0558  0.3838  0.1927
 8549TIP3    H147062   2.335   6.634  11.600  1.4466 -1.3098 -1.1868
 8549TIP3    H247063   2.336   6.490  11.648 -0.2741 -0.3117  2.1492
 8550TIP3   OH247064   3.922   4.238   6.519  0.7677  0.9237  0.6549
 8550TIP3    H147065   3.956   4.268   6.434 -0.9223 -0.9758 -0.7831
 8550TIP3    H247066   3.950   4.146   6.524 -0.7311  0.4821  1.2714
 8551TIP3   OH247067   1.218   4.730  17.145 -0.1507 -0.1921 -0.2795
 8551TIP3    H147068   1.203   4.812  17.192  1.0053 -0.5493  0.7654
 8551TIP3    H247069   1.143   4.676  17.166  0.5077 -0.4652  1.4726
 8552TIP3   OH247070   1.466   2.234   2.252  0.1798 -0.0258  0.6101
 8552TIP3    H147071   1.560   2.251   2.255  0.2052 -0.0202 -0.0436
 8552TIP3    H247072   1.447   2.221   2.159 -0.1428 -1.8534  0.8849
 8553TIP3   OH247073   3.849   2.723  11.080  0.3033  0.1315 -0.7102
 8553TIP3    H147074   3.911   2.709  11.009  0.2086 -2.5477 -0.3723
 8553TIP3    H247075   3.817   2.813  11.067 -0.3080 -0.4885 -4.5200
 8554TIP3   OH247076   2.777   5.312   4.559 -0.6294  0.6825 -0.1555
 8554TIP3    H147077   2.857   5.266   4.535 -0.8489 -0.2427  0.7948
 8554TIP3    H247078   2.720   5.244   4.594 -1.6596  1.4008 -0.3940
 8555TIP3   OH247079   0.214   2.586   3.185  0.2399 -0.6361  0.8953
 8555TIP3    H147080   0.233   2.525   3.256 -0.4299 -1.7169  0.1671
 8555TIP3    H247081   0.287   2.576   3.124 -0.6150 -1.8770  0.0283
 8556TIP3   OH247082   6.032   2.533   4.402  0.0916  0.1340  0.3173
 8556TIP3    H147083   6.039   2.442   4.374 -1.2500  0.1494 -0.1275
 8556TIP3    H247084   5.939   2.546   4.420  0.4612  1.0248  1.7610
 8557TIP3   OH247085   6.262   0.371   5.886 -0.1904 -0.1473  0.3514
 8557TIP3    H147086   6.243   0.281   5.859  0.5513  0.1790 -1.3642
 8557TIP3    H247087   6.179   0.403   5.921 -1.2376 -0.6347 -1.5521
 8558TIP3   OH247088   6.315   0.557   5.468  0.6233  0.1124 -0.3598
 8558TIP3    H147089   6.250   0.552   5.398 -0.7405 -0.7384  0.8979
 8558TIP3    H247090   6.280   0.623   5.528 -0.0773 -1.6173  1.2337
 8559TIP3   OH247091   4.667   3.592  17.086  0.0195  0.1644 -0.1759
 8559TIP3    H147092   4.631   3.507  17.112 -0.6528  0.9364  1.5616
 8559TIP3    H247093   4.619   3.614  17.006 -1.4415 -0.0951  0.5903
 8560TIP3   OH247094   4.320   0.897   0.734  0.8200  0.8677  0.2378
 8560TIP3    H147095   4.293   0.965   0.796 -1.1389  0.4319 -0.0847
 8560TIP3    H247096   4.303   0.935   0.648  1.1188  0.5098  0.0152
 8561TIP3   OH247097   2.408   1.883   2.704  0.3692 -0.0353  0.5705
 8561TIP3    H147098   2.318   1.870   2.673  1.2854 -1.5465 -1.7692
 8561TIP3    H247099   2.416   1.977   2.715 -0.9150  0.3633 -1.3153
 8562TIP3   OH247100   3.251   2.023  14.533  0.4486  0.2650  0.0956
 8562TIP3    H147101   3.302   2.104  14.534 -0.4598  0.9257  3.2523
 8562TIP3    H247102   3.271   1.981  14.617 -2.3785 -0.5877  0.4419
 8563TIP3   OH247103   0.753   6.175   5.769 -0.1876  0.0383  0.2294
 8563TIP3    H147104   0.798   6.136   5.843 -0.2587 -1.2940 -0.4059
 8563TIP3    H247105   0.784   6.266   5.767  0.8598 -0.2905  1.0533
 8564TIP3   OH247106   3.399   0.042   1.193  0.4526  0.1757  0.1469
 8564TIP3    H147107   3.477   0.050   1.138  0.7097 -0.1138  0.4692
 8564TIP3    H247108   3.337  -0.008   1.140  0.8975 -0.5764  0.3287
 8565TIP3   OH247109   4.538   5.661  13.377 -0.0505 -0.1135 -0.5576
 8565TIP3    H147110   4.465   5.722  13.364 -0.3038 -0.1543  0.5593
 8565TIP3    H247111   4.614   5.718  13.392  0.3157 -0.0625 -2.4297
 8566TIP3   OH247112   4.718   4.455  16.118  0.3132 -0.2020 -0.3368
 8566TIP3    H147113   4.717   4.464  16.023 -1.1883  0.6955 -0.2620
 8566TIP3    H247114   4.670   4.373  16.135 -0.8305  0.4446 -0.3164
 8567TIP3   OH247115   5.992   4.745  11.972 -0.0648 -0.2095  0.8864
 8567TIP3    H147116   5.960   4.782  12.054 -2.9778 -1.3066  0.3722
 8567TIP3    H247117   5.986   4.650  11.985  0.8748 -0.4216 -0.0904
 8568TIP3   OH247118   6.550   4.635   0.125 -0.3241 -0.2756 -0.0155
 8568TIP3    H147119   6.558   4.649   0.030 -1.8515  0.0593 -0.1281
 8568TIP3    H247120   6.465   4.673   0.147  0.1844  0.0069  1.5732
 8569TIP3   OH247121   3.592   4.097   3.285 -0.1727 -0.6199 -0.2620
 8569TIP3    H147122   3.658   4.035   3.316 -0.2242 -0.1707  0.8149
 8569TIP3    H247123   3.523   4.093   3.351  0.0056  0.8519  0.0507
 8570TIP3   OH247124   6.363   4.121  14.375 -0.4817 -0.1028  0.6811
 8570TIP3    H147125   6.270   4.103  14.389 -0.1812 -1.6058  0.9847
 8570TIP3    H247126   6.372   4.124  14.280 -0.5715 -1.8157  0.5737
 8571TIP3   OH247127   4.444   1.436  14.697  0.1159  0.4396  0.2018
 8571TIP3    H147128   4.355   1.401  14.698  1.2376 -2.7748  0.9265
 8571TIP3    H247129   4.490   1.386  14.764  2.7055  1.2599 -0.8251
 8572TIP3   OH247130   4.159   6.297   2.456 -0.1949 -0.2389 -0.7921
 8572TIP3    H147131   4.148   6.208   2.422 -0.2204  0.4060 -2.6160
 8572TIP3    H247132   4.070   6.328   2.471 -0.1858 -0.5110 -0.1630
 8573TIP3   OH247133   2.741   5.738  12.249 -0.2909  0.5858 -0.2130
 8573TIP3    H147134   2.708   5.711  12.164  0.8750 -2.4850  0.1871
 8573TIP3    H247135   2.735   5.833  12.248  0.2601  0.7301 -3.9557
 8574TIP3   OH247136   3.896   6.615   2.301  0.7311  0.6008 -0.1207
 8574TIP3    H147137   3.961   6.647   2.363  1.3028 -0.9993  0.1527
 8574TIP3    H247138   3.946   6.584   2.226  0.2572 -0.1604 -0.1360
 8575TIP3   OH247139   5.623   6.305  13.424 -0.2228  0.2033 -0.2095
 8575TIP3    H147140   5.608   6.304  13.518 -2.0141  0.3450 -0.4646
 8575TIP3    H247141   5.556   6.247  13.388  0.0476  0.6327 -1.4417
 8576TIP3   OH247142   5.913   4.450   4.541 -0.1270 -0.2650 -0.0269
 8576TIP3    H147143   5.893   4.493   4.625  0.9713 -1.5232  0.9132
 8576TIP3    H247144   5.889   4.359   4.555 -1.2985 -0.2362 -1.6040
 8577TIP3   OH247145   2.766   1.684   3.769 -0.1394  0.0787  0.4938
 8577TIP3    H147146   2.830   1.625   3.808  0.1509  0.0119 -0.0739
 8577TIP3    H247147   2.686   1.669   3.820  0.3544  0.3507  1.3687
 8578TIP3   OH247148   3.656   6.640   0.590  0.5049  0.2856  0.3257
 8578TIP3    H147149   3.653   6.708   0.523  2.1389  0.4695  0.4050
 8578TIP3    H247150   3.601   6.673   0.661  1.5825  1.7239  0.5310
 8579TIP3   OH247151   0.521   4.440  15.402  0.1441  0.0490  0.3049
 8579TIP3    H147152   0.480   4.361  15.436  0.6674  1.1222  3.8804
 8579TIP3    H247153   0.449   4.502  15.392  0.0695 -0.0620  0.1544
 8580TIP3   OH247154   0.789   0.731  16.159  0.0910  0.3397  0.0577
 8580TIP3    H147155   0.869   0.726  16.107  0.3549 -1.2446  0.5575
 8580TIP3    H247156   0.812   0.691  16.243 -1.7122 -2.1457 -0.4776
 8581TIP3   OH247157   5.744   4.512  12.671 -0.0847  0.0933  0.4125
 8581TIP3    H147158   5.681   4.481  12.605 -0.5537  0.7169  0.5579
 8581TIP3    H247159   5.815   4.551  12.620 -0.1311 -0.0201  0.2594
 8582TIP3   OH247160   5.202   0.805  11.687  0.4807  0.1109 -0.1769
 8582TIP3    H147161   5.287   0.793  11.730  1.1412  1.2292 -1.1101
 8582TIP3    H247162   5.141   0.826  11.759  1.8634  3.5526  0.1953
 8583TIP3   OH247163   5.353   5.590   1.811 -0.5645 -0.0558  0.5245
 8583TIP3    H147164   5.288   5.621   1.873 -1.3126  0.1371 -0.3426
 8583TIP3    H247165   5.303   5.549   1.741  0.1564  1.2314 -0.7955
 8584TIP3   OH247166   5.876   4.804  15.361  0.2972  0.2152 -0.2065
 8584TIP3    H147167   5.854   4.751  15.284  1.2921  1.2852 -1.2747
 8584TIP3    H247168   5.797   4.855  15.378  0.3865  0.7208 -1.1903
 8585TIP3   OH247169   5.178   1.368  14.434  0.4352  0.1858 -0.6188
 8585TIP3    H147170   5.173   1.377  14.529 -0.0796 -1.2867 -0.4756
 8585TIP3    H247171   5.268   1.390  14.412  0.1170  2.2564 -0.0192
 8586TIP3   OH247172   3.509   0.608  10.770 -0.1733  0.1800 -0.3114
 8586TIP3    H147173   3.605   0.615  10.772 -0.0684 -0.3186  3.3710
 8586TIP3    H247174   3.492   0.524  10.729  1.1508 -0.7755  0.9688
 8587TIP3   OH247175   6.108   1.478   6.139 -0.0425  0.5538  0.4931
 8587TIP3    H147176   6.161   1.418   6.192  0.3480  0.9509  0.5605
 8587TIP3    H247177   6.018   1.453   6.158  0.0899 -1.3646 -1.0210
 8588TIP3   OH247178   6.740   4.966  14.788 -0.5817  0.0394 -0.3452
 8588TIP3    H147179   6.671   4.965  14.855 -0.4299 -0.8878 -0.1806
 8588TIP3    H247180   6.736   4.878  14.749  0.8063 -0.2013 -0.0111
 8589TIP3   OH247181   6.092   6.717  16.143  0.3867 -0.2063  0.0065
 8589TIP3    H147182   6.026   6.774  16.105  0.2843  0.0707  0.5863
 8589TIP3    H247183   6.131   6.671  16.069 -0.5776 -0.5046 -0.3275
 8590TIP3   OH247184   2.514   4.504   2.231  0.2854 -0.1085 -0.2806
 8590TIP3    H147185   2.526   4.411   2.252  0.5934 -0.3297 -1.3271
 8590TIP3    H247186   2.595   4.528   2.185  1.4569  1.4665  2.4053
 8591TIP3   OH247187   3.650   0.458   1.166 -0.6314 -0.5036  0.0981
 8591TIP3    H147188   3.726   0.432   1.218  0.0810  0.1737 -0.5912
 8591TIP3    H247189   3.664   0.551   1.148 -1.7724 -0.2980  0.2010
 8592TIP3   OH247190   0.914   2.454  12.534  0.1623  0.3193  0.5735
 8592TIP3    H147191   0.866   2.377  12.506 -0.8434  0.7765  1.0072
 8592TIP3    H247192   0.855   2.499  12.594  1.0439  1.0142  0.9383
 8593TIP3   OH247193   2.825   4.753  17.167  0.4188 -0.1950 -0.3233
 8593TIP3    H147194   2.792   4.842  17.152  2.5133  0.4162 -1.7246
 8593TIP3    H247195   2.794   4.731  17.255 -0.8207  1.5839 -0.2471
 8594TIP3   OH247196   0.234   3.800  11.758  0.0592  0.2882 -0.1193
 8594TIP3    H147197   0.272   3.862  11.696 -0.2060  2.3733  1.6727
 8594TIP3    H247198   0.294   3.801  11.832 -1.2446  0.3348  0.9690
 8595TIP3   OH247199   2.237   1.628  15.264  0.3510 -0.2217  0.1662
 8595TIP3    H147200   2.194   1.704  15.225  2.4560 -0.2655 -2.5426
 8595TIP3    H247201   2.181   1.554  15.240  1.6359 -0.2722 -3.2370
 8596TIP3   OH247202   6.283   3.973  16.844 -0.1169  0.1914 -0.5266
 8596TIP3    H147203   6.368   4.004  16.877 -0.2624 -1.0550  1.1728
 8596TIP3    H247204   6.222   3.989  16.916 -1.3111  0.8267 -1.6270
 8597TIP3   OH247205   2.926   6.419  16.032 -0.8806  0.1546 -0.3936
 8597TIP3    H147206   2.849   6.362  16.037 -0.9029  0.1127 -1.0585
 8597TIP3    H247207   2.890   6.507  16.031 -0.8233  0.2193  1.1320
 8598TIP3   OH247208   2.788   4.099  16.554 -0.2362  0.2119 -0.1215
 8598TIP3    H147209   2.768   4.040  16.482  0.8854 -1.4963  0.9130
 8598TIP3    H247210   2.838   4.046  16.616  0.5000  2.1487  1.0312
 8599TIP3   OH247211   6.376   4.190  11.163 -0.3706  0.4902  0.0758
 8599TIP3    H147212   6.405   4.099  11.163 -1.8812 -0.0099  0.7692
 8599TIP3    H247213   6.323   4.199  11.085  0.6539  1.1048 -0.5813
 8600TIP3   OH247214   1.022   1.040   1.355  0.4658  0.1201 -0.4776
 8600TIP3    H147215   1.003   1.095   1.431  0.7659 -2.2238  1.4301
 8600TIP3    H247216   0.959   0.968   1.362  1.2892 -0.7624 -1.7940
 8601TIP3   OH247217   2.415   6.298  14.267  0.8631 -0.0238  0.0402
 8601TIP3    H147218   2.403   6.219  14.214  1.9965 -0.6786  0.7171
 8601TIP3    H247219   2.379   6.275  14.352  3.2840 -0.6944  0.9595
 8602TIP3   OH247220   5.804   0.931   4.498  0.2213  0.3544  0.2006
 8602TIP3    H147221   5.864   0.909   4.569  0.3943 -0.0569 -0.0685
 8602TIP3    H247222   5.716   0.913   4.533  0.3248 -0.1620  0.2021
 8603TIP3   OH247223   5.573   1.303   1.117 -0.7532  0.3051  0.0617
 8603TIP3    H147224   5.592   1.332   1.027  2.2399 -2.1927 -0.2908
 8603TIP3    H247225   5.653   1.324   1.166 -0.8758 -1.6247  1.1832
 8604TIP3   OH247226   2.022   5.590   1.296  0.5886  0.0935  0.4115
 8604TIP3    H147227   2.033   5.495   1.290 -1.5264 -0.1216 -1.4929
 8604TIP3    H247228   2.030   5.620   1.205  0.3849  1.6338  0.8835
 8605TIP3   OH247229   5.949   5.528  12.010  0.3645 -0.2168  0.1990
 8605TIP3    H147230   5.954   5.453  12.068 -1.6422 -1.1954 -0.7931
 8605TIP3    H247231   5.927   5.490  11.924 -1.2923  1.5077 -0.2006
 8606TIP3   OH247232   3.416   0.255   2.764 -0.3852 -0.1951  0.4479
 8606TIP3    H147233   3.473   0.293   2.830  0.1644 -1.4195  0.7007
 8606TIP3    H247234   3.399   0.326   2.702 -0.1564  0.7015  1.4037
 8607TIP3   OH247235   1.901   1.873   4.225  0.7160 -0.3063  0.2502
 8607TIP3    H147236   1.899   1.965   4.249  1.3933 -0.3479  0.4872
 8607TIP3    H247237   1.857   1.869   4.140  1.5331  0.3793 -0.2156
 8608TIP3   OH247238   0.513   2.833  12.234 -0.5318  0.3067  0.8026
 8608TIP3    H147239   0.508   2.828  12.329 -1.7735 -0.1952  0.7317
 8608TIP3    H247240   0.448   2.900  12.210 -1.0734 -0.4018  0.2489
 8609TIP3   OH247241   2.650   1.496   3.302 -0.0714 -0.4671  0.3941
 8609TIP3    H147242   2.647   1.500   3.397 -0.5609  0.0824  0.3584
 8609TIP3    H247243   2.707   1.421   3.283 -1.4217 -1.7314  1.1173
 8610TIP3   OH247244   6.181   0.493  10.852  0.4128 -0.3006  0.1963
 8610TIP3    H147245   6.100   0.520  10.808 -0.3111  1.3567  2.3531
 8610TIP3    H247246   6.162   0.406  10.886  0.8450 -1.4363 -2.2862
 8611TIP3   OH247247   3.025   1.491   5.707  0.0046  0.1034 -0.5965
 8611TIP3    H147248   3.029   1.547   5.785  0.9732  0.1006 -0.6207
 8611TIP3    H247249   2.933   1.486   5.685 -0.2139  0.6806  0.1426
 8612TIP3   OH247250   6.455   5.984  16.755 -0.0219 -0.2666  0.2078
 8612TIP3    H147251   6.457   5.894  16.788 -0.3371 -0.1771  0.4759
 8612TIP3    H247252   6.545   6.003  16.730  0.4589  0.0221  2.0148
 8613TIP3   OH247253   2.780   6.283   1.411  0.9832 -0.3747 -0.2642
 8613TIP3    H147254   2.766   6.211   1.473  0.8684 -2.2248 -2.3046
 8613TIP3    H247255   2.724   6.354   1.443  0.0957 -1.6475  1.1084
 8614TIP3   OH247256   5.541   2.444   4.565 -0.7314  0.2268  0.1848
 8614TIP3    H147257   5.600   2.482   4.499 -2.2962  1.9654 -0.2967
 8614TIP3    H247258   5.592   2.444   4.646 -0.1112  1.8783 -0.1730
 8615TIP3   OH247259   5.360   2.122  13.637  0.0919 -0.3858 -0.5821
 8615TIP3    H147260   5.444   2.108  13.680 -0.0862  0.5681  0.1069
 8615TIP3    H247261   5.376   2.101  13.545  1.4848  1.1882 -0.7417
 8616TIP3   OH247262   3.273   4.040  13.163  0.1761 -0.4944 -0.2404
 8616TIP3    H147263   3.349   3.997  13.203  0.0273  0.0997  0.7198
 8616TIP3    H247264   3.215   4.060  13.237  0.4147  1.7053 -0.5764
 8617TIP3   OH247265   3.684   1.313   1.107 -0.0728  0.0450  0.2459
 8617TIP3    H147266   3.712   1.223   1.087  0.8537  0.7293 -1.8896
 8617TIP3    H247267   3.730   1.336   1.187  0.2594 -1.1514  0.4145
 8618TIP3   OH247268   3.366   2.999   5.816  0.2311 -0.1055 -0.6240
 8618TIP3    H147269   3.286   2.972   5.861  0.0714 -2.5477 -2.1720
 8618TIP3    H247270   3.414   2.918   5.802  2.4380  1.1528 -0.8094
 8619TIP3   OH247271   5.930   5.419  15.933 -0.2321  0.1696 -0.2988
 8619TIP3    H147272   5.942   5.498  15.880 -2.0967  0.7912  0.1442
 8619TIP3    H247273   5.890   5.355  15.873 -0.6824  0.2793 -0.1209
 8620TIP3   OH247274   0.929   5.674  16.797  0.1419  0.1767 -0.1392
 8620TIP3    H147275   0.945   5.716  16.713  1.0862 -1.2841 -0.7335
 8620TIP3    H247276   1.007   5.692  16.848 -0.2253  0.6515  0.2642
 8621TIP3   OH247277   4.211   6.383   5.852 -0.2340  0.5873  0.1339
 8621TIP3    H147278   4.222   6.333   5.771 -2.4226  0.4374 -0.1107
 8621TIP3    H247279   4.187   6.318   5.917 -0.0523  0.9208  0.5400
 8622TIP3   OH247280   1.685   5.254   2.074  0.1722 -0.7257  0.1599
 8622TIP3    H147281   1.602   5.300   2.062  1.7294  2.2010 -0.3263
 8622TIP3    H247282   1.705   5.265   2.167  0.2735 -0.9540  0.1661
 8623TIP3   OH247283   5.423   3.882  12.209 -0.0652  0.2115 -0.1374
 8623TIP3    H147284   5.361   3.885  12.282  0.3275  0.1894  0.2009
 8623TIP3    H247285   5.499   3.931  12.240  0.6599 -0.9563  0.0042
 8624TIP3   OH247286   1.028   4.359   4.199 -0.4694  0.2443  0.8393
 8624TIP3    H147287   1.091   4.414   4.152 -0.2572 -1.4411 -0.9682
 8624TIP3    H247288   0.952   4.353   4.141 -0.8028 -0.7178  1.3475
 8625TIP3   OH247289   3.723   2.767  14.680 -0.7783 -0.2202  0.7269
 8625TIP3    H147290   3.749   2.700  14.617 -1.4088  0.0495  0.1707
 8625TIP3    H247291   3.802   2.782  14.732 -0.0530  0.0129 -0.4069
 8626TIP3   OH247292   3.335   2.879   4.346 -0.0358  0.4508  0.4430
 8626TIP3    H147293   3.264   2.888   4.283 -0.5293  1.3579  1.1093
 8626TIP3    H247294   3.307   2.929   4.422  1.4456  1.0856  0.6189
 8627TIP3   OH247295   4.901   4.739  11.677 -0.3281 -0.2631  0.1845
 8627TIP3    H147296   4.934   4.727  11.588 -1.1398  1.4854 -0.3898
 8627TIP3    H247297   4.828   4.678  11.683 -0.9192  0.3233 -0.7275
 8628TIP3   OH247298   4.992   5.867  16.858  0.4967 -0.3818  0.3286
 8628TIP3    H147299   4.913   5.813  16.866  1.2044 -1.7081 -1.2283
 8628TIP3    H247300   5.063   5.810  16.885  1.3677 -0.6077 -2.2070
 8629TIP3   OH247301   0.246   6.688   2.894  0.4496  0.2384  0.6254
 8629TIP3    H147302   0.275   6.778   2.882 -0.0917  0.2101 -1.1641
 8629TIP3    H247303   0.276   6.664   2.982  3.7685  0.9570 -0.1790
 8630TIP3   OH247304   0.467   6.442  16.985  0.5354 -0.1185  1.0385
 8630TIP3    H147305   0.503   6.529  17.001 -1.0331  0.3802  2.0794
 8630TIP3    H247306   0.488   6.424  16.893 -1.9228  2.8035 -0.2790
 8631TIP3   OH247307   2.442   6.342  13.491  0.2477 -0.0729  0.2019
 8631TIP3    H147308   2.455   6.354  13.397 -0.1024  1.7751  0.3526
 8631TIP3    H247309   2.487   6.260  13.511 -1.6442 -1.7518 -1.9638
 8632TIP3   OH247310   4.107   3.710   4.328  0.9864 -0.3461 -0.3854
 8632TIP3    H147311   4.105   3.772   4.255 -1.9720 -2.1541 -2.0932
 8632TIP3    H247312   4.014   3.691   4.345  1.6821 -2.1791  1.9216
 8633TIP3   OH247313   1.931   1.732  12.318  0.8164  0.1775  0.3764
 8633TIP3    H147314   1.951   1.641  12.294  1.0246  0.5646 -0.9826
 8633TIP3    H247315   1.863   1.724  12.385  0.0580 -0.9624 -0.4883
 8634TIP3   OH247316   4.618   3.656   1.683 -0.3502  0.3655  0.4463
 8634TIP3    H147317   4.549   3.632   1.744 -2.1519  0.7252 -1.3741
 8634TIP3    H247318   4.698   3.620   1.723 -1.6056 -0.4467  2.3831
 8635TIP3   OH247319   2.431   4.091   3.403  0.1050 -0.4352 -0.4834
 8635TIP3    H147320   2.518   4.095   3.442  0.3403  0.0080 -1.0285
 8635TIP3    H247321   2.443   4.038   3.324 -0.2193 -0.7690 -0.3092
 8636TIP3   OH247322   2.650   1.340  15.845 -0.0699 -0.1447  0.5197
 8636TIP3    H147323   2.562   1.304  15.847 -0.4543  0.6043  3.7687
 8636TIP3    H247324   2.708   1.266  15.862 -0.3687 -0.1979  1.3587
 8637TIP3   OH247325   5.843   0.055  14.472 -0.0666  0.0917 -0.2486
 8637TIP3    H147326   5.859  -0.005  14.399  0.4921  1.1887 -1.0647
 8637TIP3    H247327   5.767   0.107  14.444 -0.8807 -0.5684  0.6762
 8638TIP3   OH247328   5.995   2.538  14.300  0.0866 -0.1084  0.5053
 8638TIP3    H147329   5.939   2.528  14.222 -0.3455  1.3932  0.6009
 8638TIP3    H247330   6.014   2.631  14.305  3.0785 -0.5901  0.1896
 8639TIP3   OH247331   6.575   6.481  11.804  0.0714  0.3211 -0.0329
 8639TIP3    H147332   6.642   6.516  11.746  1.5788 -1.6314  0.4505
 8639TIP3    H247333   6.492   6.496  11.758  1.1407 -0.4309 -2.3113
 8640TIP3   OH247334   2.708   3.442  15.053  0.4364  0.4764 -0.0062
 8640TIP3    H147335   2.765   3.442  15.130  0.7889  0.4631 -0.2618
 8640TIP3    H247336   2.663   3.358  15.057 -0.8601  1.1767  1.1251
 8641TIP3   OH247337   3.456   3.668   0.295 -0.3673 -0.3388  0.6659
 8641TIP3    H147338   3.484   3.601   0.233 -1.8383 -0.0056 -0.3946
 8641TIP3    H247339   3.469   3.628   0.381  1.9881 -0.7074  0.2053
 8642TIP3   OH247340   4.300   1.163  13.575 -0.0333 -0.1237 -0.0208
 8642TIP3    H147341   4.271   1.249  13.545  1.6816  1.2783  2.0302
 8642TIP3    H247342   4.350   1.128  13.501 -2.1996 -0.1921 -1.5303
 8643TIP3   OH247343   6.752   5.496  15.733 -0.2007  0.0634 -0.1623
 8643TIP3    H147344   6.679   5.436  15.718 -0.7722  0.1843  1.7974
 8643TIP3    H247345   6.709   5.576  15.765  0.5231  1.6068 -2.7587
 8644TIP3   OH247346   6.608   5.706  12.562  0.0610  0.2379  0.3549
 8644TIP3    H147347   6.644   5.624  12.529 -1.1864  0.5727 -2.0505
 8644TIP3    H247348   6.605   5.764  12.486 -1.3087  1.7029  1.4460
 8645TIP3   OH247349   3.671   1.819   6.433  0.3629 -0.5473  0.3705
 8645TIP3    H147350   3.585   1.828   6.474  1.1008  1.6432  1.6481
 8645TIP3    H247351   3.669   1.880   6.360  0.7865 -0.5503  0.3547
 8646TIP3   OH247352   1.483   6.290   2.713 -0.3874  0.9391 -0.4537
 8646TIP3    H147353   1.449   6.263   2.799  1.3372  1.3069  0.3922
 8646TIP3    H247354   1.527   6.212   2.679  0.1618  1.1988 -0.3467
 8647TIP3   OH247355   2.709   6.039  11.841 -0.1774  0.0679  0.2833
 8647TIP3    H147356   2.732   6.046  11.748 -1.9259 -0.5442 -0.2288
 8647TIP3    H247357   2.660   6.120  11.859  0.1426  0.1770  0.6791
 8648TIP3   OH247358   5.731   5.334  16.580 -0.3849  0.4139  0.6354
 8648TIP3    H147359   5.716   5.379  16.664 -1.7206  1.0824  0.0657
 8648TIP3    H247360   5.799   5.270  16.599 -0.6663  0.5513  2.2399
 8649TIP3   OH247361   2.612   5.950  14.524 -0.2047 -0.0141  0.7351
 8649TIP3    H147362   2.538   5.901  14.560  0.3942 -2.1551 -0.7557
 8649TIP3    H247363   2.643   5.896  14.451  1.4368  1.9256 -0.0934
 8650TIP3   OH247364   6.136   5.426   5.440 -0.9960 -0.1838 -0.3649
 8650TIP3    H147365   6.146   5.520   5.451  0.2434 -0.4827  1.4962
 8650TIP3    H247366   6.192   5.404   5.365 -0.8310  0.4726 -0.4397
 8651TIP3   OH247367   1.883   4.436   0.579  0.4894 -0.4274 -0.3557
 8651TIP3    H147368   1.926   4.498   0.638  2.5477 -1.1763 -0.9857
 8651TIP3    H247369   1.855   4.489   0.504  0.2293  0.0903  0.1036
 8652TIP3   OH247370   6.268   6.294   2.386 -0.4320 -0.3547  0.2800
 8652TIP3    H147371   6.223   6.221   2.428  0.8980 -2.8341 -2.2793
 8652TIP3    H247372   6.252   6.282   2.292  0.4307  2.2842 -0.3045
 8653TIP3   OH247373   3.500   3.945   5.732 -0.5125  0.1558  0.0296
 8653TIP3    H147374   3.472   4.025   5.776 -3.1470 -1.3413  1.3282
 8653TIP3    H247375   3.594   3.941   5.747 -0.7498  1.5469  2.4366
 8654TIP3   OH247376   0.546   2.739  16.590 -0.2992 -0.5141 -0.8343
 8654TIP3    H147377   0.463   2.743  16.639 -0.8665  0.5961 -1.8387
 8654TIP3    H247378   0.536   2.662  16.534 -0.3716 -0.7770 -0.4633
 8655TIP3   OH247379   2.474   4.452  12.907  0.1179 -0.4280  0.0622
 8655TIP3    H147380   2.454   4.379  12.849  3.4862 -1.2313 -0.3008
 8655TIP3    H247381   2.491   4.526  12.849 -1.9514  0.3637  0.3765
 8656TIP3   OH247382   3.462   5.509  15.281  0.1892 -0.5176  0.3630
 8656TIP3    H147383   3.472   5.569  15.208 -0.5965 -0.8411 -0.0145
 8656TIP3    H247384   3.525   5.439  15.263  1.9652  0.7186  1.3967
 8657TIP3   OH247385   2.333   0.735  12.315  0.1238 -0.0857  0.1220
 8657TIP3    H147386   2.383   0.808  12.277 -2.2011  2.1439  1.0283
 8657TIP3    H247387   2.288   0.774  12.390  0.2602 -2.9882  1.8511
 8658TIP3   OH247388   0.811   5.002  11.409 -0.5245  0.3489 -0.1907
 8658TIP3    H147389   0.875   4.944  11.369 -0.9177  0.1469 -0.5370
 8658TIP3    H247390   0.794   5.069  11.342  1.0824  1.7924  0.7533
 8659TIP3   OH247391   1.289   5.460  12.361  0.0353  0.3288  0.1665
 8659TIP3    H147392   1.222   5.398  12.390  1.5816 -2.4327 -1.6907
 8659TIP3    H247393   1.322   5.499  12.442 -2.8784  0.8737  1.2078
 8660TIP3   OH247394   3.401   5.094  14.828 -0.1322 -0.5460  0.3818
 8660TIP3    H147395   3.370   5.095  14.738  2.7336 -1.3597 -0.7163
 8660TIP3    H247396   3.426   5.004  14.844 -1.1899 -0.5618  2.2959
 8661TIP3   OH247397   4.084   1.318   1.272  0.0349  0.1275 -0.4088
 8661TIP3    H147398   4.111   1.304   1.362  1.3425  1.0150 -0.6397
 8661TIP3    H247399   4.043   1.404   1.272  1.3688  0.7898 -0.9091
 8662TIP3   OH247400   5.217   1.088  15.578 -0.4118 -0.4373  0.0073
 8662TIP3    H147401   5.190   1.010  15.530  1.4165 -2.0501  1.4636
 8662TIP3    H247402   5.157   1.093  15.653 -1.9929  0.9569 -1.2535
 8663TIP3   OH247403   5.263   4.560   5.133 -0.1228 -0.2058  0.1306
 8663TIP3    H147404   5.185   4.587   5.182 -1.4018  0.5115 -2.1521
 8663TIP3    H247405   5.288   4.476   5.172 -0.5310  0.6963  2.5080
 8664TIP3   OH247406   5.700   0.743   4.703 -0.4145 -0.2587  0.0824
 8664TIP3    H147407   5.764   0.765   4.771 -0.9163 -0.8177  0.7479
 8664TIP3    H247408   5.619   0.786   4.732 -0.2857  0.6705 -0.8948
 8665TIP3   OH247409   0.399   2.391   2.647  0.4667 -0.3684  0.9046
 8665TIP3    H147410   0.331   2.331   2.678 -0.3038  1.3123  2.5706
 8665TIP3    H247411   0.362   2.429   2.567  0.4325 -1.1129  0.5471
 8666TIP3   OH247412   5.134   0.419   4.698  0.1171  0.1389 -0.0170
 8666TIP3    H147413   5.195   0.390   4.631 -1.1626 -0.1879 -1.0924
 8666TIP3    H247414   5.060   0.454   4.649  0.8098  3.7031  1.1912
 8667TIP3   OH247415   2.156   6.066   2.501 -0.1394  0.0176 -0.4060
 8667TIP3    H147416   2.159   5.972   2.518 -0.9314  0.2747  1.4982
 8667TIP3    H247417   2.245   6.088   2.475 -0.5940 -1.6913 -4.0220
 8668TIP3   OH247418   2.002   5.862   4.338  0.4386 -0.8516  0.3727
 8668TIP3    H147419   2.068   5.802   4.303  1.8455  1.1483 -0.6028
 8668TIP3    H247420   2.016   5.861   4.432  1.0328 -1.3648  0.2881
 8669TIP3   OH247421   1.225   1.408   0.655 -0.3355  0.4123  0.1227
 8669TIP3    H147422   1.218   1.337   0.591  0.6656  1.7782 -1.5767
 8669TIP3    H247423   1.280   1.373   0.724 -0.0471 -0.5553 -0.5775
 8670TIP3   OH247424   4.869   4.556   1.797  0.0581 -0.5689  0.2681
 8670TIP3    H147425   4.832   4.601   1.721 -0.2025  0.4254  0.9642
 8670TIP3    H247426   4.925   4.488   1.759 -0.0399 -0.0762 -0.8108
 8671TIP3   OH247427   3.106   2.007  10.490  0.4817 -0.7271 -0.0583
 8671TIP3    H147428   3.200   2.021  10.478  0.1692  0.1526 -1.8985
 8671TIP3    H247429   3.073   2.090  10.525  0.3541 -0.9736  0.4147
 8672TIP3   OH247430   5.286   5.240  15.824  0.9730  0.0755  0.6838
 8672TIP3    H147431   5.325   5.323  15.798  1.3952 -0.6882 -1.2848
 8672TIP3    H247432   5.276   5.191  15.742  0.5974 -1.7597  1.7629
 8673TIP3   OH247433   4.460   4.142   1.599  0.2329  0.6831  0.4794
 8673TIP3    H147434   4.501   4.228   1.589  0.5847  0.4731  0.0699
 8673TIP3    H247435   4.431   4.119   1.510  1.2775 -0.1746  0.3356
 8674TIP3   OH247436   6.247   0.883   3.948 -0.2322 -0.0792 -0.3096
 8674TIP3    H147437   6.320   0.944   3.947  0.3293 -0.6350 -3.2820
 8674TIP3    H247438   6.170   0.939   3.959  0.4688  0.7802  0.3641
 8675TIP3   OH247439   2.477   5.470  11.617  0.0952 -0.4171 -0.2033
 8675TIP3    H147440   2.433   5.410  11.678 -1.7260 -1.5153 -2.4424
 8675TIP3    H247441   2.568   5.471  11.646 -0.0100 -3.4975  0.5890
 8676TIP3   OH247442   6.540   3.970  12.374  0.0533  0.4322 -0.1477
 8676TIP3    H147443   6.476   3.985  12.443 -1.3365 -1.0184 -1.0485
 8676TIP3    H247444   6.493   3.987  12.293  0.5471 -1.3755 -0.8642
 8677TIP3   OH247445   4.252   1.847  13.102  0.2757  0.0922 -0.6685
 8677TIP3    H147446   4.221   1.762  13.071  0.3657 -0.1679 -0.0502
 8677TIP3    H247447   4.330   1.865  13.049  1.8760 -1.4882  1.0189
 8678TIP3   OH247448   0.598   4.148   3.572  0.3478  0.0533 -0.7659
 8678TIP3    H147449   0.569   4.229   3.529 -0.8260 -0.6102 -1.2619
 8678TIP3    H247450   0.520   4.115   3.616  0.9771 -0.4915 -0.0448
 8679TIP3   OH247451   0.956   1.844   1.222 -0.0691  0.2178  0.3220
 8679TIP3    H147452   0.947   1.939   1.215  2.6760  0.7769  2.7885
 8679TIP3    H247453   0.931   1.812   1.136 -1.2925  3.1229 -0.5418
 8680TIP3   OH247454   1.628   5.590  15.242  0.4976  0.4592 -0.2602
 8680TIP3    H147455   1.709   5.545  15.219  0.5792 -0.1035  1.0560
 8680TIP3    H247456   1.562   5.521  15.247  0.1043  0.8094 -0.5590
 8681TIP3   OH247457   5.166   1.258  10.496  0.0482 -0.3892 -0.0691
 8681TIP3    H147458   5.074   1.235  10.486  0.0187 -0.1129 -0.4749
 8681TIP3    H247459   5.186   1.311  10.419  1.0765 -2.1502 -1.0934
 8682TIP3   OH247460   2.805   4.508   3.120 -0.0315 -0.1034  0.3429
 8682TIP3    H147461   2.779   4.416   3.117  0.9811 -0.3804 -0.8665
 8682TIP3    H247462   2.723   4.557   3.112 -0.3696 -0.9313 -3.9537
 8683TIP3   OH247463   2.879   1.162  16.085  0.3201  0.0999  0.1186
 8683TIP3    H147464   2.864   1.086  16.141  1.9116 -0.4865 -0.1878
 8683TIP3    H247465   2.905   1.125  16.001 -0.4782  0.9885 -0.5474
 8684TIP3   OH247466   4.122   6.287  13.544  0.1986  0.2085 -0.4324
 8684TIP3    H147467   4.209   6.263  13.513  0.0309 -0.2272 -0.5624
 8684TIP3    H247468   4.067   6.211  13.526  0.0360  0.0394  0.6868
 8685TIP3   OH247469   5.703   3.772  16.561  0.8614 -0.0105 -0.7066
 8685TIP3    H147470   5.678   3.859  16.592 -3.2868 -1.3489  0.3031
 8685TIP3    H247471   5.714   3.783  16.466  0.8936  1.6635 -0.5439
 8686TIP3   OH247472   5.603   0.692   1.100 -0.1430  0.2962 -0.1401
 8686TIP3    H147473   5.570   0.606   1.125 -0.2200  0.3836  0.0669
 8686TIP3    H247474   5.525   0.749   1.101  0.1082  0.6458  0.9870
 8687TIP3   OH247475   5.026   3.237  16.174  1.2141 -0.2304 -0.6180
 8687TIP3    H147476   4.953   3.201  16.123  0.2111  0.6661  0.1490
 8687TIP3    H247477   4.984   3.282  16.247  2.3546  2.7441 -1.6444
 8688TIP3   OH247478   6.208   3.385   3.128  0.4991  0.3329  0.1484
 8688TIP3    H147479   6.260   3.390   3.048 -1.3827  0.5480 -1.1208
 8688TIP3    H247480   6.157   3.305   3.120  2.9688 -1.7553  2.9533
 8689TIP3   OH247481   2.408   5.897  15.551 -0.5447 -0.1990 -0.2497
 8689TIP3    H147482   2.418   5.802  15.548  0.0795 -0.1110 -1.0453
 8689TIP3    H247483   2.493   5.932  15.525 -0.6999  0.5851  0.2367
 8690TIP3   OH247484   4.170   3.142  17.011  0.9470  0.1424 -0.4728
 8690TIP3    H147485   4.195   3.234  17.019 -0.1921  0.3999  0.4298
 8690TIP3    H247486   4.153   3.113  17.100 -3.9486  0.6605 -0.9332
 8691TIP3   OH247487   3.567   5.061   4.022  0.2605  0.0384 -0.1795
 8691TIP3    H147488   3.548   5.151   3.995  1.0195 -0.0951 -1.2132
 8691TIP3    H247489   3.618   5.070   4.102  1.6398  0.5975 -1.0927
 8692TIP3   OH247490   1.342   4.211  11.763  0.0669 -0.1406 -0.1797
 8692TIP3    H147491   1.309   4.301  11.762  1.3287  0.3606  1.0878
 8692TIP3    H247492   1.391   4.202  11.682  1.7927  1.0652  0.6850
 8693TIP3   OH247493   4.860   1.475  17.236 -0.5043  0.1465 -0.4207
 8693TIP3    H147494   4.813   1.484  17.319 -1.5245 -0.2722 -0.9402
 8693TIP3    H247495   4.952   1.478  17.261 -0.7919 -0.1875  0.7539
 8694TIP3   OH247496   5.930   2.943  11.135  0.2503  0.0760  0.2553
 8694TIP3    H147497   6.003   2.954  11.073 -0.8493  1.8911 -0.8414
 8694TIP3    H247498   5.851   2.948  11.080 -0.7386 -1.7978  1.4088
 8695TIP3   OH247499   1.018   6.600  14.342 -0.4493  0.2996 -0.0925
 8695TIP3    H147500   1.012   6.688  14.377  0.7750 -0.2452  1.6178
 8695TIP3    H247501   0.937   6.588  14.292 -1.7574  1.5540  1.6089
 8696TIP3   OH247502   1.134   5.199   2.267 -0.5465 -0.1544  0.8978
 8696TIP3    H147503   1.060   5.203   2.327 -1.2255  1.9444 -0.0115
 8696TIP3    H247504   1.154   5.290   2.245  1.4092 -0.7266  0.0142
 8697TIP3   OH247505   4.474   6.096  12.064 -0.5517 -0.0848 -0.1186
 8697TIP3    H147506   4.401   6.042  12.091  0.0796 -0.1153  1.6249
 8697TIP3    H247507   4.480   6.164  12.131  1.2340 -0.3059  0.0012
 8698TIP3   OH247508   2.974   1.091  12.865  0.1638 -0.0271  0.2026
 8698TIP3    H147509   2.987   1.185  12.874  1.2125 -0.1232 -0.1236
 8698TIP3    H247510   2.916   1.082  12.789 -0.0884  0.3630  0.3491
 8699TIP3   OH247511   3.354   5.884   1.260  0.3353  0.0748  0.3974
 8699TIP3    H147512   3.388   5.948   1.198 -3.4579  0.8729 -1.1436
 8699TIP3    H247513   3.321   5.813   1.205 -0.5983 -0.5431  1.7083
 8700TIP3   OH247514   0.920   5.568   6.157  0.4064  0.0789 -0.4076
 8700TIP3    H147515   0.973   5.639   6.122 -1.1044  1.0904 -0.7613
 8700TIP3    H247516   0.852   5.612   6.208  1.0797 -1.2499  1.7811
 8701TIP3   OH247517   3.668   3.941   6.062 -0.4054 -0.3377 -0.6241
 8701TIP3    H147518   3.762   3.944   6.047 -0.2046  0.5821  0.6408
 8701TIP3    H247519   3.631   3.998   5.995  0.0708  0.3952 -0.2719
 8702TIP3   OH247520   3.288   0.190   3.232  0.9020  0.0041  0.4408
 8702TIP3    H147521   3.342   0.141   3.170 -0.2152 -0.4249 -0.2168
 8702TIP3    H247522   3.333   0.274   3.242  1.6081 -0.2912 -0.1916
 8703TIP3   OH247523   3.785   6.494   3.075 -0.6543  0.4524  0.3448
 8703TIP3    H147524   3.791   6.399   3.059 -1.7285  0.5843 -1.0384
 8703TIP3    H247525   3.860   6.530   3.028  0.8024  0.1819  2.3445
 8704TIP3   OH247526   0.453   3.160  16.277  0.5487 -0.0287 -0.4587
 8704TIP3    H147527   0.458   3.068  16.306 -2.9753 -0.3634 -0.4205
 8704TIP3    H247528   0.429   3.154  16.184 -0.7546  0.7933 -0.1948
 8705TIP3   OH247529   4.703   2.787  10.771  0.0067  0.6676  0.6538
 8705TIP3    H147530   4.623   2.826  10.807 -1.6270 -0.2184 -1.7736
 8705TIP3    H247531   4.682   2.694  10.761 -0.1840  0.9945 -3.5344
 8706TIP3   OH247532   1.458   2.971  14.922  0.0512 -0.1757  0.1017
 8706TIP3    H147533   1.407   3.052  14.925  0.5027  0.1234 -0.1297
 8706TIP3    H247534   1.394   2.903  14.901 -0.0645  0.3751 -1.5394
 8707TIP3   OH247535   4.875   5.040  12.500 -1.0754  0.6056 -0.2348
 8707TIP3    H147536   4.806   4.990  12.457 -0.2087 -1.7895  0.9205
 8707TIP3    H247537   4.956   5.007  12.461 -0.4773  1.5328  0.1925
 8708TIP3   OH247538   3.647   0.725   1.585  0.1187 -0.0105 -0.2743
 8708TIP3    H147539   3.591   0.781   1.639 -0.5799 -0.2427 -0.7560
 8708TIP3    H247540   3.720   0.703   1.643 -0.0910  0.5921  0.2425
 8709TIP3   OH247541   3.690   2.561   0.217 -0.9434 -0.1392  0.3685
 8709TIP3    H147542   3.598   2.534   0.211 -0.9119 -0.6040  1.5741
 8709TIP3    H247543   3.693   2.614   0.297 -0.2027  0.0400  0.2231
 8710TIP3   OH247544   0.243   4.097   2.002 -0.7167 -0.3706  0.5236
 8710TIP3    H147545   0.320   4.049   1.972 -0.9457  0.3978 -1.4545
 8710TIP3    H247546   0.168   4.049   1.967 -0.9700  0.9345 -0.8476
 8711TIP3   OH247547   6.283   3.213   1.062 -0.0637  0.2173 -0.4668
 8711TIP3    H147548   6.189   3.233   1.062 -0.1651 -0.0992  1.2171
 8711TIP3    H247549   6.325   3.296   1.041 -0.7227  0.2768 -1.6239
 8712TIP3   OH247550   4.474   1.155   0.811 -0.2988  0.2251 -0.1778
 8712TIP3    H147551   4.539   1.212   0.851  1.1256 -1.9683  0.8623
 8712TIP3    H247552   4.409   1.141   0.879 -0.5079  0.4228 -0.3386
 8713TIP3   OH247553   4.282   3.084   4.384 -0.2875 -0.5582  0.2671
 8713TIP3    H147554   4.213   3.147   4.405 -0.3020 -0.5816  0.2896
 8713TIP3    H247555   4.362   3.136   4.380 -0.5320 -0.2504 -1.2884
 8714TIP3   OH247556   3.821   6.398   3.740 -0.0246  0.0517  0.6552
 8714TIP3    H147557   3.812   6.460   3.812 -1.1195  0.4098  0.2349
 8714TIP3    H247558   3.855   6.450   3.667  0.9677 -0.2846  0.8615
 8715TIP3   OH247559   5.698   4.236   4.978  0.2353  0.3702 -0.0653
 8715TIP3    H147560   5.786   4.272   4.989  0.7644 -0.5408 -1.1344
 8715TIP3    H247561   5.707   4.169   4.910 -1.0985 -0.4093  0.4780
 8716TIP3   OH247562   3.815   6.460   4.410 -0.1027  0.6379 -0.5023
 8716TIP3    H147563   3.825   6.366   4.418 -1.2769  0.5577  0.2618
 8716TIP3    H247564   3.720   6.474   4.407  0.0023  1.8765  0.7731
 8717TIP3   OH247565   4.172   0.253  14.578  0.4483 -0.1560  0.3954
 8717TIP3    H147566   4.247   0.305  14.550  0.0812 -0.7845 -1.9721
 8717TIP3    H247567   4.155   0.282  14.668  0.9683  2.9647 -0.4018
 8718TIP3   OH247568   0.143   4.346   1.933  0.0808  0.0471  0.3649
 8718TIP3    H147569   0.050   4.332   1.946 -0.2203 -0.4378 -1.9520
 8718TIP3    H247570   0.184   4.263   1.959 -0.4435 -0.7338 -1.1672
 8719TIP3   OH247571   5.162   4.307   0.181  0.5899 -0.4400  0.0424
 8719TIP3    H147572   5.133   4.285   0.269 -0.1900 -1.4826 -0.4422
 8719TIP3    H247573   5.147   4.401   0.173 -0.0766 -0.4749  0.7587
 8720TIP3   OH247574   1.456   3.410  11.162  0.4394 -0.3789  0.4421
 8720TIP3    H147575   1.430   3.370  11.245 -0.9120  0.9977  0.7218
 8720TIP3    H247576   1.547   3.437  11.176  0.8346 -1.8093  0.8062
 8721TIP3   OH247577   6.762   0.661   1.160  0.3207 -0.1955  0.1285
 8721TIP3    H147578   6.676   0.619   1.155  1.2891 -2.1950 -1.1867
 8721TIP3    H247579   6.824   0.591   1.137  2.3096  1.1654  1.0798
 8722TIP3   OH247580   1.266   6.247  12.814 -0.4585  0.2030  0.1976
 8722TIP3    H147581   1.317   6.171  12.786  1.8205  1.3290  1.0663
 8722TIP3    H247582   1.255   6.300  12.735 -1.3439 -0.5992 -0.2364
 8723TIP3   OH247583   1.465   4.489  13.988  0.3923 -0.0812 -0.4336
 8723TIP3    H147584   1.394   4.425  13.981 -0.2739  0.5557  0.3366
 8723TIP3    H247585   1.542   4.442  13.955 -0.3591 -0.7986 -1.2385
 8724TIP3   OH247586   2.320   5.899  13.739 -0.2662 -0.5080  0.0052
 8724TIP3    H147587   2.245   5.884  13.681 -0.4877 -0.1225  0.1849
 8724TIP3    H247588   2.357   5.812  13.753 -0.2577 -0.6182 -0.6486
 8725TIP3   OH247589   4.740   2.754   2.157  0.3920 -0.3338 -0.1625
 8725TIP3    H147590   4.715   2.683   2.216 -0.3558 -2.0419 -2.3639
 8725TIP3    H247591   4.834   2.762   2.167  0.3268 -0.8094  0.9869
 8726TIP3   OH247592   4.502   6.278   6.057  0.1019 -0.4056 -0.4459
 8726TIP3    H147593   4.417   6.252   6.021 -0.2405 -0.2430  0.2299
 8726TIP3    H247594   4.481   6.346   6.121  0.7756 -0.1278 -0.5150
 8727TIP3   OH247595   2.314   5.664   0.431  0.0897 -0.1831 -0.3890
 8727TIP3    H147596   2.365   5.702   0.503 -1.0579 -2.2763  1.6443
 8727TIP3    H247597   2.376   5.609   0.384  0.1200 -1.5919  1.2053
 8728TIP3   OH247598   3.400   1.042   1.517  0.1770  0.4087 -0.4771
 8728TIP3    H147599   3.473   1.064   1.460  0.4324  0.0029 -0.3112
 8728TIP3    H247600   3.418   1.088   1.599  0.6737 -0.3461 -0.1549
 8729TIP3   OH247601   3.603   1.678  11.198 -0.0802  0.4424 -0.1463
 8729TIP3    H147602   3.641   1.724  11.273  1.1653 -0.7349 -0.0180
 8729TIP3    H247603   3.615   1.739  11.125  1.8003  0.2899 -0.0321
 8730TIP3   OH247604   1.867   4.304  12.081  0.2641  0.0583 -0.2203
 8730TIP3    H147605   1.875   4.216  12.046 -0.9407  0.2517 -1.0397
 8730TIP3    H247606   1.815   4.352  12.016  0.8582  1.3687  0.2205
 8731TIP3   OH247607   6.678   1.760  15.876 -0.6759  0.3610  0.1656
 8731TIP3    H147608   6.639   1.674  15.893 -0.6893  0.0749 -1.1902
 8731TIP3    H247609   6.762   1.740  15.833  0.0606  1.0127  1.2328
 8732TIP3   OH247610   0.229   6.596  14.270  0.2773 -0.2962  0.4236
 8732TIP3    H147611   0.185   6.512  14.256 -0.0028 -0.5283  2.3503
 8732TIP3    H247612   0.158   6.661  14.268  0.2869 -0.2880  0.3677
 8733TIP3   OH247613   1.554   0.816  13.561  0.0734  0.2902  0.0573
 8733TIP3    H147614   1.520   0.868  13.635  0.5706 -0.3179  0.7260
 8733TIP3    H247615   1.476   0.781  13.519 -0.1921 -0.0840  0.8351
 8734TIP3   OH247616   3.390   2.492   6.032  0.0712 -0.2224  0.0219
 8734TIP3    H147617   3.452   2.524   6.098  0.0718 -0.5345  0.1759
 8734TIP3    H247618   3.323   2.560   6.028  0.6067  0.2897 -0.4060
 8735TIP3   OH247619   6.196   2.714  10.791  0.2881 -0.2922  0.0471
 8735TIP3    H147620   6.167   2.795  10.749  0.4034 -0.9789 -1.4385
 8735TIP3    H247621   6.192   2.648  10.721 -0.6068 -1.7704  1.4091
 8736TIP3   OH247622   5.320   1.460  13.536 -0.1983 -0.3568 -0.7567
 8736TIP3    H147623   5.272   1.475  13.618  1.2320  1.9469 -0.2377
 8736TIP3    H247624   5.308   1.541  13.486  0.9774 -0.7702 -1.7644
 8737TIP3   OH247625   0.187   1.102   2.551  0.0274 -0.0514  0.7006
 8737TIP3    H147626   0.097   1.110   2.522  0.5957  2.0956 -0.6888
 8737TIP3    H247627   0.228   1.045   2.487 -0.4157 -1.4627  1.6294
 8738TIP3   OH247628   1.473   5.672   2.085 -0.0702  0.3907  0.1316
 8738TIP3    H147629   1.443   5.613   2.153  1.0902  0.6303  0.8718
 8738TIP3    H247630   1.430   5.755   2.105 -2.9900 -0.4728 -1.8207
 8739TIP3   OH247631   2.164   4.276   1.606 -0.6166  0.2251  0.2141
 8739TIP3    H147632   2.166   4.218   1.531  0.8622  2.7631 -1.8830
 8739TIP3    H247633   2.243   4.253   1.656 -0.4794 -0.1061 -0.1470
 8740TIP3   OH247634   0.043   4.913   1.938  0.6880  0.2585  0.3887
 8740TIP3    H147635   0.013   4.855   1.868  2.3638 -0.9337  0.5898
 8740TIP3    H247636  -0.036   4.939   1.984 -0.4533  0.9147 -1.7953
 8741TIP3   OH247637   1.388   0.944  11.537 -0.3399 -0.2645  0.5196
 8741TIP3    H147638   1.294   0.939  11.518 -0.4114  2.5141 -0.2028
 8741TIP3    H247639   1.396   1.007  11.608  1.1042  1.7354 -1.2732
 8742TIP3   OH247640   5.366   1.032  13.780 -0.1823 -0.3470 -0.0039
 8742TIP3    H147641   5.389   1.122  13.758 -1.2338  0.0269  0.3403
 8742TIP3    H247642   5.343   1.036  13.873  2.4744 -1.5429  0.7968
 8743TIP3   OH247643   2.553   4.497   1.866 -0.6064  0.6833 -0.9014
 8743TIP3    H147644   2.582   4.534   1.949 -0.6367 -0.8475 -0.1705
 8743TIP3    H247645   2.562   4.402   1.877  0.2763  0.4582 -2.9707
 8744TIP3   OH247646   2.072   5.822  13.037  0.5289  0.2290 -0.1687
 8744TIP3    H147647   2.168   5.827  13.040  0.6237  0.7775 -2.5819
 8744TIP3    H247648   2.054   5.737  12.999  0.0632  0.3085 -0.1259
 8745TIP3   OH247649   3.356   5.663   3.913 -0.9130  0.4700 -0.3182
 8745TIP3    H147650   3.273   5.695   3.948 -1.2371 -2.4409  1.9412
 8745TIP3    H247651   3.418   5.672   3.985  0.0883  0.2310 -1.1255
 8746TIP3   OH247652   1.185   3.358  12.109  0.1293 -0.0643 -0.0627
 8746TIP3    H147653   1.201   3.383  12.199 -0.8314  1.1590 -0.2099
 8746TIP3    H247654   1.249   3.289  12.091  0.1241 -0.5471  1.6321
 8747TIP3   OH247655   1.804   5.586   5.121  0.0275  0.0930 -0.1731
 8747TIP3    H147656   1.774   5.656   5.062 -1.9320 -0.3004  0.2872
 8747TIP3    H247657   1.732   5.523   5.122  1.6025 -1.8195 -0.3277
 8748TIP3   OH247658   1.842   2.144   4.207  0.5826 -0.0065  0.3214
 8748TIP3    H147659   1.858   2.207   4.136  0.9963 -1.1619 -0.6529
 8748TIP3    H247660   1.751   2.116   4.193  0.3492  0.4634  0.8469
 8749TIP3   OH247661   5.271   1.554  16.087  0.3928 -0.2189  0.1868
 8749TIP3    H147662   5.181   1.533  16.114  0.8719 -1.9342  0.5692
 8749TIP3    H247663   5.301   1.477  16.040  1.5923  0.4363 -0.1682
 8750TIP3   OH247664   3.955   3.073  11.305 -0.2463 -0.2091 -0.4783
 8750TIP3    H147665   3.920   3.011  11.242 -1.4838  1.3491 -1.3929
 8750TIP3    H247666   4.029   3.114  11.259  1.1252 -1.5293  0.4344
 8751TIP3   OH247667   5.023   4.909  15.748 -0.0742  0.3833 -0.3616
 8751TIP3    H147668   4.946   4.965  15.746 -0.9829 -0.8631 -1.8384
 8751TIP3    H247669   4.999   4.833  15.697  1.2257 -1.2771  1.3585
 8752TIP3   OH247670   6.687   1.456   3.317  0.3744 -0.5072 -0.1936
 8752TIP3    H147671   6.717   1.457   3.408  1.0830 -1.8799 -0.3794
 8752TIP3    H247672   6.598   1.490   3.321  0.0118 -1.5051  1.1916
 8753TIP3   OH247673   1.187   6.318  12.313 -0.4270 -0.4738  0.2489
 8753TIP3    H147674   1.229   6.236  12.290 -0.2658 -0.1484 -0.6566
 8753TIP3    H247675   1.093   6.300  12.307 -0.4143 -0.0809 -1.9865
 8754TIP3   OH247676   4.767   1.623   3.855  0.3981  0.1256  0.2767
 8754TIP3    H147677   4.672   1.609   3.857  0.2598  1.0717  1.9337
 8754TIP3    H247678   4.794   1.586   3.771 -1.2633 -1.2065  0.2606
 8755TIP3   OH247679   1.604   0.084  13.209 -0.2477  0.2272 -0.6395
 8755TIP3    H147680   1.512   0.095  13.235  0.6125 -0.3191  3.3286
 8755TIP3    H247681   1.634   0.173  13.191 -1.3455  0.5173 -1.1220
 8756TIP3   OH247682   3.770   3.971  13.462 -0.2661  0.1745 -0.2594
 8756TIP3    H147683   3.689   4.023  13.463 -0.1888  0.2932 -0.1341
 8756TIP3    H247684   3.825   4.011  13.529  0.1311  0.4566 -0.7514
 8757TIP3   OH247685   4.287   3.572   3.802  0.2824  0.6898  0.4412
 8757TIP3    H147686   4.192   3.578   3.799  0.2734  0.3602 -1.0179
 8757TIP3    H247687   4.312   3.617   3.882 -1.0386  1.7391  0.2944
 8758TIP3   OH247688   0.917   2.306  15.712 -0.0577  0.0644 -0.7569
 8758TIP3    H147689   0.953   2.217  15.703  1.6836  0.4042  1.7838
 8758TIP3    H247690   0.848   2.297  15.778 -0.0901  0.5633 -0.7217
 8759TIP3   OH247691   4.669   2.051   4.346 -0.1383 -0.2304  0.0493
 8759TIP3    H147692   4.748   2.027   4.296 -0.5780  2.4967 -2.1815
 8759TIP3    H247693   4.597   2.035   4.285 -1.0958 -0.2351  1.1603
 8760TIP3   OH247694   4.237   2.160   2.533  0.4466  0.0142  0.2983
 8760TIP3    H147695   4.250   2.071   2.501 -1.1186 -0.7730  1.6869
 8760TIP3    H247696   4.293   2.166   2.610 -2.2985 -1.2510  2.5930
 8761TIP3   OH247697   5.836   2.785  15.659  0.0394 -0.2241 -0.1564
 8761TIP3    H147698   5.764   2.722  15.671 -1.0691  0.9442 -0.4123
 8761TIP3    H247699   5.807   2.863  15.706  0.9170  0.4389 -0.6996
 8762TIP3   OH247700   1.468   4.368  11.400  0.0364  0.4294  0.0110
 8762TIP3    H147701   1.547   4.335  11.443 -0.5277  0.1472  0.8588
 8762TIP3    H247702   1.487   4.461  11.384  0.1669  0.6113  1.1120
 8763TIP3   OH247703   0.654   3.824   4.975 -0.1678 -0.3451 -0.5080
 8763TIP3    H147704   0.612   3.739   4.988 -1.0905  0.1528 -0.0826
 8763TIP3    H247705   0.587   3.877   4.932  1.1000 -0.4197 -2.6954
 8764TIP3   OH247706   2.493   4.079   1.093  0.0748 -0.9265 -0.3482
 8764TIP3    H147707   2.434   4.036   1.031 -0.3263  0.5804 -1.0739
 8764TIP3    H247708   2.461   4.169   1.097 -0.1163 -1.0470  2.3267
 8765TIP3   OH247709   4.838   5.481   5.067 -0.9757  0.3367  0.4646
 8765TIP3    H147710   4.880   5.567   5.060 -0.3770 -0.0704 -1.3033
 8765TIP3    H247711   4.810   5.476   5.159  1.5794  1.2121  1.3824
 8766TIP3   OH247712   2.976   6.483  14.793  0.5245 -0.1539 -0.0562
 8766TIP3    H147713   2.899   6.432  14.767  1.4636 -0.3134 -2.8456
 8766TIP3    H247714   2.943   6.573  14.801 -0.2312 -0.4565  0.4000
 8767TIP3   OH247715   3.187   3.481  14.514 -0.2085 -0.4237  0.0940
 8767TIP3    H147716   3.231   3.412  14.564  1.8439  0.1708 -0.7962
 8767TIP3    H247717   3.120   3.435  14.464 -0.3385 -1.4324  1.1398
 8768TIP3   OH247718   2.887   0.080   4.205 -0.2184  0.2812 -0.1589
 8768TIP3    H147719   2.801   0.101   4.241  0.4448  2.1767  0.4630
 8768TIP3    H247720   2.924   0.016   4.267 -1.6452 -1.5988 -1.1633
 8769TIP3   OH247721   0.496   4.211  13.096  0.2282  0.4324 -0.0168
 8769TIP3    H147722   0.433   4.224  13.025  0.5560  0.5913 -0.2806
 8769TIP3    H247723   0.562   4.278  13.082  0.2314  0.5416  0.5130
 8770TIP3   OH247724   4.723   5.373   5.813 -0.1061  0.2298  0.4647
 8770TIP3    H147725   4.770   5.309   5.866 -1.2790 -0.4595  0.7098
 8770TIP3    H247726   4.790   5.436   5.785  0.5889  0.4273  2.4712
 8771TIP3   OH247727   0.134   3.624   2.256  0.1867 -0.0410 -0.0279
 8771TIP3    H147728   0.201   3.684   2.224 -0.6568  1.1251  0.3438
 8771TIP3    H247729   0.134   3.552   2.192  0.4415  0.8928 -1.1085
 8772TIP3   OH247730   0.922   4.455   0.946  0.1883  0.5415 -0.1978
 8772TIP3    H147731   0.850   4.453   0.882 -0.4168 -0.7980  0.4833
 8772TIP3    H247732   0.946   4.363   0.958  0.9959  0.8606  0.7313
 8773TIP3   OH247733   4.912   1.234   5.627 -0.6618  0.0206 -0.2076
 8773TIP3    H147734   4.983   1.177   5.656 -1.7013 -0.6862  1.0264
 8773TIP3    H247735   4.832   1.188   5.651 -1.6076  0.2954 -2.4916
 8774TIP3   OH247736   5.928   6.270   1.081  0.5271 -0.5741 -0.0903
 8774TIP3    H147737   5.985   6.337   1.118 -0.2476  0.6458 -1.0100
 8774TIP3    H247738   5.846   6.316   1.064 -0.5534 -2.1307  0.6517
 8775TIP3   OH247739   5.811   3.995  16.868  0.5097 -0.2599  0.1200
 8775TIP3    H147740   5.775   4.046  16.941  1.5150 -0.0975  0.5216
 8775TIP3    H247741   5.834   3.911  16.906 -0.5378 -0.7949 -0.3995
 8776TIP3   OH247742   2.361   6.076   6.314 -0.6162  0.5741 -0.1682
 8776TIP3    H147743   2.342   6.095   6.222  1.9335  0.2829 -0.8127
 8776TIP3    H247744   2.290   6.017   6.341  0.1329 -1.7875 -2.8542
 8777TIP3   OH247745   5.035   5.443  16.814  0.1838 -0.2288  0.2238
 8777TIP3    H147746   4.950   5.445  16.857  1.2097  2.7482  2.3751
 8777TIP3    H247747   5.015   5.449  16.721 -2.0100  2.8994  0.7589
 8778TIP3   OH247748   4.897   6.055  16.528 -0.6563 -0.1891  0.4505
 8778TIP3    H147749   4.939   6.123  16.580  0.8317 -1.0906  0.4773
 8778TIP3    H247750   4.817   6.096  16.495 -0.2358  1.2766  1.1825
 8779TIP3   OH247751   3.990   0.273   2.922 -0.0176  0.3939 -0.3885
 8779TIP3    H147752   4.031   0.298   3.005  0.4652 -0.6108 -0.3127
 8779TIP3    H247753   3.931   0.346   2.902  1.3040  1.5681 -0.1745
 8780TIP3   OH247754   1.975   1.615   3.124 -0.2990 -0.5353 -0.2313
 8780TIP3    H147755   1.894   1.654   3.090 -0.3709 -0.6439 -0.1858
 8780TIP3    H247756   2.032   1.689   3.142 -0.9926 -0.3552  1.3077
 8781TIP3   OH247757   0.894   0.840  15.469  0.3567  0.1986 -0.3901
 8781TIP3    H147758   0.937   0.833  15.555 -1.2727 -0.6561  0.3907
 8781TIP3    H247759   0.902   0.933  15.447 -0.9374  0.8865  1.6698
 8782TIP3   OH247760   6.438   3.381  13.118 -0.3504 -0.3445  0.1581
 8782TIP3    H147761   6.343   3.388  13.107 -0.2795  0.3563 -0.0347
 8782TIP3    H247762   6.454   3.401  13.210 -0.2780  0.8258 -0.0895
 8783TIP3   OH247763   6.068   4.265  17.056 -0.1489  0.0395 -0.9671
 8783TIP3    H147764   6.065   4.337  17.120 -0.1120  0.1397 -1.0788
 8783TIP3    H247765   6.003   4.288  16.990 -0.3799 -0.1985 -0.8276
 8784TIP3   OH247766   0.333   2.681  17.056 -0.1485 -0.1341 -0.6337
 8784TIP3    H147767   0.254   2.707  17.008 -1.1975 -1.5743  0.2223
 8784TIP3    H247768   0.374   2.763  17.082 -2.3004  0.6993  0.3655
 8785TIP3   OH247769   1.950   1.325   0.665 -0.3806  0.2734  0.3317
 8785TIP3    H147770   2.022   1.355   0.720 -0.7459 -2.2896  2.4231
 8785TIP3    H247771   1.986   1.249   0.618 -1.2392 -0.0735  0.2163
 8786TIP3   OH247772   1.722   2.447   4.901  0.1121 -0.9635 -0.5648
 8786TIP3    H147773   1.733   2.352   4.902  0.5702 -0.9307 -1.3555
 8786TIP3    H247774   1.715   2.469   4.808 -1.3259 -0.3634 -0.3470
 8787TIP3   OH247775   0.303   6.590   1.055 -0.3742  0.0574  0.3151
 8787TIP3    H147776   0.264   6.591   1.143 -0.1925 -2.5630  0.5031
 8787TIP3    H247777   0.229   6.600   0.996 -0.6204  0.8145  0.7338
 8788TIP3   OH247778   2.292   3.036  12.679  0.1952 -0.1227 -0.0343
 8788TIP3    H147779   2.345   3.000  12.608  0.7375  0.4367  0.0731
 8788TIP3    H247780   2.355   3.055  12.749 -0.2357 -0.0310  0.3355
 8789TIP3   OH247781   1.677   2.919  17.203 -0.7339 -0.2390 -0.5136
 8789TIP3    H147782   1.587   2.917  17.170 -1.1898  0.0695  0.6429
 8789TIP3    H247783   1.684   2.841  17.258 -0.8658  0.6133  0.7570
 8790TIP3   OH247784   3.012   1.305  14.355  0.6383 -0.3367 -0.0200
 8790TIP3    H147785   2.934   1.353  14.383  1.0498  0.6671 -0.5360
 8790TIP3    H247786   3.011   1.225  14.408  0.2823  0.5358  1.3517
 8791TIP3   OH247787   3.653   2.408  13.138 -0.1660  0.3900 -0.1127
 8791TIP3    H147788   3.640   2.503  13.140 -0.1167  0.3885  0.7625
 8791TIP3    H247789   3.680   2.386  13.227  1.3232 -0.2499 -0.6919
 8792TIP3   OH247790   0.328   4.086  15.706  0.3308 -0.2494 -0.6904
 8792TIP3    H147791   0.269   4.102  15.780  0.3461 -0.3730 -0.6518
 8792TIP3    H247792   0.375   4.006  15.730 -0.5478 -0.9944 -1.3868
 8793TIP3   OH247793   6.427   2.370  13.695  0.0650 -0.4983 -0.6554
 8793TIP3    H147794   6.397   2.315  13.767 -1.3211  0.5451 -0.3918
 8793TIP3    H247795   6.502   2.418  13.730 -1.6034  1.2520  0.7187
 8794TIP3   OH247796   2.843   3.648  12.318  0.1934  0.2389  0.4083
 8794TIP3    H147797   2.831   3.593  12.241 -0.4136 -0.2999  0.8801
 8794TIP3    H247798   2.938   3.654  12.328  0.2767  0.3774 -0.4227
 8795TIP3   OH247799   2.755   2.417  12.116  0.1385  0.0275  0.2532
 8795TIP3    H147800   2.699   2.414  12.038  0.7416 -1.6172 -0.1676
 8795TIP3    H247801   2.772   2.510  12.130 -3.3881  0.7212  0.9363
 8796TIP3   OH247802   4.903   1.651   4.989  0.4164 -0.1142 -0.5788
 8796TIP3    H147803   4.980   1.656   5.045  0.3511  0.6034 -0.5495
 8796TIP3    H247804   4.869   1.741   4.985  2.0299  0.5328 -4.0106
 8797TIP3   OH247805   1.943   1.570  13.649  0.4126 -0.7495  0.5121
 8797TIP3    H147806   1.960   1.605  13.562  1.2553 -0.6789  0.6941
 8797TIP3    H247807   1.964   1.642  13.709 -0.0776 -0.8243  0.7807
 8798TIP3   OH247808   0.299   1.074  16.706 -0.6333  0.4383  0.2609
 8798TIP3    H147809   0.231   1.068  16.639 -2.1978  1.3687  1.6755
 8798TIP3    H247810   0.256   1.044  16.786  0.9507  0.0594  1.0063
 8799TIP3   OH247811   1.742   4.300   2.446 -0.0045 -0.5599 -0.2061
 8799TIP3    H147812   1.785   4.216   2.462  0.2741 -0.5353 -0.7977
 8799TIP3    H247813   1.804   4.349   2.393 -0.1842  0.0071  0.0995
 8800TIP3   OH247814   4.351   6.056   1.502 -0.1236 -0.1829 -0.7541
 8800TIP3    H147815   4.351   6.057   1.598  1.1725 -0.7069 -0.7231
 8800TIP3    H247816   4.304   6.135   1.477  2.1765  1.6455  0.3427
 8801TIP3   OH247817   3.909   0.715   3.030 -0.5234  0.6888  0.2272
 8801TIP3    H147818   3.887   0.658   2.956 -1.1388  1.3227 -0.0846
 8801TIP3    H247819   4.004   0.727   3.023 -0.8085  2.3811 -1.6776
 8802TIP3   OH247820   0.756   3.805  14.331  0.3863 -0.2038  0.1658
 8802TIP3    H147821   0.793   3.880  14.377  0.0701  1.2622 -1.8873
 8802TIP3    H247822   0.777   3.730  14.388  1.1846  1.3229  1.9931
 8803TIP3   OH247823   4.935   5.687  15.027  0.0768 -0.0427 -0.0947
 8803TIP3    H147824   4.873   5.694  14.954  0.3176  0.0818 -0.2923
 8803TIP3    H247825   5.019   5.667  14.984 -0.3308 -3.0899  0.3496
 8804TIP3   OH247826   1.922   4.442  17.002  0.3844 -0.5194 -0.5951
 8804TIP3    H147827   1.949   4.441  16.910 -2.1484 -0.8830 -1.3979
 8804TIP3    H247828   1.983   4.382  17.045  2.3410  0.5171 -1.7704
 8805TIP3   OH247829   5.547   5.996  12.214 -0.8538 -0.0499 -0.2983
 8805TIP3    H147830   5.505   5.930  12.159 -4.0597 -0.6018  2.5073
 8805TIP3    H247831   5.625   5.952  12.248 -0.2616 -0.5854 -2.1983
 8806TIP3   OH247832   4.016   4.903   1.617  0.6014  0.4183 -0.3627
 8806TIP3    H147833   3.925   4.919   1.640  0.6038 -0.0668  0.0197
 8806TIP3    H247834   4.014   4.880   1.524  0.2118 -0.4876 -0.1420
 8807TIP3   OH247835   0.459   3.638   0.845  0.1949 -0.0010  0.1304
 8807TIP3    H147836   0.403   3.715   0.862 -0.2307 -0.1850 -0.4259
 8807TIP3    H247837   0.500   3.656   0.760  0.4669 -0.1779  0.2213
 8808TIP3   OH247838   1.142   5.809   2.830 -0.4179 -0.3658 -0.3743
 8808TIP3    H147839   1.167   5.836   2.742 -1.0902  4.1281  0.5319
 8808TIP3    H247840   1.067   5.864   2.851 -0.2942 -1.2509  3.0123
 8809TIP3   OH247841   4.687   5.264  16.577 -0.6657 -0.0026 -0.7616
 8809TIP3    H147842   4.622   5.269  16.507 -0.0659  0.6340 -1.2846
 8809TIP3    H247843   4.683   5.350  16.619  0.1059  0.1795 -1.0474
 8810TIP3   OH247844   6.523   3.187  13.602 -0.1908  0.2978 -0.1108
 8810TIP3    H147845   6.551   3.099  13.629 -0.8723  0.0243 -0.2828
 8810TIP3    H247846   6.599   3.223  13.557  0.2441 -0.0369  0.3350
 8811TIP3   OH247847   0.070   1.449  12.047  0.5282  0.3723  0.5702
 8811TIP3    H147848   0.047   1.360  12.020  1.5138  0.9723 -2.6934
 8811TIP3    H247849  -0.007   1.481  12.094 -0.8011 -1.3814 -0.3002
 8812TIP3   OH247850   1.065   5.404  15.246  0.3938  0.1642  0.3040
 8812TIP3    H147851   1.027   5.399  15.159 -0.3613 -2.0168  0.7133
 8812TIP3    H247852   1.115   5.323  15.256  0.8153  0.5625  1.7420
 8813TIP3   OH247853   5.238   1.209   0.713 -0.4776 -0.0756 -0.2922
 8813TIP3    H147854   5.215   1.121   0.743 -2.0967  0.3590 -0.1555
 8813TIP3    H247855   5.234   1.263   0.792  2.7191 -0.1998  0.0773
 8814TIP3   OH247856   2.229   2.766   2.167 -0.0089  0.5153 -0.3117
 8814TIP3    H147857   2.318   2.766   2.130  0.0086  0.8880 -0.2742
 8814TIP3    H247858   2.226   2.845   2.221 -0.6552  0.9969 -1.0378
 8815TIP3   OH247859   6.366   5.098  13.867 -0.5960 -0.6806  0.0270
 8815TIP3    H147860   6.355   5.022  13.924 -2.0716  1.1227  2.3159
 8815TIP3    H247861   6.277   5.122  13.842 -0.1204  0.0761 -1.0059
 8816TIP3   OH247862   2.440   2.342   2.830 -0.5209 -0.0437  0.4310
 8816TIP3    H147863   2.526   2.374   2.857 -0.4693 -0.3852  0.6712
 8816TIP3    H247864   2.459   2.271   2.769 -0.6082 -1.1042  1.5968
 8817TIP3   OH247865   3.018   1.658   3.018  0.4368 -0.8482 -0.3306
 8817TIP3    H147866   3.068   1.704   3.085  0.7202  0.8643 -1.6433
 8817TIP3    H247867   3.033   1.565   3.036 -1.8860 -0.6908  3.7672
 8818TIP3   OH247868   2.409   6.008   2.262 -0.1634 -0.2628  0.6066
 8818TIP3    H147869   2.387   5.934   2.205 -1.3481 -0.3838  1.2054
 8818TIP3    H247870   2.345   6.075   2.240  1.0566  0.7245 -0.1183
 8819TIP3   OH247871   1.626   6.689  12.036 -0.4174  0.5817 -0.7658
 8819TIP3    H147872   1.671   6.706  12.119 -0.0889  1.9597 -1.1907
 8819TIP3    H247873   1.671   6.745  11.973 -0.2851 -0.8795 -2.0128
 8820TIP3   OH247874   2.177   1.243   0.512  0.5941  0.1425 -0.3741
 8820TIP3    H147875   2.173   1.190   0.433 -2.6502  0.9807 -0.9487
 8820TIP3    H247876   2.198   1.331   0.480  0.5524  0.2384 -0.1372
 8821TIP3   OH247877   3.968   3.824   0.954 -0.6182  0.8362  0.4344
 8821TIP3    H147878   3.913   3.869   1.018 -1.8760  1.2785 -0.9125
 8821TIP3    H247879   3.918   3.746   0.930 -0.1061  0.6144  0.0577
 8822TIP3   OH247880   5.104   2.313   1.636 -0.1612 -0.2537 -0.0600
 8822TIP3    H147881   5.156   2.384   1.674 -0.7348  1.1721 -1.7931
 8822TIP3    H247882   5.166   2.264   1.583 -0.2019  0.4256 -0.7639
 8823TIP3   OH247883   3.122   3.667  11.364  0.0646  0.1110  0.1677
 8823TIP3    H147884   3.149   3.752  11.400 -0.8227  1.1415 -1.4480
 8823TIP3    H247885   3.165   3.664  11.278  1.3522 -1.8277  0.8120
 8824TIP3   OH247886   2.076   4.180  14.657 -0.0711 -0.0085 -0.0196
 8824TIP3    H147887   2.130   4.171  14.578 -0.8243 -0.4366 -0.4914
 8824TIP3    H247888   1.986   4.176  14.626 -0.3947 -1.2409  0.9703
 8825TIP3   OH247889   0.308   1.801   1.128  0.0549 -0.3770 -0.0700
 8825TIP3    H147890   0.237   1.754   1.085 -1.1058  0.1942  1.1710
 8825TIP3    H247891   0.311   1.886   1.085 -2.3006  0.8841  2.0392
 8826TIP3   OH247892   3.808   1.168   3.016  0.4700 -0.6160  0.0062
 8826TIP3    H147893   3.860   1.109   3.070  0.2495 -0.9178 -0.1068
 8826TIP3    H247894   3.843   1.158   2.928  1.6470  0.7922  0.2796
 8827TIP3   OH247895   5.142   5.791   4.492 -0.2152  0.2714  0.3365
 8827TIP3    H147896   5.055   5.753   4.481  1.8026 -4.4350 -2.0098
 8827TIP3    H247897   5.185   5.734   4.555  1.3335  2.3609  1.2708
 8828TIP3   OH247898   0.687   0.878   2.277  0.4194  0.3122  0.2748
 8828TIP3    H147899   0.664   0.818   2.348 -0.2256  0.9369  0.6023
 8828TIP3    H247900   0.753   0.935   2.314  1.9435 -0.9278 -0.4026
 8829TIP3   OH247901   6.351   4.255  14.803 -0.5092  0.7425  0.3281
 8829TIP3    H147902   6.262   4.279  14.827 -0.1991  2.0428  0.2473
 8829TIP3    H247903   6.381   4.327  14.747 -0.1689 -0.7327 -1.5006
 8830TIP3   OH247904   6.337   5.521   2.198  0.0197 -0.0975 -0.1841
 8830TIP3    H147905   6.347   5.616   2.211  0.7850 -0.2060  0.0107
 8830TIP3    H247906   6.366   5.482   2.280 -2.2174 -0.4324  0.5249
 8831TIP3   OH247907   4.384   3.298   1.766  0.5771 -0.0276 -0.2686
 8831TIP3    H147908   4.422   3.318   1.681 -1.5460 -0.0522 -1.3061
 8831TIP3    H247909   4.442   3.232   1.804  3.2861  2.1781 -0.2816
 8832TIP3   OH247910   4.613   4.686   0.211  0.0541 -0.3025  0.2728
 8832TIP3    H147911   4.614   4.677   0.306 -1.0311  1.6903  0.5186
 8832TIP3    H247912   4.684   4.628   0.181 -0.3381 -1.8751  2.1640
 8833TIP3   OH247913   3.988   3.604  11.759 -0.0597  0.3674 -0.0685
 8833TIP3    H147914   3.952   3.519  11.784  0.4976  0.2943  0.5051
 8833TIP3    H247915   4.081   3.597  11.778 -0.0803  1.2655  0.4001
 8834TIP3   OH247916   0.406   3.895  15.348  0.5493 -0.0468 -0.4434
 8834TIP3    H147917   0.478   3.924  15.404 -1.0708  0.8347  1.3064
 8834TIP3    H247918   0.339   3.865  15.409 -0.1620 -1.9516 -2.0448
 8835TIP3   OH247919   5.390   2.017  15.522 -0.5157  0.0688  0.1512
 8835TIP3    H147920   5.373   2.038  15.614 -2.1404 -1.8188  0.3546
 8835TIP3    H247921   5.313   2.051  15.476 -0.0490  0.3668 -0.4123
 8836TIP3   OH247922   4.595   1.602   0.892  0.5444 -0.0715 -0.4340
 8836TIP3    H147923   4.567   1.513   0.913 -0.1033  0.3469  0.5311
 8836TIP3    H247924   4.612   1.600   0.798  0.6151 -1.2299 -0.4085
 8837TIP3   OH247925   6.312   4.519  16.675 -0.3127 -0.0641 -0.7453
 8837TIP3    H147926   6.237   4.524  16.617  0.0301 -2.1270 -1.4593
 8837TIP3    H247927   6.353   4.434  16.655  1.3851  0.3595  0.6057
 8838TIP3   OH247928   3.288   4.588  14.738  0.1113 -0.2112  0.0272
 8838TIP3    H147929   3.371   4.637  14.739  0.1081 -0.1964  1.2403
 8838TIP3    H247930   3.314   4.497  14.748  0.0133 -0.2698 -0.2524
 8839TIP3   OH247931   6.176   0.986   1.401 -0.0887 -0.7634  0.3220
 8839TIP3    H147932   6.169   1.079   1.378  1.8957 -0.9407 -1.2735
 8839TIP3    H247933   6.195   0.943   1.318 -1.6201 -2.7325  0.9238
 8840TIP3   OH247934   0.987   0.726  15.718  0.0558  0.4378  0.1717
 8840TIP3    H147935   1.035   0.762  15.793  0.0765  2.0233 -0.5703
 8840TIP3    H247936   1.000   0.631  15.725  1.1722  0.6491  1.4066
 8841TIP3   OH247937   3.888   0.440   1.282 -1.0526  0.8751 -0.1817
 8841TIP3    H147938   3.951   0.460   1.213  0.6262 -0.9243  0.7241
 8841TIP3    H247939   3.941   0.408   1.355 -2.9071  0.9788  1.2988
 8842TIP3   OH247940   0.729   4.277   3.134 -0.4808  0.3363  0.3936
 8842TIP3    H147941   0.636   4.265   3.156 -0.2569 -0.2551  1.0563
 8842TIP3    H247942   0.775   4.265   3.218  0.3120 -0.8776 -0.1877
 8843TIP3   OH247943   5.995   3.778  13.715  0.2507  0.1803  0.3524
 8843TIP3    H147944   6.032   3.852  13.667 -0.7012 -0.0652 -0.7921
 8843TIP3    H247945   6.066   3.714  13.718  0.4658  0.3786 -0.3480
 8844TIP3   OH247946   5.004   1.862  13.881  0.1935 -0.6637 -0.1069
 8844TIP3    H147947   5.055   1.858  13.800  0.5956 -2.8678  0.1934
 8844TIP3    H247948   5.053   1.923  13.937  1.5349 -1.3802 -0.4645
 8845TIP3   OH247949   4.824   4.716   1.535 -0.2520  0.6681  0.2891
 8845TIP3    H147950   4.880   4.678   1.467  0.6726  1.7110  0.4593
 8845TIP3    H247951   4.742   4.735   1.489 -0.6322 -1.1808  0.1201
 8846TIP3   OH247952   5.315   2.315  11.248  0.0368 -0.6638  0.3745
 8846TIP3    H147953   5.225   2.286  11.232 -0.7197  0.9705  1.3967
 8846TIP3    H247954   5.336   2.372  11.174  0.0272 -0.6296  0.3984
 8847TIP3   OH247955   5.513   4.209  16.472 -0.4371  0.1160 -0.1466
 8847TIP3    H147956   5.426   4.180  16.502  0.0564 -1.1439  0.1263
 8847TIP3    H247957   5.515   4.186  16.379 -0.7712  1.0822 -0.3957
 8848TIP3   OH247958   0.547   6.333   2.494 -0.0838  0.1085  0.1174
 8848TIP3    H147959   0.546   6.405   2.556 -0.6872  0.8602 -0.7324
 8848TIP3    H247960   0.527   6.374   2.409 -0.6069 -1.0678 -0.3582
 8849TIP3   OH247961   6.226   5.933  12.640  0.6626 -0.4227  0.1883
 8849TIP3    H147962   6.206   5.999  12.574  0.4953 -0.1693  0.4922
 8849TIP3    H247963   6.141   5.908  12.677  0.8688  0.6081  1.4336
 8850TIP3   OH247964   6.735   3.567   0.709 -0.0330  0.1870 -0.2906
 8850TIP3    H147965   6.767   3.478   0.723 -0.2066  0.2519  0.5456
 8850TIP3    H247966   6.736   3.608   0.795 -1.2906  0.5507 -0.4262
 8851TIP3   OH247967   2.693   1.078   6.851  0.1759 -0.0112  0.1744
 8851TIP3    H147968   2.650   0.999   6.819 -0.5375  0.2934  0.3618
 8851TIP3    H247969   2.787   1.060   6.841  0.0392 -1.0800  0.6916
 8852TIP3   OH247970   1.894   6.603   1.595  0.2842  0.4440  0.1616
 8852TIP3    H147971   1.824   6.632   1.538  0.6725  1.4876  0.1972
 8852TIP3    H247972   1.972   6.650   1.565  0.7772  0.0160  0.7140
 8853TIP3   OH247973   2.544   3.322  11.919 -0.6351 -0.0899  0.0164
 8853TIP3    H147974   2.594   3.394  11.879 -1.6022  0.3555 -0.4155
 8853TIP3    H247975   2.519   3.355  12.005  0.4401 -0.6042  0.5480
 8854TIP3   OH247976   5.336   0.708   4.506 -0.5198 -0.0228 -0.0223
 8854TIP3    H147977   5.402   0.640   4.519  0.5849  1.0368  0.0482
 8854TIP3    H247978   5.282   0.674   4.435  0.8067 -0.4136 -0.8921
 8855TIP3   OH247979   3.958   4.282   4.534 -0.3369  0.0708  0.6428
 8855TIP3    H147980   3.988   4.244   4.451 -1.1679  1.0370 -0.1148
 8855TIP3    H247981   3.996   4.224   4.601 -0.5636 -1.3700 -0.4217
 8856TIP3   OH247982   6.354   6.499  12.750 -0.4850  0.7029  0.3771
 8856TIP3    H147983   6.284   6.441  12.719 -0.2909  0.4950  0.3236
 8856TIP3    H247984   6.324   6.530  12.835  0.1482 -0.7848  1.1811
 8857TIP3   OH247985   5.571   1.239  15.887  0.3238  0.2180 -0.0625
 8857TIP3    H147986   5.653   1.278  15.857  0.7213 -1.9920 -2.1304
 8857TIP3    H247987   5.503   1.297  15.853  0.9685  1.2442  0.3638
 8858TIP3   OH247988   6.040   3.472  11.533  0.3637 -0.0950 -0.6918
 8858TIP3    H147989   6.132   3.495  11.534  0.7917 -1.6868  0.3588
 8858TIP3    H247990   6.019   3.461  11.440  1.3738 -0.2067 -0.9121
 8859TIP3   OH247991   2.797   3.122  11.112  0.1322  0.0296 -0.2812
 8859TIP3    H147992   2.718   3.170  11.090 -0.2081 -0.2559  0.3124
 8859TIP3    H247993   2.782   3.034  11.075 -0.8178 -0.7258  1.7773
 8860TIP3   OH247994   4.030   0.839   1.732  0.4025  0.1676 -0.8954
 8860TIP3    H147995   3.959   0.779   1.756 -0.4972  2.3132  2.5126
 8860TIP3    H247996   4.109   0.797   1.766  0.1439 -0.2659 -0.8241
 8861TIP3   OH247997   1.307   4.465  15.093 -0.4897  0.5416  0.5831
 8861TIP3    H147998   1.354   4.397  15.045 -1.2892  0.6503 -0.3832
 8861TIP3    H247999   1.285   4.424  15.177 -1.5338 -0.6249 -0.2308
 8862TIP3   OH248000   1.630   5.243  14.198 -0.0824 -0.6036 -0.3257
 8862TIP3    H148001   1.716   5.204  14.214 -0.8782 -2.1514  0.3706
 8862TIP3    H248002   1.575   5.211  14.270 -0.9853  1.2577 -0.1257
 8863TIP3   OH248003   6.190   6.510  13.647  0.0133  0.3797 -0.4198
 8863TIP3    H148004   6.143   6.450  13.589  0.8061  0.6488 -1.3609
 8863TIP3    H248005   6.143   6.504  13.730 -2.1294  1.1937 -1.5067
 8864TIP3   OH248006   1.790   3.578   1.768 -0.0877 -0.0903 -0.6980
 8864TIP3    H148007   1.813   3.640   1.836  0.0232  0.5757 -1.3247
 8864TIP3    H248008   1.858   3.511   1.772 -0.0766 -0.0495 -0.1699
 8865TIP3   OH248009   6.340   1.611   1.555 -0.8806 -0.2755 -0.0091
 8865TIP3    H148010   6.314   1.568   1.637 -0.2492  0.4131  0.5651
 8865TIP3    H248011   6.401   1.679   1.582 -0.6845 -0.0192 -1.0606
 8866TIP3   OH248012   3.561   3.395  11.915  0.5663 -0.4088 -0.9647
 8866TIP3    H148013   3.500   3.388  11.842  0.8080 -0.1146 -1.1994
 8866TIP3    H248014   3.596   3.484  11.909 -0.7978  0.2914  0.6205
 8867TIP3   OH248015   2.665   3.359   1.286  0.5594  0.1661 -0.5005
 8867TIP3    H148016   2.633   3.273   1.313 -1.9860  1.3334  0.4826
 8867TIP3    H248017   2.735   3.379   1.348  0.4033 -0.6995 -0.0273
 8868TIP3   OH248018   0.160   6.370  16.913  0.0218 -0.2254  0.1137
 8868TIP3    H148019   0.251   6.383  16.939  0.5037  2.5729 -2.3886
 8868TIP3    H248020   0.163   6.297  16.851  0.8482  0.6769 -0.9533
 8869TIP3   OH248021   3.025   3.083   3.976 -0.0989  0.3998  0.8815
 8869TIP3    H148022   3.094   3.133   3.933 -1.3826  1.6677  0.2180
 8869TIP3    H248023   2.961   3.148   4.004 -1.7899 -0.8247  0.0839
 8870TIP3   OH248024   2.761   5.629  13.757 -0.1145  0.2026  0.0776
 8870TIP3    H148025   2.817   5.695  13.716  0.6022 -0.2776  0.2593
 8870TIP3    H248026   2.717   5.585  13.685 -0.2214  0.5539 -0.0709
 8871TIP3   OH248027   5.356   3.083  14.769 -0.4247  0.2423 -1.2002
 8871TIP3    H148028   5.341   3.161  14.715  1.2208  0.1584 -1.8517
 8871TIP3    H248029   5.417   3.030  14.717  0.4947 -0.2658  0.3327
 8872TIP3   OH248030   4.006   5.121  12.608 -0.6449  0.0925  0.3598
 8872TIP3    H148031   4.047   5.203  12.634  0.2813 -0.1195 -0.3990
 8872TIP3    H248032   4.041   5.056  12.670 -1.0232  0.1783  0.6693
 8873TIP3   OH248033   0.898   1.686   4.710  0.1459  0.0671 -0.1418
 8873TIP3    H148034   0.868   1.694   4.619 -1.1967  0.3197  0.3043
 8873TIP3    H248035   0.960   1.758   4.721 -0.7378  0.8877 -0.4585
 8874TIP3   OH248036   1.519   2.148   1.698  0.2646 -0.6384  0.4380
 8874TIP3    H148037   1.462   2.090   1.648  0.9711 -0.0832 -1.0506
 8874TIP3    H248038   1.486   2.141   1.788 -0.1246 -2.7585  0.1842
 8875TIP3   OH248039   5.512   3.586   2.833 -0.6621 -0.0597 -0.2970
 8875TIP3    H148040   5.564   3.614   2.758 -2.7050 -1.9133 -2.5771
 8875TIP3    H248041   5.455   3.662   2.852 -1.7420 -0.3139 -2.2347
 8876TIP3   OH248042   3.103   5.467   0.190  0.8995  0.8178  0.4781
 8876TIP3    H148043   3.076   5.486   0.100 -1.8615  2.5920  1.5381
 8876TIP3    H248044   3.132   5.551   0.225  0.4170  0.5152  1.6733
 8877TIP3   OH248045   3.684   1.591  14.879 -0.2938  0.0713 -0.6070
 8877TIP3    H148046   3.682   1.677  14.920  0.6326 -0.8358  1.4896
 8877TIP3    H248047   3.608   1.546  14.914 -0.0229 -0.3958 -0.6101
 8878TIP3   OH248048   3.305   5.592  11.745 -1.1128 -0.1797  0.0812
 8878TIP3    H148049   3.364   5.517  11.753  0.6908  1.2970  1.5687
 8878TIP3    H248050   3.243   5.566  11.677  1.0526 -1.9828 -1.3802
 8879TIP3   OH248051   4.439   6.492   2.324 -0.1830 -0.3146 -0.1919
 8879TIP3    H148052   4.523   6.490   2.370  0.8163  0.4277 -1.8969
 8879TIP3    H248053   4.387   6.555   2.374  0.6344 -0.0202  0.3253
 8880TIP3   OH248054   2.823   2.949   2.327 -0.5235  0.1861  0.5004
 8880TIP3    H148055   2.810   2.889   2.401  1.9197 -2.6817 -1.1526
 8880TIP3    H248056   2.917   2.944   2.310 -0.8377  1.6416 -2.0931
 8881TIP3   OH248057   3.109   2.099   0.984  0.2411 -0.0190  0.2113
 8881TIP3    H148058   3.154   2.182   0.967  0.6375 -0.2414  0.1514
 8881TIP3    H248059   3.048   2.119   1.054 -0.7733  0.6971 -0.8393
 8882TIP3   OH248060   6.186   2.116   4.875  0.3329 -0.3864 -0.1103
 8882TIP3    H148061   6.176   2.029   4.913  1.6707 -1.3020 -1.7219
 8882TIP3    H248062   6.229   2.167   4.943 -0.7973 -0.8573  0.9889
 8883TIP3   OH248063   0.212   0.885  15.132  0.3155 -0.7303  0.3517
 8883TIP3    H148064   0.185   0.975  15.147 -0.2290 -1.2409  3.0481
 8883TIP3    H248065   0.185   0.865  15.043 -1.6838  1.0592  0.4903
 8884TIP3   OH248066   0.655   0.698  11.553 -0.2422 -0.3162 -0.5133
 8884TIP3    H148067   0.687   0.755  11.622 -2.4618  0.5815 -0.1277
 8884TIP3    H248068   0.659   0.751  11.474 -0.5867 -0.2466 -0.4871
 8885TIP3   OH248069   3.015   3.864   4.480  0.3683 -0.5097 -0.2260
 8885TIP3    H148070   3.079   3.935   4.485 -0.1972  0.1499 -1.6973
 8885TIP3    H248071   3.013   3.840   4.388 -0.3961 -1.5674  0.0463
 8886TIP3   OH248072   5.589   1.886   5.240  0.7077 -0.0822 -0.4773
 8886TIP3    H148073   5.577   1.947   5.313  0.2758  0.7027 -1.1832
 8886TIP3    H248074   5.630   1.809   5.279  0.6481  0.3968  0.5570
 8887TIP3   OH248075   2.713   3.693  12.565  0.0104  0.0689 -0.3825
 8887TIP3    H148076   2.740   3.702  12.473  0.5734 -0.1986 -0.2472
 8887TIP3    H248077   2.618   3.690  12.561  0.0458 -0.4575 -1.0094
 8888TIP3   OH248078   6.547   2.712  13.793  0.3913 -0.7671  0.5562
 8888TIP3    H148079   6.587   2.639  13.746  0.6974 -0.7224  0.7392
 8888TIP3    H248080   6.586   2.790  13.754 -2.4845 -0.4711 -2.0591
 8889TIP3   OH248081   0.464   6.187  12.989  0.4622 -0.3324  0.9608
 8889TIP3    H148082   0.444   6.275  12.956 -0.0778 -0.4378  1.0078
 8889TIP3    H248083   0.456   6.194  13.084  0.1335 -0.5053  0.9452
 8890TIP3   OH248084   5.124   5.064   4.066  0.0469  0.2298  0.3021
 8890TIP3    H148085   5.111   5.159   4.070 -2.1278 -0.0401  0.7736
 8890TIP3    H248086   5.092   5.039   3.979  0.7736 -0.0779  0.1125
 8891TIP3   OH248087   5.337   3.053   5.898  0.3060  0.3764  0.1531
 8891TIP3    H148088   5.243   3.071   5.907  0.2557  0.0334  0.2914
 8891TIP3    H248089   5.344   2.996   5.821  0.3505 -0.0343  0.4605
 8892TIP3   OH248090   2.817   5.704  12.564 -0.9158 -0.6628  0.3750
 8892TIP3    H148091   2.835   5.740  12.477  1.1295 -2.0652  0.1348
 8892TIP3    H248092   2.837   5.611  12.556 -1.3270 -0.9456  2.1829
 8893TIP3   OH248093   3.147   2.594   5.301 -0.1370  0.3605 -0.0234
 8893TIP3    H148094   3.114   2.632   5.383 -0.4274  0.3773 -0.1467
 8893TIP3    H248095   3.069   2.557   5.259  0.4134 -2.3614  1.1326
 8894TIP3   OH248096   4.198   1.291   2.502 -0.0956 -0.1452 -0.1322
 8894TIP3    H148097   4.208   1.264   2.410 -0.2819 -0.1897 -0.1403
 8894TIP3    H248098   4.273   1.253   2.546 -0.9462 -1.6905  0.0791
 8895TIP3   OH248099   1.325   0.031   5.831 -0.2911  0.2090 -0.0566
 8895TIP3    H148100   1.331   0.091   5.906 -2.9618  1.6874 -0.8909
 8895TIP3    H248101   1.233   0.006   5.829  0.1420 -1.3802 -1.7035
 8896TIP3   OH248102   3.176   5.863   4.991 -0.3866 -0.2897 -0.1828
 8896TIP3    H148103   3.123   5.933   5.029 -1.3400 -0.9399 -0.2971
 8896TIP3    H248104   3.201   5.808   5.065  1.4349  0.8281  0.1014
 8897TIP3   OH248105   4.264   0.077  13.990  0.7991  0.0307  0.1558
 8897TIP3    H148106   4.341   0.030  14.022  0.0754 -2.3232 -1.3226
 8897TIP3    H248107   4.254   0.151  14.050  2.8692 -0.8753  1.7243
 8898TIP3   OH248108   5.427   0.927   1.830  0.3875 -0.1235 -0.3368
 8898TIP3    H148109   5.333   0.943   1.838  0.8435  1.8842  1.8650
 8898TIP3    H248110   5.442   0.928   1.735 -1.5901  1.0170 -0.7136
 8899TIP3   OH248111   3.506   2.917  14.570  0.2439  0.2484  0.3121
 8899TIP3    H148112   3.493   2.829  14.533  0.1071  0.5522 -0.3820
 8899TIP3    H248113   3.599   2.921  14.591  0.5805  0.4677 -1.0957
 8900TIP3   OH248114   3.894   4.387  14.979 -0.4961  0.4181  0.4978
 8900TIP3    H148115   3.945   4.337  14.916  0.7658  0.3095  1.5593
 8900TIP3    H248116   3.958   4.439  15.027 -1.4031  0.5072  1.6849
 8901TIP3   OH248117   6.492   6.455   6.519 -0.0572 -0.3479  0.5199
 8901TIP3    H148118   6.426   6.473   6.452  0.5183  1.3970  0.3820
 8901TIP3    H248119   6.448   6.398   6.582 -1.6259  0.5916  0.3181
 8902TIP3   OH248120   6.697   4.925  11.228 -0.0076  0.1119  0.0804
 8902TIP3    H148121   6.753   4.850  11.209 -0.3583  0.4602 -2.8701
 8902TIP3    H248122   6.751   5.001  11.207 -0.3624  0.6236  0.9562
 8903TIP3   OH248123   2.324   4.042   0.564  0.2166 -0.3826 -0.8615
 8903TIP3    H148124   2.267   3.968   0.586 -2.1668  1.0072 -2.0090
 8903TIP3    H248125   2.405   4.024   0.612 -1.0567 -2.5939  0.6718
 8904TIP3   OH248126   1.379   4.253   4.968 -0.0821  0.3486 -0.1901
 8904TIP3    H148127   1.353   4.162   4.978  2.1515 -0.8952 -3.7643
 8904TIP3    H248128   1.473   4.253   4.986  0.4799  1.3022 -2.7116
 8905TIP3   OH248129   3.173   0.278   0.510 -0.8091  0.2401  0.0324
 8905TIP3    H148130   3.122   0.285   0.590 -1.5463  0.3027 -0.4347
 8905TIP3    H248131   3.241   0.345   0.520 -1.2096  0.6034  0.3797
 8906TIP3   OH248132   6.743   3.909  16.566  0.0147  0.6650  0.0330
 8906TIP3    H148133   6.741   3.969  16.641  0.3772  0.6374  0.0662
 8906TIP3    H248134   6.654   3.874  16.562  0.2222 -0.0139  1.0000
 8907TIP3   OH248135   6.147   4.348   2.513 -0.1933 -1.2761  0.0471
 8907TIP3    H148136   6.184   4.397   2.439 -0.7802 -1.7333 -0.5665
 8907TIP3    H248137   6.216   4.349   2.579 -0.6715  1.5817  0.6347
 8908TIP3   OH248138   6.640   3.538  15.095 -0.2245 -0.3105 -0.0522
 8908TIP3    H148139   6.568   3.528  15.033 -0.0468  1.2803 -0.5538
 8908TIP3    H248140   6.629   3.626  15.131  1.2587 -0.1765  0.1370
 8909TIP3   OH248141   3.725   3.514  13.367  0.0022 -0.1169 -0.2708
 8909TIP3    H148142   3.773   3.528  13.285  0.8153  0.6878  0.3401
 8909TIP3    H248143   3.755   3.582  13.426 -1.1215 -0.2343  0.4825
 8910TIP3   OH248144   6.442   4.333   6.317 -0.2915  0.2572  0.3096
 8910TIP3    H148145   6.472   4.272   6.385 -0.6635 -0.0220  0.2292
 8910TIP3    H248146   6.425   4.276   6.241  0.6254  0.6265 -0.1911
 8911TIP3   OH248147   5.997   0.033  17.043  0.0661 -0.0638 -0.1174
 8911TIP3    H148148   5.941   0.081  16.981  3.2625  0.7207 -2.6649
 8911TIP3    H248149   5.998  -0.057  17.009  0.9480  0.1210 -0.6213
 8912TIP3   OH248150   6.600   0.374  15.171  0.0697  0.0514  0.5078
 8912TIP3    H148151   6.602   0.279  15.182  0.2483  0.2406  2.3537
 8912TIP3    H248152   6.683   0.395  15.126  1.0821 -0.4633  2.0717
 8913TIP3   OH248153   2.457   3.636   3.796 -0.3558  0.5774 -0.2313
 8913TIP3    H148154   2.531   3.587   3.761 -0.0673  0.0469  1.0529
 8913TIP3    H248155   2.380   3.599   3.751  0.1709  1.5937 -2.0730
 8914TIP3   OH248156   5.316   3.540  14.712  0.5407 -0.1086  0.2086
 8914TIP3    H148157   5.396   3.522  14.761  0.7084 -0.4147 -0.1768
 8914TIP3    H248158   5.323   3.487  14.633  0.7125  1.1266 -0.6222
 8915TIP3   OH248159   3.845   0.600   1.757 -0.3251  0.3359 -0.1347
 8915TIP3    H148160   3.770   0.552   1.794  1.0243 -0.1641  2.1707
 8915TIP3    H248161   3.919   0.542   1.772  0.7414  1.4224 -1.0816
 8916TIP3   OH248162   6.247   4.342  13.666  0.4018  0.4587 -0.2324
 8916TIP3    H148163   6.187   4.268  13.682  0.8777 -0.2885 -1.6876
 8916TIP3    H248164   6.264   4.338  13.571  1.4537  1.6641 -0.1112
 8917TIP3   OH248165   2.815   0.219   3.272 -0.1638  0.0446 -0.4536
 8917TIP3    H148166   2.854   0.206   3.185  1.7619  0.9504  0.2180
 8917TIP3    H248167   2.761   0.141   3.286  1.2326 -1.1888 -1.5577
 8918TIP3   OH248168   0.803   0.142  14.872  0.0334  0.4423  0.0067
 8918TIP3    H148169   0.770   0.093  14.948  0.1754 -0.0942 -0.2770
 8918TIP3    H248170   0.748   0.221  14.870 -0.9369 -0.2214 -0.1832
 8919TIP3   OH248171   2.939   4.165  12.211  0.2275  0.5417 -0.5381
 8919TIP3    H148172   3.001   4.207  12.152 -0.2440  1.0616 -0.6721
 8919TIP3    H248173   2.870   4.230  12.224 -0.4244 -0.1204 -0.5985
 8920TIP3   OH248174   4.219   1.108   3.578  0.2559 -0.1780 -0.5641
 8920TIP3    H148175   4.191   1.128   3.667  2.6788  0.1261  0.1816
 8920TIP3    H248176   4.281   1.036   3.587 -2.5710 -3.1410 -2.4764
 8921TIP3   OH248177   5.977   5.993  13.252  0.1247  0.3451  0.1339
 8921TIP3    H148178   6.045   5.946  13.302  1.7385  0.5289 -1.7650
 8921TIP3    H248179   6.006   5.987  13.161 -2.5820  0.2329 -0.8112
 8922TIP3   OH248180   2.073   3.100   3.469  0.5377  0.2289 -0.4540
 8922TIP3    H148181   2.021   3.039   3.416 -0.7756  0.3727  0.5978
 8922TIP3    H248182   2.067   3.183   3.422 -1.3429  0.5724  0.2805
 8923TIP3   OH248183   3.106   5.861  12.567 -0.4005 -0.4502  0.3590
 8923TIP3    H148184   3.095   5.944  12.614  0.6841  0.7288 -1.3099
 8923TIP3    H248185   3.045   5.801  12.609 -1.6171  1.3337  1.2994
 8924TIP3   OH248186   1.399   2.934   3.488 -0.6595  0.0439  0.2864
 8924TIP3    H148187   1.335   3.004   3.478  0.8637  1.3532 -0.9446
 8924TIP3    H248188   1.458   2.944   3.413  1.4777 -0.5365  1.7708
 8925TIP3   OH248189   2.227   3.747  16.238 -0.0160  0.1186  0.3517
 8925TIP3    H148190   2.281   3.683  16.193  2.0028  2.0433 -0.1824
 8925TIP3    H248191   2.181   3.697  16.306  0.7002 -1.9902 -0.6399
 8926TIP3   OH248192   0.088   0.117  12.322  0.2025 -0.3509 -0.3210
 8926TIP3    H148193   0.102   0.173  12.398  2.4059  0.8511 -1.5284
 8926TIP3    H248194   0.064   0.177  12.251  2.3264 -0.8497 -1.5682
 8927TIP3   OH248195   4.078   3.582   3.446 -0.5686 -0.1239  0.5114
 8927TIP3    H148196   4.126   3.532   3.380  0.9382  1.1012  0.6477
 8927TIP3    H248197   3.986   3.556   3.434 -0.3613  0.1805 -2.1691
 8928TIP3   OH248198   1.847   6.168  10.381  0.5401  0.0255 -0.2187
 8928TIP3    H148199   1.786   6.094  10.376  0.8079 -0.2966  0.9362
 8928TIP3    H248200   1.932   6.129  10.362  0.6519  0.0644  0.1852
 8929TIP3   OH248201   5.435   0.290   1.406  0.2573 -0.8939 -0.3926
 8929TIP3    H148202   5.520   0.270   1.446 -0.1085  0.3787  1.1188
 8929TIP3    H248203   5.375   0.226   1.443 -0.4880  1.3963  2.8362
 8930TIP3   OH248204   4.007   4.510   3.094  0.6125  0.9638 -0.3191
 8930TIP3    H148205   3.915   4.484   3.087  0.2845  1.7681  0.7455
 8930TIP3    H248206   4.042   4.454   3.164  1.6915 -1.2572 -2.4787
 8931TIP3   OH248207   3.064   2.601  14.032  0.1484 -0.7440 -0.7347
 8931TIP3    H148208   3.049   2.508  14.050  0.2836 -0.9099 -1.4186
 8931TIP3    H248209   3.159   2.612  14.039  0.2514 -0.9068 -1.7040
 8932TIP3   OH248210   3.175   1.926  16.066 -0.0509  0.2619  0.3055
 8932TIP3    H148211   3.136   1.862  16.006  0.3646 -0.2183  0.5461
 8932TIP3    H248212   3.151   2.011  16.029 -0.6499 -0.0296  0.0120
 8933TIP3   OH248213   3.340   3.548  10.591  0.1351 -0.4461  0.0641
 8933TIP3    H148214   3.268   3.492  10.560  0.6703 -0.8894 -0.4161
 8933TIP3    H248215   3.343   3.533  10.685 -2.2085  1.7242  0.5922
 8934TIP3   OH248216   2.308   6.350  11.504 -0.7769 -0.0695  0.0295
 8934TIP3    H148217   2.360   6.318  11.431  0.5391  2.6335 -0.3558
 8934TIP3    H248218   2.343   6.304  11.581  0.8896  0.2601 -0.4876
 8935TIP3   OH248219   0.968   2.489   3.709  0.2400 -0.1372  0.3003
 8935TIP3    H148220   1.033   2.558   3.721  0.3771 -0.0357 -0.9187
 8935TIP3    H248221   0.919   2.487   3.792  0.4547  1.1828  0.4753
 8936TIP3   OH248222   5.177   5.769  14.258  0.4931 -0.2174  0.0420
 8936TIP3    H148223   5.139   5.852  14.287 -3.0645 -0.9273 -1.9470
 8936TIP3    H248224   5.193   5.782  14.164  1.0272 -1.4144 -0.0457
 8937TIP3   OH248225   0.788   5.944  11.947 -0.7625  0.4108 -0.1643
 8937TIP3    H148226   0.773   5.849  11.950 -1.6614  0.5569  2.7080
 8937TIP3    H248227   0.846   5.956  11.872 -0.8990 -2.3666 -0.8299
 8938TIP3   OH248228   0.281   2.617  13.415 -0.3698 -0.2844  0.2567
 8938TIP3    H148229   0.257   2.672  13.341 -0.3010 -0.1198  0.3556
 8938TIP3    H248230   0.373   2.637  13.431 -0.6112  0.3211  0.9330
 8939TIP3   OH248231   4.626   6.421  17.246 -0.0250 -0.0567  0.5966
 8939TIP3    H148232   4.616   6.353  17.313  2.0506 -0.0074  1.0143
 8939TIP3    H248233   4.700   6.473  17.275  0.5007  0.3918 -1.3947
 8940TIP3   OH248234   6.636   4.292  11.244 -0.0829  0.8301  0.2790
 8940TIP3    H148235   6.648   4.213  11.192  1.5341  1.2280 -0.0093
 8940TIP3    H248236   6.548   4.322  11.222 -0.1336 -0.0398 -0.7943
 8941TIP3   OH248237   0.910   2.026   3.689  0.1182 -0.5187 -0.4009
 8941TIP3    H148238   0.963   2.105   3.679 -1.1758  0.4262 -0.0114
 8941TIP3    H248239   0.841   2.035   3.623 -0.9858 -0.5127  0.7227
 8942TIP3   OH248240   5.391   2.087   3.427  0.2399 -0.2196  0.0403
 8942TIP3    H148241   5.396   2.160   3.366 -2.1326 -0.8749 -1.0595
 8942TIP3    H248242   5.451   2.022   3.392  0.2800  0.1311 -0.5563
 8943TIP3   OH248243   1.098   0.805  16.214  0.2381 -0.2542 -0.6383
 8943TIP3    H148244   1.178   0.794  16.265 -0.5163 -1.7232  0.3068
 8943TIP3    H248245   1.088   0.900  16.204  0.7155  0.0618  1.5031
 8944TIP3   OH248246   3.879   1.517  16.922 -0.4584  0.8651 -0.7411
 8944TIP3    H148247   3.931   1.532  16.843  1.1692 -0.4909  0.0225
 8944TIP3    H248248   3.839   1.432  16.909 -0.1235  0.5990 -0.0846
 8945TIP3   OH248249   5.771   5.925  13.944  0.0208  0.2314  0.1896
 8945TIP3    H148250   5.795   5.943  13.852  1.0332  1.4346  0.6565
 8945TIP3    H248251   5.824   5.849  13.968 -0.1127  0.0220 -0.1774
 8946TIP3   OH248252   6.034   3.618  15.890 -0.0180 -0.1538  0.2979
 8946TIP3    H148253   6.004   3.681  15.824  0.2429 -2.0390 -1.7393
 8946TIP3    H248254   6.124   3.644  15.909  0.6747 -0.8393 -1.8086
 8947TIP3   OH248255   3.431   4.088   1.862 -0.2596 -0.0448 -0.4159
 8947TIP3    H148256   3.466   4.009   1.902  0.1005  0.1379 -0.3617
 8947TIP3    H248257   3.348   4.103   1.906  0.0941  0.1107  0.2202
 8948TIP3   OH248258   2.043   3.803   0.819  0.3712  0.0123  0.3932
 8948TIP3    H148259   2.022   3.709   0.826 -2.0755  0.4829  0.5280
 8948TIP3    H248260   2.101   3.809   0.743  0.5792 -1.6034  0.3800
 8949TIP3   OH248261   6.614   1.772   3.852 -0.0843  0.4135 -0.4629
 8949TIP3    H148262   6.651   1.770   3.940  0.6595 -1.7023 -0.7540
 8949TIP3    H248263   6.522   1.793   3.864  0.4822  2.5561  0.5705
 8950TIP3   OH248264   3.759   2.555   6.023  0.2700 -0.0238  0.3755
 8950TIP3    H148265   3.703   2.630   6.005  0.1159 -0.4563 -1.0609
 8950TIP3    H248266   3.733   2.526   6.110  1.5691  2.6385  1.7894
 8951TIP3   OH248267   3.155   6.680  17.016  0.3060  0.0817 -0.1301
 8951TIP3    H148268   3.152   6.593  16.977  0.3232 -0.2913  0.6713
 8951TIP3    H248269   3.096   6.733  16.962  0.2626 -0.4348 -0.5939
 8952TIP3   OH248270   3.816   5.248  15.088 -0.0200  0.0687  0.2673
 8952TIP3    H148271   3.776   5.187  15.025  0.9097 -1.2470  0.9249
 8952TIP3    H248272   3.834   5.327  15.036  2.1898 -1.5281 -1.5960
 8953TIP3   OH248273   1.421   2.123  12.191  0.5662 -0.0697  0.0083
 8953TIP3    H148274   1.455   2.036  12.174 -0.2580 -0.3236 -0.3891
 8953TIP3    H248275   1.403   2.160  12.105  0.8158  0.4536  0.1766
 8954TIP3   OH248276   3.974   3.286  15.538  0.9071 -0.0326 -0.1896
 8954TIP3    H148277   4.049   3.285  15.478 -0.5419  2.4619 -2.2724
 8954TIP3    H248278   3.926   3.365  15.513 -0.9668 -0.0724  2.9096
 8955TIP3   OH248279   3.995   3.122   5.040  0.4186 -0.0944 -0.0629
 8955TIP3    H148280   4.082   3.098   5.071  0.7959 -0.2413 -1.1941
 8955TIP3    H248281   3.950   3.038   5.029 -0.5095  0.0280  2.1997
 8956TIP3   OH248282   2.765   4.931   5.700  0.2867  0.4187 -0.4358
 8956TIP3    H148283   2.743   5.022   5.683 -0.1059  0.1403 -1.5558
 8956TIP3    H248284   2.728   4.883   5.625  1.5054 -0.5144 -0.4733
 8957TIP3   OH248285   1.841   4.855   1.720  0.0561  0.1590 -0.2303
 8957TIP3    H148286   1.863   4.890   1.633  0.8196  0.2573 -0.0076
 8957TIP3    H248287   1.838   4.933   1.777  0.8158 -0.0215  0.0754
 8958TIP3   OH248288   3.388   5.375  11.548 -0.3579 -0.5937 -0.0002
 8958TIP3    H148289   3.303   5.414  11.527 -1.0717 -1.0707  1.8503
 8958TIP3    H248290   3.368   5.288  11.582  1.0707 -1.7356 -1.8711
 8959TIP3   OH248291   5.747   3.228  11.008 -0.0392 -0.5724  0.2624
 8959TIP3    H148292   5.721   3.197  11.094  0.5560  1.1892  1.1193
 8959TIP3    H248293   5.842   3.229  11.010 -0.0071  1.8040  0.5319
 8960TIP3   OH248294   0.099   4.302   5.003 -0.3792  0.1591 -0.0016
 8960TIP3    H148295   0.091   4.210   4.977  0.2258  0.5338 -1.6759
 8960TIP3    H248296   0.038   4.312   5.076 -0.5126 -1.5488  0.1625
 8961TIP3   OH248297   3.861   4.021  16.464  0.1707  0.4677  0.5687
 8961TIP3    H148298   3.937   4.060  16.421 -0.1405  1.2334  0.6919
 8961TIP3    H248299   3.786   4.057  16.416 -0.1343  0.2396  0.8716
 8962TIP3   OH248300   3.931   4.306   1.332  0.2895 -0.0293  0.8033
 8962TIP3    H148301   3.969   4.220   1.349  1.5720  0.2365 -0.5119
 8962TIP3    H248302   4.006   4.364   1.322 -0.5448  1.1373  1.0920
 8963TIP3   OH248303   1.870   2.249   5.185  0.1597 -0.1920  0.6078
 8963TIP3    H148304   1.800   2.293   5.231 -0.0456  0.2795 -0.1423
 8963TIP3    H248305   1.894   2.308   5.113  1.7481 -0.0464  1.2031
 8964TIP3   OH248306   0.894   3.445  16.826 -0.0686  0.0406  0.2191
 8964TIP3    H148307   0.916   3.537  16.811  0.5054 -0.2779 -1.0437
 8964TIP3    H248308   0.974   3.406  16.861 -0.4907  0.1231  1.3358
 8965TIP3   OH248309   5.264   6.621   5.972 -0.2981 -0.6028 -0.1535
 8965TIP3    H148310   5.294   6.533   5.997 -3.8071 -1.8505  0.2436
 8965TIP3    H248311   5.281   6.675   6.050  1.3401 -1.0022 -0.1835
 8966TIP3   OH248312   3.255   2.881  13.969  0.4712  0.1088 -0.0657
 8966TIP3    H148313   3.287   2.792  13.953  0.3017  0.2985 -1.6441
 8966TIP3    H248314   3.160   2.870  13.980  0.6211 -0.0540  1.1252
 8967TIP3   OH248315   4.500   3.332  15.847  0.5001 -0.1676  0.8522
 8967TIP3    H148316   4.430   3.397  15.845 -0.8561 -1.4790 -2.9653
 8967TIP3    H248317   4.458   3.252  15.881  0.7577 -0.3612  0.7203
 8968TIP3   OH248318   4.499   3.266  14.981 -0.6359  0.5990  0.5877
 8968TIP3    H148319   4.578   3.227  14.945 -1.1801  1.9648 -2.3897
 8968TIP3    H248320   4.446   3.192  15.009  0.9238 -0.4150  0.9768
 8969TIP3   OH248321   6.614   5.279   4.732  0.0746  0.7126  0.4454
 8969TIP3    H148322   6.588   5.205   4.787  1.0280  0.1460  0.1560
 8969TIP3    H248323   6.550   5.279   4.660  0.4974 -0.3017  0.0443
 8970TIP3   OH248324   2.521   4.737  16.365 -0.1482 -0.7126 -0.4263
 8970TIP3    H148325   2.499   4.666  16.425  0.4979 -0.8432 -0.3299
 8970TIP3    H248326   2.479   4.814  16.402  0.1271 -0.8195  0.1240
 8971TIP3   OH248327   3.095   4.161   0.091  0.0162  0.5509 -0.3043
 8971TIP3    H148328   3.115   4.255   0.101  0.3751  0.9512 -3.6001
 8971TIP3    H248329   3.000   4.158   0.079 -0.3825  0.1131  2.4555
 8972TIP3   OH248330   1.359   5.534   3.669 -0.8024  0.5585 -0.5648
 8972TIP3    H148331   1.270   5.552   3.641 -1.4632 -0.3605  0.8545
 8972TIP3    H248332   1.350   5.479   3.746  1.0010  0.3101 -0.4766
 8973TIP3   OH248333   5.221   4.667   5.587  0.6867 -0.2870 -0.0312
 8973TIP3    H148334   5.249   4.703   5.503  0.6457 -0.3798 -0.0844
 8973TIP3    H248335   5.205   4.574   5.570 -0.2301 -0.1209 -0.1536
 8974TIP3   OH248336   2.453   2.816   0.765  0.2449 -0.3076  0.2192
 8974TIP3    H148337   2.362   2.828   0.792  0.3815  1.6224 -0.0899
 8974TIP3    H248338   2.494   2.901   0.777  1.5939 -0.7021 -1.1946
 8975TIP3   OH248339   0.839   4.006   0.823  0.3382  0.3203 -0.2846
 8975TIP3    H148340   0.825   3.975   0.733 -1.2584 -1.4954  0.5297
 8975TIP3    H248341   0.787   4.086   0.829 -1.3571 -0.7308 -0.3808
 8976TIP3   OH248342   5.933   6.569   0.380 -0.2584  0.2381 -0.0727
 8976TIP3    H148343   5.928   6.477   0.356 -0.8251  0.1870  0.2126
 8976TIP3    H248344   6.018   6.598   0.349  0.4280 -0.6852  0.8775
 8977TIP3   OH248345   4.255   5.283  12.313  0.2061 -0.5981 -0.0555
 8977TIP3    H148346   4.182   5.314  12.367  0.5422 -0.7188  0.4729
 8977TIP3    H248347   4.312   5.237  12.374  0.9639 -0.0969 -0.3775
 8978TIP3   OH248348   1.787   1.031   4.625  0.2234 -0.0112  0.3415
 8978TIP3    H148349   1.745   1.109   4.588 -0.3788 -1.8230 -3.2889
 8978TIP3    H248350   1.718   0.965   4.627  1.0223 -0.8694  2.0895
 8979TIP3   OH248351   2.049   5.895  12.008 -0.3485  0.1534 -0.0685
 8979TIP3    H148352   2.076   5.843  11.933  0.5936  2.1376 -1.1663
 8979TIP3    H248353   2.130   5.933  12.042 -1.0680  1.4026  0.2995
 8980TIP3   OH248354   3.158   0.613  16.352  0.5200 -0.2319  0.1771
 8980TIP3    H148355   3.227   0.548  16.344  1.1661  0.4532  0.0646
 8980TIP3    H248356   3.183   0.666  16.428 -1.0163 -1.3032  1.4789
 8981TIP3   OH248357   6.261   0.874   4.598  0.4344 -0.3804  0.0822
 8981TIP3    H148358   6.298   0.857   4.511  1.4964 -0.1093  0.4692
 8981TIP3    H248359   6.320   0.938   4.637 -0.1260 -0.3780  0.9447
 8982TIP3   OH248360   2.230   0.589  11.384 -0.3452  0.3838 -0.3903
 8982TIP3    H148361   2.216   0.597  11.478  1.1677  1.8068 -0.2468
 8982TIP3    H248362   2.322   0.566  11.375 -0.6167 -0.3390 -1.5205
 8983TIP3   OH248363   5.643   0.144  16.069 -0.1406 -0.4857  0.1487
 8983TIP3    H148364   5.609   0.057  16.089 -0.6163 -0.4941 -0.6654
 8983TIP3    H248365   5.592   0.173  15.993 -0.4920  0.8010  0.8475
 8984TIP3   OH248366   3.972   1.764  12.546  0.1877  0.2029  0.0398
 8984TIP3    H148367   3.986   1.791  12.455 -1.2069  0.3034 -0.1617
 8984TIP3    H248368   4.013   1.677  12.551 -3.5812 -1.9714 -2.0267
 8985TIP3   OH248369   6.494   6.058   0.996 -0.1221  0.5638 -0.4249
 8985TIP3    H148370   6.477   6.142   0.954  0.3989 -0.2648 -2.4378
 8985TIP3    H248371   6.407   6.018   1.004 -0.0996 -0.1196 -2.7613
 8986TIP3   OH248372   5.755   3.853  14.162  0.0107 -0.1040  0.0779
 8986TIP3    H148373   5.700   3.931  14.157  0.0576  0.0078  1.0908
 8986TIP3    H248374   5.698   3.785  14.196 -1.5725 -2.0485 -5.3888
 8987TIP3   OH248375   3.953   3.742  11.127 -0.1391 -0.0933 -0.4853
 8987TIP3    H148376   3.979   3.802  11.058 -0.9993  1.1107  0.2039
 8987TIP3    H248377   4.023   3.676  11.130  1.3548  1.4353 -0.5787
 8988TIP3   OH248378   6.234   2.354   1.583  0.1057  0.9637 -0.7887
 8988TIP3    H148379   6.164   2.316   1.635  0.5531  0.1200 -0.7963
 8988TIP3    H248380   6.221   2.449   1.591 -0.1695  0.8406  0.3870
 8989TIP3   OH248381   1.513   0.634  15.942 -0.4137 -0.1630 -0.5747
 8989TIP3    H148382   1.595   0.614  15.987 -0.3515 -1.1928 -1.0902
 8989TIP3    H248383   1.506   0.729  15.944 -0.8160 -0.1909  2.2491
 8990TIP3   OH248384   4.748   1.983  13.904 -0.1319 -0.0047 -0.2324
 8990TIP3    H148385   4.715   1.975  13.815  0.2545 -1.9786 -0.2490
 8990TIP3    H248386   4.830   1.933  13.904 -0.0541  0.0667  1.1943
 8991TIP3   OH248387   6.605   1.072   1.305  0.0584  0.0765  0.1466
 8991TIP3    H148388   6.515   1.066   1.271  0.3901 -2.4142 -0.4693
 8991TIP3    H248389   6.603   1.024   1.388  0.9087 -0.4383 -0.1152
 8992TIP3   OH248390   3.082   0.622  13.752 -0.0086 -0.2257  0.1373
 8992TIP3    H148391   3.084   0.637  13.658  1.4893  0.0316  0.1830
 8992TIP3    H248392   2.992   0.595  13.771  0.1295 -2.0565 -1.6180
 8993TIP3   OH248393   1.554   6.499   6.481 -0.6497 -0.4226  0.3674
 8993TIP3    H148394   1.610   6.435   6.525  0.7517  0.7902  0.3971
 8993TIP3    H248395   1.610   6.538   6.414 -1.7879  0.0750 -0.3211
 8994TIP3   OH248396   3.115   3.730  12.316 -0.1300  0.5026 -0.7899
 8994TIP3    H148397   3.164   3.713  12.396  0.2709  3.7653 -0.1848
 8994TIP3    H248398   3.162   3.681  12.248  0.1364 -1.4966  0.7496
 8995TIP3   OH248399   0.710   0.711   3.388  0.0822 -0.2206 -0.3899
 8995TIP3    H148400   0.760   0.661   3.324  1.8769 -0.0917  0.8556
 8995TIP3    H248401   0.681   0.789   3.341  0.8429 -0.4178 -1.2053
 8996TIP3   OH248402   5.879   3.746   5.459  0.5309  0.2863  0.3114
 8996TIP3    H148403   5.945   3.780   5.520  2.1742 -2.9250  0.5183
 8996TIP3    H248404   5.820   3.694   5.514 -1.6866  2.2098 -0.0574
 8997TIP3   OH248405   3.072   1.568   6.175 -0.1118 -0.3785  0.5331
 8997TIP3    H148406   3.025   1.584   6.257  1.0902  0.3758  1.0894
 8997TIP3    H248407   3.119   1.486   6.190  1.4569  0.6169  1.2465
 8998TIP3   OH248408   5.475   6.580   0.819  0.2437 -0.7273  0.2559
 8998TIP3    H148409   5.489   6.673   0.840 -1.2245 -0.0177 -1.5734
 8998TIP3    H248410   5.558   6.538   0.840  1.2888  1.1884  0.2225
 8999TIP3   OH248411   0.760   6.697   5.430 -0.4520  0.1876 -0.1897
 8999TIP3    H148412   0.665   6.705   5.415 -0.7240 -2.0757  0.0093
 8999TIP3    H248413   0.783   6.611   5.396  1.0363 -0.4088  2.0518
 9000TIP3   OH248414   0.884   2.955  13.827  0.4147  0.3777  0.0583
 9000TIP3    H148415   0.841   2.999  13.900 -0.5479 -0.8599  0.2569
 9000TIP3    H248416   0.837   2.872  13.817  0.6222  0.4390 -1.8552
 9001TIP3   OH248417   6.213   0.382   1.627 -0.5568  0.3771  0.2676
 9001TIP3    H148418   6.265   0.304   1.609 -0.1677  0.1664  2.0288
 9001TIP3    H248419   6.275   0.455   1.620 -0.1835  0.2069  1.5479
 9002TIP3   OH248420   0.396   5.921  15.415 -0.8683  0.5661 -0.3377
 9002TIP3    H148421   0.377   5.836  15.455 -1.3813  0.3245 -1.0690
 9002TIP3    H248422   0.334   5.928  15.342 -0.0600  1.0551 -1.0028
 9003TIP3   OH248423   1.325   2.687  14.436 -0.2637 -0.0886 -0.7233
 9003TIP3    H148424   1.264   2.631  14.483  0.3969 -0.3240 -0.1334
 9003TIP3    H248425   1.323   2.655  14.345 -0.3834 -0.6351 -0.5298
 9004TIP3   OH248426   2.189   3.413  14.916 -0.4204  0.6920 -0.1668
 9004TIP3    H148427   2.109   3.369  14.888 -0.0167  0.0587 -0.3407
 9004TIP3    H248428   2.214   3.368  14.997  0.8051 -0.4123 -1.1225
 9005TIP3   OH248429   6.358   1.487   4.548  0.5962 -0.3560 -0.1546
 9005TIP3    H148430   6.323   1.552   4.609  2.1308  0.3920 -0.0297
 9005TIP3    H248431   6.346   1.403   4.594  2.3288  0.2530  1.5277
 9006TIP3   OH248432   5.368   2.508   2.722 -0.8866 -0.8618  0.0602
 9006TIP3    H148433   5.456   2.471   2.709 -0.7167 -0.0737 -1.1727
 9006TIP3    H248434   5.346   2.485   2.812  0.3937 -1.4764  0.2452
 9007TIP3   OH248435   2.632   1.326   3.960  0.0288 -0.3746 -0.2728
 9007TIP3    H148436   2.567   1.263   3.989 -0.2362  0.2641  0.5722
 9007TIP3    H248437   2.616   1.337   3.866  0.2016 -1.6798 -0.4759
 9008TIP3   OH248438   0.716   5.563   0.662  0.3162 -1.0858  1.1119
 9008TIP3    H148439   0.749   5.474   0.680 -0.8764 -1.6410  0.6810
 9008TIP3    H248440   0.676   5.591   0.744  0.6225 -0.9792  1.2248
 9009TIP3   OH248441   4.293   4.912   2.717  0.5340 -1.3670 -0.6722
 9009TIP3    H148442   4.346   4.960   2.780  1.9071 -1.5007 -1.6710
 9009TIP3    H248443   4.229   4.975   2.686  0.4859 -1.0212  0.1211
 9010TIP3   OH248444   6.495   5.284  17.002 -0.2767 -0.1069  0.1112
 9010TIP3    H148445   6.455   5.323  17.079  0.3318 -0.1007  0.4300
 9010TIP3    H248446   6.588   5.305  17.010 -0.4313  1.5712 -1.5952
 9011TIP3   OH248447   6.325   5.562  11.879  0.5378  0.2848  0.0211
 9011TIP3    H148448   6.280   5.580  11.797  0.3940 -1.4944 -0.3337
 9011TIP3    H248449   6.257   5.570  11.946  0.5273  1.1793 -0.0885
 9012TIP3   OH248450   3.353   3.939  13.630 -0.0833  0.7654  0.5439
 9012TIP3    H148451   3.374   3.876  13.699 -0.7607  0.1729  0.2165
 9012TIP3    H248452   3.348   4.023  13.675  1.5281  0.7193  0.8739
 9013TIP3   OH248453   4.252   5.701   1.321 -0.3647 -0.2121 -0.6763
 9013TIP3    H148454   4.296   5.743   1.396 -1.1026 -0.6278  0.0039
 9013TIP3    H248455   4.261   5.765   1.250 -2.1699  1.5456  0.5380
 9014TIP3   OH248456   5.756   1.883  11.575  0.8447  0.2115 -0.2964
 9014TIP3    H148457   5.734   1.895  11.668  1.1512  0.0405 -0.2012
 9014TIP3    H248458   5.712   1.803  11.550  1.9052 -0.5152  0.0813
 9015TIP3   OH248459   4.827   4.300   1.435 -0.4584  0.0341  0.3462
 9015TIP3    H148460   4.897   4.235   1.446 -1.2104 -0.7838  0.5028
 9015TIP3    H248461   4.747   4.247   1.433 -1.1957  1.0315  1.6364
 9016TIP3   OH248462   3.136   4.125   5.293 -0.9093  0.1912  0.5219
 9016TIP3    H148463   3.137   4.179   5.214 -1.1861  1.4422  1.3357
 9016TIP3    H248464   3.229   4.114   5.315 -0.7813 -0.9783 -0.4758
 9017TIP3   OH248465   2.322   4.340   4.596 -0.2816 -0.4286  0.5996
 9017TIP3    H148466   2.395   4.285   4.626 -0.4061 -1.0541 -0.1952
 9017TIP3    H248467   2.337   4.349   4.502 -0.3549  0.7884  0.6848
 9018TIP3   OH248468   2.038   2.381   1.564 -0.6251  0.2821  0.0789
 9018TIP3    H148469   2.093   2.327   1.620  1.1124  1.4915 -0.4131
 9018TIP3    H248470   1.972   2.320   1.530 -0.8529 -0.7764  2.2264
 9019TIP3   OH248471   3.954   3.827  11.576 -0.6046 -0.0674 -0.2986
 9019TIP3    H148472   3.934   3.756  11.637  0.7359  0.3178  0.6293
 9019TIP3    H248473   3.936   3.907  11.626  3.8250  0.3731  1.0052
 9020TIP3   OH248474   2.977   3.971  12.405  0.0278 -0.0391  0.1981
 9020TIP3    H148475   2.972   3.888  12.357 -1.6287 -0.1119  0.4398
 9020TIP3    H248476   2.976   4.038  12.337  0.3926 -0.1864  0.0426
 9021TIP3   OH248477   2.925   3.895  14.036 -0.0146 -0.1163  0.0280
 9021TIP3    H148478   2.957   3.814  13.996  0.7034 -1.3473  2.8711
 9021TIP3    H248479   2.839   3.873  14.070 -1.0135  1.1738 -1.4932
 9022TIP3   OH248480   3.605   2.594   1.476 -0.8520  0.0095 -0.2608
 9022TIP3    H148481   3.529   2.619   1.529  0.0299  0.2813  0.9333
 9022TIP3    H248482   3.611   2.663   1.409 -1.1816  0.4380  0.1388
 9023TIP3   OH248483   6.314   4.569   2.883 -0.2692 -0.6346  0.5618
 9023TIP3    H148484   6.261   4.513   2.940 -1.4797 -0.2316 -0.1289
 9023TIP3    H248485   6.396   4.520   2.871 -0.6787 -1.5170  1.2387
 9024TIP3   OH248486   4.367   6.122   4.549  0.3010 -0.6758  0.1076
 9024TIP3    H148487   4.289   6.067   4.556 -0.7720  0.8167  0.1885
 9024TIP3    H248488   4.415   6.086   4.474 -1.1937 -0.7467 -0.8616
 9025TIP3   OH248489   4.280   5.520  17.032  0.3867  0.0649  0.0195
 9025TIP3    H148490   4.361   5.553  17.071  0.1283 -0.3905  0.9774
 9025TIP3    H248491   4.211   5.549  17.091 -0.1731  0.5710 -0.8653
 9026TIP3   OH248492   1.846   4.188  14.499  0.5101  0.5335 -0.5015
 9026TIP3    H148493   1.840   4.283  14.486 -0.0266  0.2688 -2.4803
 9026TIP3    H248494   1.756   4.161  14.517  0.5909  0.3474 -0.3787
 9027TIP3   OH248495   1.325   3.390   3.562 -0.6222  0.2036  0.3608
 9027TIP3    H148496   1.229   3.397   3.565 -0.5502  0.8731  1.6065
 9027TIP3    H248497   1.343   3.344   3.479 -2.0327 -0.3224  0.3176
 9028TIP3   OH248498   5.242   5.873  11.970 -0.6016  0.6374  0.3787
 9028TIP3    H148499   5.303   5.820  12.022  1.1577  0.3511 -1.8096
 9028TIP3    H248500   5.194   5.810  11.916 -0.4714  1.0640 -0.2562
 9029TIP3   OH248501   6.496   5.145   5.014 -0.2015  0.3506  0.1244
 9029TIP3    H148502   6.445   5.216   4.975  0.9247 -0.3339 -2.8466
 9029TIP3    H248503   6.464   5.066   4.971  1.7384 -0.3495 -0.1411
 9030TIP3   OH248504   2.681   2.822  16.156  0.1781  0.4288  0.1195
 9030TIP3    H148505   2.774   2.816  16.134 -0.0594  0.4117 -0.9420
 9030TIP3    H248506   2.638   2.847  16.074 -0.7739  0.2823  0.5552
 9031TIP3   OH248507   2.375   5.423  11.251  0.3162  0.1911  0.2759
 9031TIP3    H148508   2.384   5.328  11.253  0.7033  0.2326  0.5100
 9031TIP3    H248509   2.444   5.453  11.192 -0.6476  0.2307 -0.8694
 9032TIP3   OH248510   3.312   2.047   2.097 -0.5526 -0.3734 -0.3316
 9032TIP3    H148511   3.260   2.126   2.084  0.6073  0.3296 -0.9045
 9032TIP3    H248512   3.250   1.982   2.128 -1.2999  1.1437  1.5758
 9033TIP3   OH248513   5.210   5.511  16.073  0.2543  0.2227 -0.0240
 9033TIP3    H148514   5.266   5.570  16.023  0.1899  1.0516  0.8609
 9033TIP3    H248515   5.268   5.475  16.141  0.0807 -0.0718 -0.0294
 9034TIP3   OH248516   4.551   6.574   4.580  0.0062 -0.3142 -0.2506
 9034TIP3    H148517   4.604   6.614   4.649 -3.4033  2.9277  0.8400
 9034TIP3    H248518   4.491   6.516   4.627 -0.6812 -0.0360 -0.7710
 9035TIP3   OH248519   5.697   2.614   6.175 -0.2588 -0.1859  0.4077
 9035TIP3    H148520   5.663   2.681   6.115 -1.4099 -0.9824  0.1290
 9035TIP3    H248521   5.767   2.658   6.223 -0.8423  1.1526  0.0843
 9036TIP3   OH248522   1.663   5.054  12.770  0.0241  0.2497 -0.1885
 9036TIP3    H148523   1.581   5.075  12.725  0.2103  2.0843  0.2727
 9036TIP3    H248524   1.731   5.092  12.714  0.7887 -2.8052 -1.5351
 9037TIP3   OH248525   2.664   1.303  15.236 -0.9334 -0.0929 -0.1385
 9037TIP3    H148526   2.747   1.330  15.198 -0.8388  0.8401  0.6963
 9037TIP3    H248527   2.675   1.318  15.330 -2.1979  0.4663 -0.0644
 9038TIP3   OH248528   0.182   0.508  13.200 -0.6456 -0.1395 -0.1189
 9038TIP3    H148529   0.121   0.579  13.222 -0.0565  0.6393 -0.9009
 9038TIP3    H248530   0.134   0.454  13.138 -0.6517  0.3194 -0.5245
 9039TIP3   OH248531   3.603   1.926   3.378  0.2296 -0.0120 -0.2955
 9039TIP3    H148532   3.601   1.918   3.473  0.4131 -1.4776 -0.3837
 9039TIP3    H248533   3.634   1.840   3.348 -0.0504  0.3517 -1.6812
 9040TIP3   OH248534   3.954   0.148   3.520  0.3953  0.4924 -0.5321
 9040TIP3    H148535   3.997   0.222   3.563  0.8005  0.1268 -0.3015
 9040TIP3    H248536   3.971   0.073   3.578 -0.8893  0.4161 -0.2323
 9041TIP3   OH248537   2.390   5.641   3.976  0.5208 -0.4177 -0.2801
 9041TIP3    H148538   2.354   5.650   3.888 -0.4685  0.4995  0.1856
 9041TIP3    H248539   2.453   5.712   3.984  1.5776 -1.2908 -0.6787
 9042TIP3   OH248540   2.348   0.284  12.222  0.0756 -0.1781 -0.4656
 9042TIP3    H148541   2.397   0.278  12.139 -0.1778 -0.7673 -0.5781
 9042TIP3    H248542   2.372   0.204  12.269 -2.4981 -1.6782 -1.4737
 9043TIP3   OH248543   2.777   2.447  11.425 -0.3357 -0.1108  0.1919
 9043TIP3    H148544   2.763   2.440  11.519  1.4836  0.9767  0.5777
 9043TIP3    H248545   2.737   2.367  11.389 -0.9777 -0.5870  1.8649
 9044TIP3   OH248546   0.343   1.601   1.593  0.5654  0.0503 -0.4071
 9044TIP3    H148547   0.397   1.589   1.672 -0.9113 -2.6674  0.3226
 9044TIP3    H248548   0.400   1.649   1.533  2.6059  0.1583  1.4486
 9045TIP3   OH248549   4.304   1.354   0.477  0.0961  0.0319  0.3303
 9045TIP3    H148550   4.212   1.373   0.463 -0.1116 -1.2434 -0.1948
 9045TIP3    H248551   4.348   1.438   0.468 -1.1090  0.8388  1.6019
 9046TIP3   OH248552   4.803   3.662   3.822 -0.0694 -0.4373 -0.3859
 9046TIP3    H148553   4.772   3.619   3.742  2.1700 -2.3310 -0.3748
 9046TIP3    H248554   4.755   3.619   3.893  0.8022 -1.6698 -0.5066
 9047TIP3   OH248555   4.781   6.339  11.340 -0.3450 -0.0025  0.5348
 9047TIP3    H148556   4.700   6.386  11.359 -0.0233  1.1336 -0.7193
 9047TIP3    H248557   4.771   6.310  11.249  0.0352 -1.2040  0.8558
 9048TIP3   OH248558   1.928   0.573  16.361  0.3248  0.2566  0.2058
 9048TIP3    H148559   2.003   0.629  16.384 -1.0164  2.0705  0.3854
 9048TIP3    H248560   1.852   0.631  16.369 -1.2996 -1.9139  1.5998
 9049TIP3   OH248561   1.253   6.481   0.945  0.5767 -0.3424 -0.0504
 9049TIP3    H148562   1.319   6.413   0.955 -0.2986 -1.1913  0.2131
 9049TIP3    H248563   1.231   6.507   1.034 -0.5442 -1.1998 -0.0514
 9050TIP3   OH248564   3.952   5.730  14.766 -0.3699 -0.1479 -0.0402
 9050TIP3    H148565   3.967   5.821  14.790 -1.6950  0.1208 -0.1303
 9050TIP3    H248566   4.018   5.711  14.699  0.7053  0.3480  0.8395
 9051TIP3   OH248567   3.141   0.967  13.045  0.3623  0.7553 -0.0308
 9051TIP3    H148568   3.076   1.006  12.986  0.8232  0.9767 -0.3929
 9051TIP3    H248569   3.118   1.002  13.132 -1.5947 -1.1621  0.3140
 9052TIP3   OH248570   6.082   0.778   1.077 -0.2848 -0.3667  0.1438
 9052TIP3    H148571   6.075   0.829   0.996  0.8730 -0.2565  0.0999
 9052TIP3    H248572   6.158   0.722   1.064  1.0216  0.9086  1.8371
 9053TIP3   OH248573   3.376   3.605   5.385 -0.3034  0.5557  0.1578
 9053TIP3    H148574   3.422   3.531   5.426 -1.1696 -1.0325 -1.5839
 9053TIP3    H248575   3.309   3.564   5.331 -0.5850  2.6343 -1.1543
 9054TIP3   OH248576   3.926   1.450   4.052 -0.4732 -0.2142  0.0428
 9054TIP3    H148577   3.957   1.399   4.127  1.3103 -0.1015 -0.5842
 9054TIP3    H248578   4.003   1.460   3.996 -1.4687  0.7915 -1.1974
 9055TIP3   OH248579   6.623   2.076  17.158  0.1768  0.2435 -0.0938
 9055TIP3    H148580   6.588   2.036  17.238 -0.1654  0.6455 -0.0423
 9055TIP3    H248581   6.546   2.106  17.110  0.4449  1.9498  0.4485
 9056TIP3   OH248582   5.455   4.277  15.788 -0.3055  0.4452  0.0565
 9056TIP3    H148583   5.371   4.315  15.811 -0.8455 -0.6062 -0.1126
 9056TIP3    H248584   5.510   4.352  15.765 -1.2070  1.1367  0.1144
 9057TIP3   OH248585   0.272   5.638   0.207  0.3344  0.1610 -0.5063
 9057TIP3    H148586   0.284   5.705   0.274  0.0153 -0.2966  0.0215
 9057TIP3    H248587   0.231   5.683   0.134 -1.9685  0.1251  0.6576
 9058TIP3   OH248588   3.342   4.336  16.431 -0.2990  0.5915  0.8539
 9058TIP3    H148589   3.366   4.244  16.425 -1.2317  0.4226 -0.9047
 9058TIP3    H248590   3.269   4.346  16.370  0.0069  2.5713  0.7450
 9059TIP3   OH248591   2.960   4.022   5.468 -0.4416  0.2283 -0.2353
 9059TIP3    H148592   2.998   3.935   5.479  1.5633  1.2510  1.6112
 9059TIP3    H248593   3.021   4.069   5.412  0.4308  1.4764  1.6568
 9060TIP3   OH248594   0.170   3.967   5.554  0.1194  0.2812 -0.0197
 9060TIP3    H148595   0.240   4.010   5.505  0.7094  0.5110  0.9937
 9060TIP3    H248596   0.157   4.023   5.630 -0.8455 -0.0233  0.0507
 9061TIP3   OH248597   3.198   2.613  12.289  0.1413  0.1696 -0.0883
 9061TIP3    H148598   3.254   2.691  12.283 -1.9329  1.8209  0.7773
 9061TIP3    H248599   3.170   2.611  12.381 -1.4256 -0.4098 -0.5464
 9062TIP3   OH248600   6.012   2.925   2.494 -0.0564  0.4653 -0.1875
 9062TIP3    H148601   6.104   2.900   2.492  0.0210  0.5941  0.9402
 9062TIP3    H248602   5.967   2.854   2.448  0.5693  0.2049 -0.3998
 9063TIP3   OH248603   2.328   4.443   5.625  0.3734 -0.0190  0.2718
 9063TIP3    H148604   2.287   4.374   5.677 -2.0182  0.4407 -0.8797
 9063TIP3    H248605   2.364   4.503   5.690 -0.8297 -0.4439  1.3867
 9064TIP3   OH248606   4.829   5.173  10.606  0.6240 -0.1200  0.3272
 9064TIP3    H148607   4.819   5.077  10.608 -1.2438  0.0303  0.0031
 9064TIP3    H248608   4.883   5.190  10.529 -0.4171 -0.8546 -0.6064
 9065TIP3   OH248609   3.030   4.482  16.811 -0.2420  0.1979  0.1018
 9065TIP3    H148610   3.077   4.486  16.728  0.2238  2.6622  0.4168
 9065TIP3    H248611   3.007   4.573  16.830 -0.5551 -0.3363  2.5653
 9066TIP3   OH248612   2.487   4.132   3.927  0.3851 -0.1344  0.2920
 9066TIP3    H148613   2.448   4.218   3.912  0.3951 -0.3450 -1.1323
 9066TIP3    H248614   2.447   4.076   3.861  2.2919 -0.6062 -0.5546
 9067TIP3   OH248615   2.638   6.516  15.409  0.0326  0.4024 -0.5862
 9067TIP3    H148616   2.627   6.421  15.414  1.1239  0.2270 -1.0715
 9067TIP3    H248617   2.733   6.529  15.410  0.1499  1.1770 -4.4055
 9068TIP3   OH248618   4.077   4.349   6.293  0.2140 -0.2264  0.5362
 9068TIP3    H148619   4.154   4.396   6.325 -0.4284  0.1917  1.5433
 9068TIP3    H248620   4.003   4.405   6.319 -0.5759 -1.8105  1.8263
 9069TIP3   OH248621   4.532   2.474  13.630 -0.6443  0.5771 -0.5147
 9069TIP3    H148622   4.502   2.563  13.646  0.7421  0.6783  1.9869
 9069TIP3    H248623   4.550   2.471  13.536 -5.2403  1.4074 -1.6493
 9070TIP3   OH248624   2.146   2.789  11.535  0.0325 -0.4007  0.2605
 9070TIP3    H148625   2.097   2.840  11.470 -1.7740  0.8262  2.4317
 9070TIP3    H248626   2.154   2.702  11.496 -0.9047  0.3001 -1.6131
 9071TIP3   OH248627   3.502   1.837   1.948 -0.0114  0.1104 -0.0816
 9071TIP3    H148628   3.500   1.912   2.007 -0.7165  1.3183 -1.5717
 9071TIP3    H248629   3.421   1.844   1.897  1.0002 -0.3078 -1.8457
 9072TIP3   OH248630   2.608   1.577  11.216  0.3856 -0.2886 -0.1171
 9072TIP3    H148631   2.583   1.631  11.141 -0.2475  0.6924  0.7778
 9072TIP3    H248632   2.540   1.594  11.281  0.9323 -1.1210  0.6875
 9073TIP3   OH248633   1.314   5.467  16.796 -0.0444  0.4015 -0.7749
 9073TIP3    H148634   1.409   5.473  16.790 -0.0238  2.3705  0.5582
 9073TIP3    H248635   1.283   5.483  16.707  0.8468  2.7575 -0.7391
 9074TIP3   OH248636   5.177   3.426  12.947 -0.0649 -0.5832 -0.7334
 9074TIP3    H148637   5.092   3.469  12.954  0.5445  0.3735  1.4416
 9074TIP3    H248638   5.159   3.345  12.899 -2.5729 -1.3559  1.3248
 9075TIP3   OH248639   5.425   6.010   1.778 -0.0388 -0.2644  0.6941
 9075TIP3    H148640   5.392   6.075   1.839  0.6999  1.0213 -0.2399
 9075TIP3    H248641   5.346   5.965   1.747 -1.1222  2.8458 -1.5974
 9076TIP3   OH248642   0.341   6.018  13.521  0.2484 -0.4982 -0.3892
 9076TIP3    H148643   0.313   5.936  13.482 -0.3524 -0.3556 -0.2776
 9076TIP3    H248644   0.275   6.081  13.492  0.4535 -0.1510 -0.1024
 9077TIP3   OH248645   6.567   2.194  14.220  0.2321 -0.0246 -0.3314
 9077TIP3    H148646   6.499   2.127  14.228  1.4740 -1.3304 -0.2814
 9077TIP3    H248647   6.598   2.207  14.310  0.8415 -0.3152 -0.4928
 9078TIP3   OH248648   1.880   2.152   6.078 -0.1664  0.2263 -0.2651
 9078TIP3    H148649   1.843   2.239   6.067  1.3338  1.2606  2.0275
 9078TIP3    H248650   1.853   2.124   6.166  1.7010 -0.3343  0.1928
 9079TIP3   OH248651   5.986   2.601   0.027  0.3152  0.1727 -0.2048
 9079TIP3    H148652   6.042   2.655   0.083 -1.3351 -0.2977  2.0808
 9079TIP3    H248653   5.973   2.654  -0.052  1.3317  1.6995  0.6000
 9080TIP3   OH248654   2.975   1.377  12.907  0.2403  0.6412  0.3552
 9080TIP3    H148655   2.993   1.471  12.903 -1.2994  0.9288 -0.9218
 9080TIP3    H248656   2.882   1.370  12.884  0.5357 -1.2697 -0.3813
 9081TIP3   OH248657   5.347   0.831  14.193  0.7453  0.0292  0.2722
 9081TIP3    H148658   5.288   0.827  14.118  0.8934  2.5225 -0.0840
 9081TIP3    H248659   5.426   0.873  14.159  1.5820 -0.5789  1.3945
 9082TIP3   OH248660   1.706   6.126  12.585 -0.1300  0.5392  0.1546
 9082TIP3    H148661   1.712   6.034  12.610 -4.8439 -0.1420 -0.2995
 9082TIP3    H248662   1.737   6.129  12.494 -1.5088 -1.0533 -0.4187
 9083TIP3   OH248663   3.725   2.182   3.541 -0.6127 -0.0659 -0.6204
 9083TIP3    H148664   3.661   2.114   3.563 -1.1735  0.6602  0.0656
 9083TIP3    H248665   3.758   2.157   3.455  0.3389 -2.0486  0.2446
 9084TIP3   OH248666   2.393   4.512  15.667 -0.3832  0.1464  0.3822
 9084TIP3    H148667   2.487   4.513  15.646 -0.5028 -1.7391 -0.4937
 9084TIP3    H248668   2.351   4.559  15.595 -0.2423 -0.7498 -0.3130
 9085TIP3   OH248669   6.686   3.497  14.718  0.0842  0.0472  0.0586
 9085TIP3    H148670   6.653   3.579  14.755 -0.5777  0.8299 -2.1176
 9085TIP3    H248671   6.634   3.484  14.638  1.5279 -1.4483 -0.6930
 9086TIP3   OH248672   1.608   3.064   1.903 -0.4411  0.0043  0.1599
 9086TIP3    H148673   1.546   3.035   1.835  0.0044  0.5240 -0.4819
 9086TIP3    H248674   1.627   3.155   1.880  1.9312 -0.6546 -0.7388
 9087TIP3   OH248675   3.529   0.934   4.344  0.5615  0.7605 -0.1283
 9087TIP3    H148676   3.442   0.973   4.349  1.2495  2.3236  0.4787
 9087TIP3    H248677   3.534   0.877   4.421 -0.1706  0.0792 -0.5694
 9088TIP3   OH248678   1.631   5.944   3.413  0.8252  0.6679  0.2484
 9088TIP3    H148679   1.645   5.858   3.375 -0.0529 -0.1077  1.5895
 9088TIP3    H248680   1.648   5.933   3.506 -3.3075  0.7926  1.2346
 9089TIP3   OH248681   2.754   3.607  12.869  0.1121 -0.3135 -0.6451
 9089TIP3    H148682   2.729   3.605  12.776  1.5125 -0.4165 -1.0404
 9089TIP3    H248683   2.845   3.634  12.868  1.0106 -3.0007  0.5267
 9090TIP3   OH248684   0.155   1.416   1.754 -0.0392 -0.4362  0.3588
 9090TIP3    H148685   0.231   1.362   1.776 -0.1306 -1.4386 -1.6047
 9090TIP3    H248686   0.192   1.489   1.704 -0.1691  0.2195  1.1867
 9091TIP3   OH248687   2.779   4.155  15.299 -0.0605  0.9051 -0.3272
 9091TIP3    H148688   2.753   4.093  15.231 -1.3107  2.5456 -1.4077
 9091TIP3    H248689   2.860   4.193  15.266  1.7718 -1.3389  1.1936
 9092TIP3   OH248690   0.133   6.381   2.178  0.1486 -0.6540 -0.4193
 9092TIP3    H148691   0.193   6.431   2.122 -0.3072  0.2208 -0.1562
 9092TIP3    H248692   0.150   6.414   2.267 -1.6459  0.6298 -0.4880
 9093TIP3   OH248693   1.039   5.989   4.376  0.5434 -0.1660 -0.0718
 9093TIP3    H148694   1.021   6.083   4.382 -0.4261 -0.1962 -1.7669
 9093TIP3    H248695   0.976   5.949   4.437 -0.2209  0.1883 -0.6174
 9094TIP3   OH248696   4.075   6.730  15.180  0.7326  0.0704 -0.1465
 9094TIP3    H148697   4.133   6.711  15.253 -0.3770  0.7343  0.9521
 9094TIP3    H248698   3.991   6.751  15.221  0.8071  3.3995 -1.3970
 9095TIP3   OH248699   5.576   2.828   0.344 -0.0766  0.0488 -0.3030
 9095TIP3    H148700   5.664   2.857   0.369 -0.1267  0.2970 -0.4087
 9095TIP3    H248701   5.547   2.772   0.416  0.3675 -0.4409 -0.4971
 9096TIP3   OH248702   3.913   4.131   0.652  0.7358 -0.6078  0.2269
 9096TIP3    H148703   3.963   4.205   0.685  0.5928 -0.7329  0.7230
 9096TIP3    H248704   3.827   4.140   0.693 -0.1896  0.4691 -1.7544
 9097TIP3   OH248705   1.173   2.887   5.510  0.5244  0.6572  0.2085
 9097TIP3    H148706   1.202   2.975   5.485  1.6095  0.1803 -0.2595
 9097TIP3    H248707   1.159   2.893   5.605  0.3133  1.4045  0.1412
 9098TIP3   OH248708   2.781   4.085   2.511  0.2515  0.0544  0.0066
 9098TIP3    H148709   2.825   4.091   2.426 -0.5084  0.7436 -0.3517
 9098TIP3    H248710   2.851   4.101   2.575  0.5479  1.0424 -0.5458
 9099TIP3   OH248711   1.489   4.615  17.186 -0.2794 -0.4881 -0.1539
 9099TIP3    H148712   1.413   4.661  17.149  0.2313 -0.4399 -1.1669
 9099TIP3    H248713   1.484   4.527  17.150 -1.1674 -1.2532  1.6623
 9100TIP3   OH248714   0.872   5.615  15.052 -0.8889 -0.1104  0.4871
 9100TIP3    H148715   0.823   5.692  15.079 -0.0068  0.6534 -0.0486
 9100TIP3    H248716   0.961   5.631  15.084 -0.5246 -0.5543 -0.2873
 9101TIP3   OH248717   1.314   0.911   0.133  0.2885 -0.4245  0.9141
 9101TIP3    H148718   1.284   0.837   0.186  2.2771 -0.0379  2.7176
 9101TIP3    H248719   1.381   0.874   0.076 -0.4132 -0.4307  0.0620
 9102TIP3   OH248720   1.898   5.702  12.447  0.3372  0.7746 -0.1306
 9102TIP3    H148721   1.873   5.625  12.395  1.6437 -0.5422  1.1376
 9102TIP3    H248722   1.936   5.762  12.382  0.9975 -0.4062 -0.8807
 9103TIP3   OH248723   2.103   4.476   3.676  0.2763 -0.5340 -0.1201
 9103TIP3    H148724   2.186   4.514   3.646  0.1076  0.8529  1.0239
 9103TIP3    H248725   2.077   4.532   3.750 -2.0704 -0.4463 -0.9206
 9104TIP3   OH248726   5.181   5.171   1.700  0.5126  0.0654  0.2894
 9104TIP3    H148727   5.123   5.153   1.626 -0.8884 -0.9576  1.5588
 9104TIP3    H248728   5.241   5.096   1.703 -0.6650 -0.9005  1.2591
 9105TIP3   OH248729   0.350   3.264   1.488 -0.1886 -0.0995  0.8705
 9105TIP3    H148730   0.367   3.319   1.565  3.3853 -0.0715  0.2596
 9105TIP3    H248731   0.410   3.190   1.499  1.6644  0.6780 -2.5327
 9106TIP3   OH248732   1.947   4.382  15.485 -0.0315  0.1324 -0.0454
 9106TIP3    H148733   1.911   4.346  15.404  0.2512  0.4754 -0.3234
 9106TIP3    H248734   2.006   4.314  15.518  1.7582  0.9616 -1.4109
 9107TIP3   OH248735   6.265   3.609  13.630 -0.5560 -0.0733  0.5111
 9107TIP3    H148736   6.336   3.617  13.567 -0.1301 -1.0512  0.8416
 9107TIP3    H248737   6.309   3.602  13.715 -0.9324 -2.4228  0.5666
 9108TIP3   OH248738   2.855   1.070   3.491 -0.0239  0.0302 -0.4919
 9108TIP3    H148739   2.928   1.103   3.440  0.0673  2.5956  1.1133
 9108TIP3    H248740   2.778   1.083   3.435  0.2077  1.7425 -0.4658
 9109TIP3   OH248741   6.225   0.442   1.028 -0.1052  0.2505 -0.0800
 9109TIP3    H148742   6.158   0.465   0.963 -1.4131 -0.9067  0.7855
 9109TIP3    H248743   6.180   0.381   1.087  1.6788 -0.3899  0.6661
 9110TIP3   OH248744   5.041   3.022  15.315  0.0473 -0.0380  0.1824
 9110TIP3    H148745   4.960   3.004  15.267  0.5355 -0.3005 -0.5763
 9110TIP3    H248746   5.111   3.005  15.250  0.8387 -2.2904  1.4901
 9111TIP3   OH248747   0.958   0.866  16.570  0.2768  0.1327  0.3314
 9111TIP3    H148748   0.957   0.955  16.604 -1.3170 -0.2117  1.2914
 9111TIP3    H248749   1.013   0.818  16.632  1.4873  0.4984 -0.4222
 9112TIP3   OH248750   1.427   1.566  16.609  0.0948  0.0873  0.3152
 9112TIP3    H148751   1.439   1.641  16.552  1.2933 -0.1634  0.1972
 9112TIP3    H248752   1.448   1.599  16.697  1.3282 -0.2416  0.1710
 9113TIP3   OH248753   5.780   5.804   4.448 -0.6387 -0.2094  0.0504
 9113TIP3    H148754   5.692   5.840   4.464 -1.1960 -1.2476 -0.5303
 9113TIP3    H248755   5.764   5.712   4.426  0.5776 -0.3129 -0.4673
 9114TIP3   OH248756   0.383   5.055   5.357 -0.0833  0.0109  0.0073
 9114TIP3    H148757   0.466   5.008   5.347  0.2372  0.4773  0.3907
 9114TIP3    H248758   0.397   5.112   5.433 -1.0125 -0.4277  0.5201
 9115TIP3   OH248759   3.179   3.640  16.581  0.2699 -0.0733 -0.5609
 9115TIP3    H148760   3.235   3.679  16.513  0.8076  1.4756  0.7024
 9115TIP3    H248761   3.234   3.641  16.659  0.1281 -3.0607 -0.3369
 9116TIP3   OH248762   1.755   5.503   6.369  0.3172 -0.5558  0.0077
 9116TIP3    H148763   1.712   5.547   6.443 -3.0036 -0.7452 -1.6044
 9116TIP3    H248764   1.723   5.413   6.373  0.0227 -0.5603 -1.6314
 9117TIP3   OH248765   3.996   1.451  14.550  0.0588  0.5559 -0.1125
 9117TIP3    H148766   4.008   1.430  14.458  1.4868 -1.1560  0.4065
 9117TIP3    H248767   4.083   1.442  14.589 -0.5809  0.8220  1.4884
 9118TIP3   OH248768   5.752   4.878  13.818  0.2117  0.2827  0.0736
 9118TIP3    H148769   5.769   4.810  13.753  1.3224  0.2786  0.3428
 9118TIP3    H248770   5.716   4.951  13.769  2.0191  0.6679 -0.7237
 9119TIP3   OH248771   5.558   5.752  12.776 -0.1612 -0.4656  0.2213
 9119TIP3    H148772   5.526   5.694  12.845 -1.2388 -0.6942 -0.4438
 9119TIP3    H248773   5.505   5.832  12.786  1.2539  0.4151  1.0853
 9120TIP3   OH248774   0.681   2.840   1.963 -0.3534 -0.4500 -0.1453
 9120TIP3    H148775   0.601   2.859   2.013  0.7426  1.1483  1.1278
 9120TIP3    H248776   0.691   2.916   1.905  0.6854 -0.2197  0.3254
 9121TIP3   OH248777   4.054   3.555   3.112  0.0808  0.2372  0.6168
 9121TIP3    H148778   4.085   3.480   3.163  1.2835  0.7789  0.6921
 9121TIP3    H248779   3.982   3.519   3.060  0.3133 -0.8510  1.0137
 9122TIP3   OH248780   0.712   3.484  13.670 -0.1338  0.0063  0.1867
 9122TIP3    H148781   0.760   3.415  13.624 -1.4438 -0.1847 -0.9554
 9122TIP3    H248782   0.725   3.562  13.616  0.0880  0.2972  0.6580
 9123TIP3   OH248783   5.442   2.054  12.580  0.0867 -0.4107 -0.2042
 9123TIP3    H148784   5.355   2.047  12.539 -0.8153  0.0849  1.5114
 9123TIP3    H248785   5.483   2.129  12.537 -0.0433 -1.0561 -1.5054
 9124TIP3   OH248786   0.232   6.113  16.056  0.1026  0.1631  0.0317
 9124TIP3    H148787   0.158   6.158  16.096 -1.0961 -0.0642 -1.8071
 9124TIP3    H248788   0.246   6.160  15.973 -1.5817 -3.0676 -2.2741
 9125TIP3   OH248789   2.553   0.098  12.376  0.3860  0.1832 -0.5274
 9125TIP3    H148790   2.534   0.076  12.467 -2.2949 -0.6337 -1.1932
 9125TIP3    H248791   2.548   0.015  12.330 -0.0976  0.8233 -1.6653
 9126TIP3   OH248792   1.958   2.665  12.414 -0.1227  0.2003  0.3545
 9126TIP3    H148793   1.946   2.600  12.344 -1.5494  0.0463  0.7180
 9126TIP3    H248794   2.030   2.630  12.466  0.6598  0.0819 -0.7668
 9127TIP3   OH248795   4.107   3.278   1.717  0.0103  0.1980  0.4613
 9127TIP3    H148796   4.200   3.261   1.734 -0.0972  0.4950  1.4267
 9127TIP3    H248797   4.086   3.224   1.641  0.8755 -0.1606  0.4644
 9128TIP3   OH248798   0.498   2.104  14.044 -0.0027  0.0907 -0.8819
 9128TIP3    H148799   0.403   2.096  14.033 -0.2457 -0.3259  1.1343
 9128TIP3    H248800   0.509   2.126  14.136  1.9084 -0.7940 -0.8594
 9129TIP3   OH248801   5.105   4.845  14.432 -0.5322  0.3986  0.0661
 9129TIP3    H148802   5.051   4.924  14.439 -1.4475 -0.2217  0.2839
 9129TIP3    H248803   5.060   4.791  14.367 -0.1447 -0.1083  0.2096
 9130TIP3   OH248804   5.212   1.521  17.213  0.2913  0.3697  0.5068
 9130TIP3    H148805   5.273   1.570  17.158  1.6853 -0.2449  1.4519
 9130TIP3    H248806   5.226   1.555  17.302  0.6024 -1.0441  1.0253
 9131TIP3   OH248807   3.593   6.126  12.273  0.4909  0.0372  0.7225
 9131TIP3    H148808   3.679   6.086  12.287  0.4645 -0.0627  0.6016
 9131TIP3    H248809   3.587   6.138  12.178  1.5549  2.6650  0.9091
 9132TIP3   OH248810   3.936   4.360  16.675 -0.1114 -0.4389 -0.3176
 9132TIP3    H148811   3.849   4.326  16.652  1.0012 -1.0959 -4.3737
 9132TIP3    H248812   3.989   4.281  16.691  0.5231 -0.2686 -1.4581
 9133TIP3   OH248813   6.677   2.500  13.676  0.0126 -0.2111 -0.4852
 9133TIP3    H148814   6.725   2.443  13.736  1.2260  0.5181 -0.7389
 9133TIP3    H248815   6.742   2.527  13.611 -0.0838  2.7056  0.5004
 9134TIP3   OH248816   2.380   5.493   2.921  0.3934 -0.0967 -0.0942
 9134TIP3    H148817   2.449   5.557   2.903  0.3160 -0.4252 -1.7597
 9134TIP3    H248818   2.299   5.537   2.899  0.3593 -0.8171 -1.4916
 9135TIP3   OH248819   4.176   0.123  13.060  0.4726  0.1521 -0.4347
 9135TIP3    H148820   4.162   0.153  13.150  0.4187 -1.3286  0.0734
 9135TIP3    H248821   4.219   0.197  13.017  1.9514  0.3419  1.2386
 9136TIP3   OH248822   3.790   5.410   0.371 -0.3059 -0.4168  0.0188
 9136TIP3    H148823   3.819   5.421   0.461  0.7912  1.6249 -0.5266
 9136TIP3    H248824   3.704   5.451   0.369  0.3282  0.9636 -0.1707
 9137TIP3   OH248825   1.984   5.396  16.621  0.3380  0.1956 -0.1033
 9137TIP3    H148826   2.045   5.467  16.639  1.2702 -0.8090  0.8322
 9137TIP3    H248827   1.984   5.343  16.701 -1.7507  0.1519 -0.0728
 9138TIP3   OH248828   0.206   5.250  16.468 -0.2668  0.2504  0.3194
 9138TIP3    H148829   0.195   5.175  16.526 -1.4727  0.6041  0.5756
 9138TIP3    H248830   0.128   5.250  16.413  0.6303  0.1991 -1.0174
 9139TIP3   OH248831   4.864   2.754   4.308 -0.1650  0.4345  0.0875
 9139TIP3    H148832   4.960   2.754   4.315 -0.1251  0.6785 -0.4380
 9139TIP3    H248833   4.844   2.674   4.259 -0.2444  0.3309  0.2840
 9140TIP3   OH248834   0.605   5.791   1.994  0.6128  0.4553  0.5679
 9140TIP3    H148835   0.529   5.785   2.052 -1.3597  0.8294 -1.7922
 9140TIP3    H248836   0.641   5.703   1.992 -0.2382  0.0757  1.1458
 9141TIP3   OH248837   3.757   4.945  15.988  0.0628  0.3010  0.2618
 9141TIP3    H148838   3.695   4.905  16.049 -0.6410  0.5276 -0.2982
 9141TIP3    H248839   3.752   4.891  15.909  0.3849  0.4788  0.1165
 9142TIP3   OH248840   1.847   4.417  13.415 -0.0277 -0.5751 -0.2556
 9142TIP3    H148841   1.822   4.411  13.508  0.4586  0.1658 -0.0743
 9142TIP3    H248842   1.878   4.506  13.404  1.0264 -1.0047 -0.8687
 9143TIP3   OH248843   3.351   0.083  12.276 -0.4024 -0.4399 -0.0572
 9143TIP3    H148844   3.392  -0.001  12.258 -0.3425 -0.5206  0.4292
 9143TIP3    H248845   3.309   0.072  12.362 -2.0853 -0.5829 -0.8649
 9144TIP3   OH248846   4.675   4.321   3.525 -0.1426  0.4451 -0.0438
 9144TIP3    H148847   4.729   4.388   3.482  0.1163 -0.9403 -2.0252
 9144TIP3    H248848   4.663   4.254   3.458 -0.8341 -1.2616  1.7100
 9145TIP3   OH248849   6.597   3.744  14.786 -0.5929  0.0671 -0.3896
 9145TIP3    H148850   6.574   3.795  14.863  0.7465  0.4242 -0.1971
 9145TIP3    H248851   6.547   3.783  14.715 -1.9468 -0.3490  0.2993
 9146TIP3   OH248852   1.987   3.826  14.342  0.7230 -0.3105 -0.1184
 9146TIP3    H148853   1.953   3.914  14.327 -2.5874 -1.3006  0.7188
 9146TIP3    H248854   2.036   3.832  14.424 -0.8194  0.5136  0.7941
 9147TIP3   OH248855   0.313   0.535   1.948  0.1000 -0.3989  0.2340
 9147TIP3    H148856   0.307   0.474   2.022  0.7569  0.5874  1.1336
 9147TIP3    H248857   0.225   0.537   1.911  0.0154 -1.6999  0.3431
 9148TIP3   OH248858   1.722   2.252  16.387  0.1875 -0.2348  0.2504
 9148TIP3    H148859   1.785   2.270  16.316 -1.0987 -0.5316 -1.0219
 9148TIP3    H248860   1.660   2.324  16.382  0.0081 -0.3367  0.9911
 9149TIP3   OH248861   4.361   0.239   6.260  0.3195 -0.1156 -0.0577
 9149TIP3    H148862   4.422   0.169   6.281  0.4432  0.2179  0.7382
 9149TIP3    H248863   4.361   0.295   6.338  0.6359  1.0626 -0.8619
 9150TIP3   OH248864   4.481   1.654  13.111 -0.3117 -0.0450 -0.2329
 9150TIP3    H148865   4.508   1.581  13.054  1.6355 -1.0220  1.7743
 9150TIP3    H248866   4.413   1.616  13.167 -0.2688  0.0707 -0.1020
 9151TIP3   OH248867   0.798   5.596   5.413  0.0783  0.0439 -0.1426
 9151TIP3    H148868   0.789   5.546   5.494 -1.2910  1.5875  0.7101
 9151TIP3    H248869   0.862   5.664   5.433 -1.4210  1.4120  0.2083
 9152TIP3   OH248870   0.531   0.583   5.088 -0.4479  0.2534  0.1558
 9152TIP3    H148871   0.456   0.547   5.041  0.5117 -1.6912  0.0208
 9152TIP3    H248872   0.526   0.543   5.175  0.3740  0.1810  0.1730
 9153TIP3   OH248873   6.232   3.868  11.266  0.1505  0.2661  0.1204
 9153TIP3    H148874   6.240   3.874  11.171 -0.1139  1.1158  0.1449
 9153TIP3    H248875   6.319   3.894  11.298  0.5133 -0.8822  0.0933
 9154TIP3   OH248876   0.172   2.988   1.940  0.3689  0.2171  0.0949
 9154TIP3    H148877   0.086   3.012   1.975 -0.3757 -1.8042 -0.1805
 9154TIP3    H248878   0.235   3.032   1.997 -0.8426  0.6804  1.1175
 9155TIP3   OH248879   3.936   1.167  13.537 -0.9056  0.5229 -0.3600
 9155TIP3    H148880   4.003   1.105  13.566 -0.0462  1.4253 -0.3578
 9155TIP3    H248881   3.900   1.128  13.458 -1.8323 -0.9724  0.7324
 9156TIP3   OH248882   1.990   2.270   3.493 -0.1732  0.6285  0.3389
 9156TIP3    H148883   1.921   2.301   3.552 -0.5335 -1.3057  1.0174
 9156TIP3    H248884   2.071   2.292   3.538 -0.4141 -2.5904  2.7567
 9157TIP3   OH248885   2.652   4.787   1.150  0.4748  0.3760 -0.0992
 9157TIP3    H148886   2.623   4.778   1.241  3.5024  2.2009  1.2195
 9157TIP3    H248887   2.684   4.700   1.127  2.0830  0.4242  1.6342
 9158TIP3   OH248888   1.176   5.812   4.229  0.5390  0.0490  0.8261
 9158TIP3    H148889   1.131   5.867   4.294  0.8036  0.4847  0.6401
 9158TIP3    H248890   1.119   5.735   4.221  0.5384 -0.0526  1.6356
 9159TIP3   OH248891   5.691   2.172   2.561  0.0220 -0.0646 -0.1576
 9159TIP3    H148892   5.604   2.153   2.527 -0.6336  0.5852  1.0486
 9159TIP3    H248893   5.681   2.257   2.605  2.0424  1.6376 -2.6805
 9160TIP3   OH248894   2.509   3.695   1.628 -0.5870 -0.4804 -0.0343
 9160TIP3    H148895   2.565   3.621   1.651 -2.2130 -2.0597 -0.9165
 9160TIP3    H248896   2.542   3.768   1.682  2.8742 -1.0024 -1.1895
 9161TIP3   OH248897   2.341   5.137   4.576  0.0121 -0.4187  0.1438
 9161TIP3    H148898   2.414   5.113   4.633 -0.0921  0.2204  0.5552
 9161TIP3    H248899   2.358   5.227   4.550  0.5445 -0.9743 -1.6172
 9162TIP3   OH248900   4.351   4.504  15.853  0.0440 -0.6429  0.0895
 9162TIP3    H148901   4.352   4.541  15.942 -2.0176 -0.8651  0.2533
 9162TIP3    H248902   4.297   4.426  15.861 -1.1812 -0.0188 -1.5824
 9163TIP3   OH248903   1.455   0.357  16.415 -0.2330 -0.0047  0.1902
 9163TIP3    H148904   1.433   0.277  16.463 -0.6346  0.3322  0.5636
 9163TIP3    H248905   1.505   0.325  16.340  1.0201 -0.4839  1.1900
 9164TIP3   OH248906   0.431   1.853   1.802  0.3093 -0.2288 -0.5741
 9164TIP3    H148907   0.455   1.899   1.883  1.4399  0.3553 -1.2238
 9164TIP3    H248908   0.449   1.761   1.820  1.1394 -0.0318 -0.3514
 9165TIP3   OH248909   4.754   3.129  15.384  0.5054  0.3310 -0.3603
 9165TIP3    H148910   4.721   3.126  15.473  1.2226  0.3827 -0.0848
 9165TIP3    H248911   4.828   3.190  15.388 -0.8396  2.1248 -1.4525
 9166TIP3   OH248912   0.424   5.425   3.697  0.2085  0.6796 -0.8696
 9166TIP3    H148913   0.510   5.465   3.706  1.8178 -2.9002  2.4324
 9166TIP3    H248914   0.436   5.359   3.628  1.4640 -2.2722  1.9093
 9167TIP3   OH248915   0.895   1.492   3.672 -0.6171 -0.6116  0.3411
 9167TIP3    H148916   0.939   1.407   3.668  1.8510  0.3716  2.7550
 9167TIP3    H248917   0.838   1.485   3.749  1.3850  0.5502  2.0221
 9168TIP3   OH248918   4.393   0.914   2.206  0.3847 -0.1167 -0.1762
 9168TIP3    H148919   4.349   0.888   2.125 -0.5042  1.6204 -0.2986
 9168TIP3    H248920   4.480   0.876   2.199 -0.0719 -1.0084 -1.3881
 9169TIP3   OH248921   1.218   0.866  11.189  0.4561 -0.1283  0.3723
 9169TIP3    H148922   1.258   0.953  11.188  0.6189 -0.1936  0.8657
 9169TIP3    H248923   1.148   0.873  11.254 -0.1515 -0.0993 -0.2740
 9170TIP3   OH248924   5.420   2.684   6.494  0.5506  0.0291  0.1878
 9170TIP3    H148925   5.394   2.769   6.457 -0.7741  0.5594  2.1815
 9170TIP3    H248926   5.349   2.625   6.468 -0.0942  0.2714  1.3625
 9171TIP3   OH248927   4.601   4.058  14.586 -0.5810  0.0475  0.1992
 9171TIP3    H148928   4.563   4.068  14.499  0.7222  2.2721 -0.1876
 9171TIP3    H248929   4.623   3.965  14.592  0.5343  0.0477 -2.4069
 9172TIP3   OH248930   6.416   0.951  15.071 -0.3508  0.1912  0.3742
 9172TIP3    H148931   6.382   1.030  15.030 -1.6720 -1.2545 -1.5402
 9172TIP3    H248932   6.511   0.966  15.076 -0.6390  2.1378  0.7392
 9173TIP3   OH248933   1.762   1.784  11.741  0.4091 -0.1277 -0.2552
 9173TIP3    H148934   1.698   1.842  11.781 -0.2115 -0.7793 -0.2840
 9173TIP3    H248935   1.839   1.791  11.798 -0.0486 -0.1324  0.3737
 9174TIP3   OH248936   5.807   0.907  14.775 -0.0248  0.2429 -0.0886
 9174TIP3    H148937   5.829   0.870  14.860  0.1587  0.3691 -0.0822
 9174TIP3    H248938   5.711   0.902  14.771  0.0665 -1.8840 -0.8312
 9175TIP3   OH248939   0.250   3.309  15.764 -0.3258 -0.0425 -0.5632
 9175TIP3    H148940   0.199   3.358  15.699  0.6390  1.1975 -0.4386
 9175TIP3    H248941   0.332   3.289  15.719 -0.3871 -0.8435 -0.3298
 9176TIP3   OH248942   0.158   1.341  13.494  0.2062  0.2125  0.1808
 9176TIP3    H148943   0.075   1.381  13.518  0.8091  2.1580 -0.7344
 9176TIP3    H248944   0.221   1.379  13.556  0.7140  0.3404 -0.4012
 9177TIP3   OH248945   3.612   4.231  12.352 -0.1422 -0.1397 -0.6555
 9177TIP3    H148946   3.650   4.306  12.306 -1.0261  0.6033 -0.2180
 9177TIP3    H248947   3.623   4.157  12.292  1.4894  0.1441 -0.7609
 9178TIP3   OH248948   0.865   0.109   1.468  0.0667  0.1564 -0.5128
 9178TIP3    H148949   0.809   0.183   1.492 -0.2187  0.0392 -0.7948
 9178TIP3    H248950   0.940   0.116   1.526 -1.0107 -0.6540  1.0477
 9179TIP3   OH248951   6.605   6.158  12.644 -0.1408  1.1038 -0.4136
 9179TIP3    H148952   6.550   6.204  12.708 -0.7753  0.9595 -0.8513
 9179TIP3    H248953   6.658   6.099  12.697 -1.4354  0.1899 -0.1016
 9180TIP3   OH248954   0.863   5.016   2.709  0.6647  0.1491 -0.9609
 9180TIP3    H148955   0.853   5.106   2.680  3.7282  0.9552  0.0473
 9180TIP3    H248956   0.898   4.969   2.633  2.3364  0.6905 -0.5725
 9181TIP3   OH248957   1.787   1.728  15.194  0.3609 -0.0869  0.0652
 9181TIP3    H148958   1.802   1.637  15.171  0.3109  0.0157 -0.3808
 9181TIP3    H248959   1.844   1.744  15.269  2.2506  0.1996 -1.3576
 9182TIP3   OH248960   4.766   2.370  11.157 -0.3219  0.3470 -0.5466
 9182TIP3    H148961   4.675   2.344  11.145 -0.0761 -0.8162 -0.0450
 9182TIP3    H248962   4.761   2.457  11.197 -1.2101  0.3675 -0.6860
 9183TIP3   OH248963   2.353   0.012   0.710 -0.6557 -0.2900  0.2088
 9183TIP3    H148964   2.263   0.030   0.739 -2.0318 -3.6777 -1.4170
 9183TIP3    H248965   2.372  -0.075   0.745 -0.0615 -1.8621 -3.5662
 9184TIP3   OH248966   0.443   4.568   3.046 -0.6773 -0.0298  0.0545
 9184TIP3    H148967   0.349   4.552   3.052 -0.4202 -1.8129 -0.0809
 9184TIP3    H248968   0.461   4.631   3.115 -1.9475  0.2796  0.1338
 9185TIP3   OH248969   5.314   2.618  16.438  1.0822 -0.4543 -0.0405
 9185TIP3    H148970   5.364   2.605  16.357  0.6634 -0.7328 -0.2545
 9185TIP3    H248971   5.237   2.669  16.411  1.3139  0.0989  0.3174
 9186TIP3   OH248972   6.146   1.105  11.631  0.5648 -0.1979  0.0842
 9186TIP3    H148973   6.175   1.041  11.567  0.6584 -0.2983  0.2268
 9186TIP3    H248974   6.061   1.136  11.598  1.1060  0.5331 -0.6453
 9187TIP3   OH248975   4.931   4.992   3.529  0.1500 -0.0045  0.4773
 9187TIP3    H148976   4.927   4.932   3.455  2.3452 -1.4235  1.4285
 9187TIP3    H248977   4.888   5.072   3.497  0.0909 -0.9303 -1.9449
 9188TIP3   OH248978   5.541   2.678  12.663 -0.3268 -0.3860 -0.1281
 9188TIP3    H148979   5.608   2.638  12.607 -1.0314 -1.2084 -0.4119
 9188TIP3    H248980   5.487   2.730  12.602 -1.7814 -2.1818 -0.4721
 9189TIP3   OH248981   2.380   3.266  14.257  0.0241 -0.0022  0.6022
 9189TIP3    H148982   2.401   3.204  14.188  0.1228 -1.5394  1.9372
 9189TIP3    H248983   2.441   3.339  14.244  0.7891 -0.7722 -0.2712
 9190TIP3   OH248984   0.028   0.209  12.041  0.3653 -0.1685  0.1907
 9190TIP3    H148985  -0.051   0.252  12.008 -0.6063 -0.6159  1.7775
 9190TIP3    H248986   0.048   0.143  11.975  0.1064  0.6959 -0.7957
 9191TIP3   OH248987   6.683   3.664   4.674 -0.7107  0.9543  0.0698
 9191TIP3    H148988   6.717   3.633   4.757  1.9651  2.6783 -0.2683
 9191TIP3    H248989   6.653   3.584   4.629  0.0289 -0.2994  1.7067
 9192TIP3   OH248990   4.746   6.518  13.863  0.8882  0.5247  0.2386
 9192TIP3    H148991   4.772   6.610  13.850 -0.9087  0.8302 -1.5879
 9192TIP3    H248992   4.695   6.496  13.786  0.2824 -1.6903  1.1919
 9193TIP3   OH248993   0.811   4.680  15.806  0.3380  0.1759  0.1518
 9193TIP3    H148994   0.773   4.615  15.747  1.6831  0.8521 -1.5402
 9193TIP3    H248995   0.886   4.636  15.846 -0.2184 -0.0865  0.9318
 9194TIP3   OH248996   5.962   5.706   0.408  0.2145 -0.0167  0.1922
 9194TIP3    H148997   5.962   5.793   0.366  0.2379 -1.4827 -3.1866
 9194TIP3    H248998   5.869   5.685   0.418  0.0827 -0.9243 -2.2796
 9195TIP3   OH248999   1.224   2.734   0.485  0.1638  0.4652 -0.4587
 9195TIP3    H149000   1.227   2.655   0.431  0.2867  0.5163 -0.5252
 9195TIP3    H249001   1.278   2.798   0.439  0.1878  0.5411 -0.3282
 9196TIP3   OH249002   4.171   0.401   2.467 -0.1834 -0.4657 -0.4510
 9196TIP3    H149003   4.174   0.434   2.377 -2.1350  1.0904 -0.0140
 9196TIP3    H249004   4.249   0.439   2.509 -0.6639  1.0419 -0.8304
 9197TIP3   OH249005   1.949   3.227   0.088 -0.1368 -0.8316 -0.6271
 9197TIP3    H149006   1.967   3.189   0.174  1.6917 -1.2944 -1.1732
 9197TIP3    H249007   1.954   3.322   0.103 -0.2266 -0.8969 -0.1563
 9198TIP3   OH249008   4.673   4.628  13.623  0.3454  0.5003 -0.4145
 9198TIP3    H149009   4.721   4.709  13.604 -1.6820  1.3346 -2.4721
 9198TIP3    H249010   4.737   4.558  13.608  0.8568  1.5046 -3.8311
 9199TIP3   OH249011   2.194   0.190   3.815 -0.5999  0.7060  0.2326
 9199TIP3    H149012   2.153   0.112   3.853 -1.6110  0.9921 -0.2448
 9199TIP3    H249013   2.216   0.244   3.890 -0.6535  0.3316  0.5225
 9200TIP3   OH249014   5.041   0.191   1.310 -0.2081  0.8142  0.0123
 9200TIP3    H149015   5.055   0.201   1.405  0.3372  0.8565 -0.0701
 9200TIP3    H249016   4.964   0.134   1.304  0.9787 -0.9510  0.5082
 9201TIP3   OH249017   4.423   5.227  11.439 -0.0647  0.3539 -0.1126
 9201TIP3    H149018   4.447   5.256  11.350  0.1922  0.8595  0.1158
 9201TIP3    H249019   4.365   5.296  11.471  1.6436  1.3600  0.9565
 9202TIP3   OH249020   2.754   5.206   0.623 -0.2647  0.0232  0.4884
 9202TIP3    H149021   2.724   5.193   0.713 -1.5187  1.6320  0.3425
 9202TIP3    H249022   2.675   5.197   0.569 -0.1039  1.9125 -0.1453
 9203TIP3   OH249023   3.860   4.941   2.738  0.4963  0.6560  0.1237
 9203TIP3    H149024   3.872   4.887   2.660  1.3416  0.9509  0.0430
 9203TIP3    H249025   3.934   4.920   2.795  1.4450  2.4735 -0.3507
 9204TIP3   OH249026   4.990   3.941   0.895 -0.9438 -0.4308 -0.3170
 9204TIP3    H149027   4.960   3.957   0.984  0.3570  4.8928 -0.5091
 9204TIP3    H249028   5.072   3.893   0.906  0.4513  2.1339  1.7222
 9205TIP3   OH249029   2.542   2.393   5.839 -0.4344 -0.1278 -0.7495
 9205TIP3    H149030   2.585   2.477   5.855 -1.8237  0.7058 -1.2188
 9205TIP3    H249031   2.482   2.410   5.766 -2.4135 -0.8962  0.6079
 9206TIP3   OH249032   4.435   1.425  11.053  0.0021  0.3331  0.0467
 9206TIP3    H149033   4.421   1.354  11.116 -0.5689  0.8030  0.4651
 9206TIP3    H249034   4.394   1.394  10.973  0.6471 -0.2302 -0.0761
 9207TIP3   OH249035   5.691   6.230  16.667 -0.6955 -0.0306  0.0268
 9207TIP3    H149036   5.690   6.285  16.589 -0.5077 -0.2257 -0.1160
 9207TIP3    H249037   5.784   6.224  16.691 -0.5307 -1.4645 -0.8119
 9208TIP3   OH249038   1.599   0.522   2.096  0.8375  0.1696 -0.0080
 9208TIP3    H149039   1.537   0.483   2.158  0.6438  0.6579  0.1160
 9208TIP3    H249040   1.598   0.615   2.118  1.2113  0.2594 -0.3648
 9209TIP3   OH249041   2.094   1.995  14.999  0.2125  0.3612 -0.0447
 9209TIP3    H149042   2.107   2.088  14.983 -0.7146  0.3905 -0.7442
 9209TIP3    H249043   2.019   1.972  14.944  1.8511 -1.3203 -1.7533
 9210TIP3   OH249044   3.960   4.189  14.395 -0.1765  0.5650 -0.2693
 9210TIP3    H149045   3.890   4.201  14.459 -0.5810 -0.4628 -0.5010
 9210TIP3    H249046   4.029   4.143  14.443  1.0388  2.9298  0.3995
 9211TIP3   OH249047   6.269   5.554   5.180  0.2986  0.5264  0.0419
 9211TIP3    H149048   6.295   5.489   5.115 -1.4096  1.3446 -1.5525
 9211TIP3    H249049   6.179   5.577   5.157 -2.1905 -2.2132  5.2262
 9212TIP3   OH249050   2.246   6.200   2.130 -0.4713  0.0685  0.4974
 9212TIP3    H149051   2.201   6.168   2.052 -2.1835 -1.0244  1.8554
 9212TIP3    H249052   2.184   6.262   2.170 -0.2980 -0.5476  1.7774
 9213TIP3   OH249053   3.880   2.764  14.201 -0.4167  0.2628 -0.0556
 9213TIP3    H149054   3.915   2.853  14.197  2.1411 -0.2778  4.0867
 9213TIP3    H249055   3.787   2.775  14.220 -0.0101  2.1432  1.1573
 9214TIP3   OH249056   2.317   0.530   3.211  0.0144  0.2402  0.6459
 9214TIP3    H149057   2.369   0.456   3.242  0.0296 -0.4212 -0.8613
 9214TIP3    H249058   2.242   0.490   3.168  0.7913  1.0109 -1.5597
 9215TIP3   OH249059   3.901   3.876  17.168  0.0495 -0.4519 -0.1261
 9215TIP3    H149060   3.840   3.950  17.157  1.7241  0.7598 -1.9674
 9215TIP3    H249061   3.845   3.799  17.171 -1.6537  0.7148 -0.3588
 9216TIP3   OH249062   1.049   4.807   3.871  0.2435 -0.0782  0.3495
 9216TIP3    H149063   1.000   4.816   3.953  0.8008 -0.9299  0.7873
 9216TIP3    H249064   0.983   4.818   3.802 -0.3994 -0.3107  0.9202
 9217TIP3   OH249065   3.146   1.772  16.729  0.6497 -0.2783  0.2481
 9217TIP3    H149066   3.135   1.687  16.771 -1.0751 -0.3309 -0.2611
 9217TIP3    H249067   3.117   1.836  16.794  1.6250 -0.0707  0.5042
 9218TIP3   OH249068   0.146   3.549   2.965 -0.5426 -0.2118  0.1772
 9218TIP3    H149069   0.143   3.471   3.020  0.6827 -0.3568  0.0585
 9218TIP3    H249070   0.230   3.543   2.919 -0.6527  0.9282 -0.2007
 9219TIP3   OH249071   0.815   0.805   2.763  0.5096  0.3331  0.5204
 9219TIP3    H149072   0.861   0.888   2.749 -0.1841  1.0411  2.1757
 9219TIP3    H249073   0.855   0.769   2.842  0.7585 -0.9096 -0.1488
 9220TIP3   OH249074   4.502   0.738  16.589 -0.2531  0.0356  0.4187
 9220TIP3    H149075   4.461   0.783  16.663 -0.8332  1.1300 -0.5371
 9220TIP3    H249076   4.595   0.756  16.597 -0.1179 -1.0842  1.6853
 9221TIP3   OH249077   4.171   6.757  13.751  0.1586  0.1617 -0.1049
 9221TIP3    H149078   4.108   6.700  13.795 -1.1232  2.3118  1.0952
 9221TIP3    H249079   4.183   6.830  13.813  0.8826  1.6924 -1.9512
 9222TIP3   OH249080   5.145   1.684   6.019 -0.6231 -0.2308 -0.9379
 9222TIP3    H149081   5.123   1.745   6.090 -0.4251  0.3936 -1.4036
 9222TIP3    H249082   5.129   1.597   6.057 -0.8299  0.0999 -0.2354
 9223TIP3   OH249083   2.600   3.497  13.258  0.1474 -0.0028  0.0749
 9223TIP3    H149084   2.683   3.450  13.253 -0.8200 -1.6860 -1.4060
 9223TIP3    H249085   2.564   3.492  13.170 -1.0082  1.7400  0.3973
 9224TIP3   OH249086   2.130   1.631   0.763 -0.2315  0.2932 -0.1272
 9224TIP3    H149087   2.180   1.711   0.773  1.4988 -0.7898  0.3547
 9224TIP3    H249088   2.042   1.660   0.738  0.6316  2.2713 -1.0794
 9225TIP3   OH249089   3.346   6.328   4.746 -0.5727 -0.3942 -0.3762
 9225TIP3    H149090   3.362   6.400   4.807  0.4152  0.3211 -1.4190
 9225TIP3    H249091   3.257   6.299   4.765 -0.8638  0.8739  0.3155
 9226TIP3   OH249092   3.870   5.207  10.977  0.5256  0.5652  0.0187
 9226TIP3    H149093   3.776   5.224  10.969  0.2589 -1.1636 -0.8874
 9226TIP3    H249094   3.906   5.232  10.892  0.9466  1.4586  0.4466
 9227TIP3   OH249095   4.680   5.455   4.827  0.0174  0.0575 -0.2715
 9227TIP3    H149096   4.733   5.429   4.903 -1.5539  0.0846  0.8889
 9227TIP3    H249097   4.598   5.487   4.865 -0.4884  0.8714 -1.9621
 9228TIP3   OH249098   4.077   1.512  12.552  0.1149 -0.6492 -0.4210
 9228TIP3    H149099   4.082   1.417  12.556  1.3772 -0.5860  0.0314
 9228TIP3    H249100   4.150   1.542  12.606 -1.1091  0.5927  0.6429
 9229TIP3   OH249101   0.223   2.134   4.885  0.3702  0.1058 -0.2421
 9229TIP3    H149102   0.228   2.142   4.980  1.4237 -1.5993 -0.1139
 9229TIP3    H249103   0.155   2.196   4.859 -2.0782 -1.4836  1.9242
 9230TIP3   OH249104   3.821   5.260   4.497  0.3074 -0.4791  0.0657
 9230TIP3    H149105   3.862   5.176   4.519 -0.9644 -0.5293  2.6033
 9230TIP3    H249106   3.894   5.321   4.495  0.9094 -1.0819  1.6039
 9231TIP3   OH249107   3.220   0.410   3.574 -0.2475  0.8894  0.3490
 9231TIP3    H149108   3.253   0.422   3.663 -2.4573 -1.4235  1.6238
 9231TIP3    H249109   3.206   0.315   3.566 -4.2213  1.3646 -0.8063
 9232TIP3   OH249110   2.859   3.356   0.918 -0.0407 -0.1548  0.5342
 9232TIP3    H149111   2.890   3.364   0.828 -0.4438 -1.1578  0.2907
 9232TIP3    H249112   2.782   3.300   0.911 -0.5331  0.4036  1.4126
 9233TIP3   OH249113   2.340   1.345   1.541 -0.0335 -0.0531 -0.0179
 9233TIP3    H149114   2.323   1.251   1.528  2.0472 -0.3639 -0.8968
 9233TIP3    H249115   2.294   1.388   1.469 -0.0037 -0.5011 -0.3062
 9234TIP3   OH249116   2.855   3.628   4.415 -0.5672 -0.3842 -0.1887
 9234TIP3    H149117   2.773   3.633   4.366  0.3780  0.4952 -1.7656
 9234TIP3    H249118   2.889   3.717   4.415  1.0053 -0.9519 -0.7078
 9235TIP3   OH249119   3.320   6.535   1.331 -0.3540 -0.0026 -0.6568
 9235TIP3    H149120   3.302   6.546   1.238  1.5776 -2.5930 -1.4504
 9235TIP3    H249121   3.254   6.472   1.361 -0.7503  0.5588 -0.3222
 9236TIP3   OH249122   5.248   5.386   5.110  0.2617 -0.6231  0.0292
 9236TIP3    H149123   5.272   5.479   5.114  0.2267 -0.6406  1.6501
 9236TIP3    H249124   5.183   5.380   5.041  0.4949  0.5128 -0.3009
 9237TIP3   OH249125   6.771   5.185   5.125 -0.5491  0.3561 -0.0281
 9237TIP3    H149126   6.775   5.279   5.142 -0.2066  0.7755 -2.1286
 9237TIP3    H249127   6.678   5.167   5.111 -0.6549  0.3020  0.7097
 9238TIP3   OH249128   6.776   6.454   2.510 -0.4388 -0.3980  0.7100
 9238TIP3    H149129   6.844   6.392   2.483  1.1524  0.9509  1.4671
 9238TIP3    H249130   6.694   6.405   2.498  0.6798 -2.3575  0.5160
 9239TIP3   OH249131   1.308   5.145   3.120 -0.5542  0.3321 -0.2418
 9239TIP3    H149132   1.318   5.237   3.144 -2.8808  0.1394  1.8470
 9239TIP3    H249133   1.262   5.147   3.036 -0.4734  1.0667 -0.2760
 9240TIP3   OH249134   3.407   6.008  13.806  0.1764  0.1608  0.0299
 9240TIP3    H149135   3.334   5.976  13.752 -0.9637 -0.6630  1.9440
 9240TIP3    H249136   3.474   5.941  13.797 -1.1971 -1.5979  1.9550
 9241TIP3   OH249137   2.258   4.912  13.915 -0.9165  0.0920  0.0883
 9241TIP3    H149138   2.277   4.999  13.881 -1.5570  0.8402  1.5480
 9241TIP3    H249139   2.315   4.853  13.865  1.3057  1.6181  0.6863
 9242TIP3   OH249140   3.303   4.330   3.467 -0.0441  0.1268 -0.4969
 9242TIP3    H149141   3.337   4.252   3.511 -0.0121  0.2717 -0.2635
 9242TIP3    H249142   3.310   4.309   3.373  2.3011  0.7870 -0.5331
 9243TIP3   OH249143   6.415   4.709   1.531  0.3486 -0.3213  0.0985
 9243TIP3    H149144   6.379   4.798   1.535 -1.4482 -0.8091 -2.4040
 9243TIP3    H249145   6.508   4.720   1.550  0.0492  1.9609  0.6421
 9244TIP3   OH249146   0.268   5.413  17.211 -0.8958 -0.2675  0.3820
 9244TIP3    H149147   0.316   5.448  17.287 -0.1038  0.6072 -0.4963
 9244TIP3    H249148   0.216   5.487  17.180  0.1058 -0.0970 -0.9573
 9245TIP3   OH249149   3.835   6.018  12.223  0.7377 -0.0242 -0.4732
 9245TIP3    H149150   3.878   5.992  12.304  2.5163  0.3654 -1.2264
 9245TIP3    H249151   3.863   5.952  12.159 -0.7286 -0.3903 -0.7649
 9246TIP3   OH249152   4.078   5.879   0.869 -0.3423 -0.3657 -0.7490
 9246TIP3    H149153   4.127   5.921   0.798 -0.7497  1.9866  0.2529
 9246TIP3    H249154   3.988   5.905   0.854 -0.2536  1.5607  1.4100
 9247TIP3   OH249155   4.266   0.733   1.748  0.0435  0.0866 -0.2580
 9247TIP3    H149156   4.263   0.654   1.695 -0.8706  0.0009 -0.0939
 9247TIP3    H249157   4.344   0.780   1.718  1.3627 -1.4821  0.5398
 9248TIP3   OH249158   6.769   5.198  13.002  0.3382 -0.0888 -0.0620
 9248TIP3    H149159   6.832   5.127  13.009 -0.4862 -0.6903  1.6945
 9248TIP3    H249160   6.707   5.184  13.074 -1.6007  0.6851 -1.4811
 9249TIP3   OH249161   6.736   1.700   1.896 -0.0748 -0.3552  0.3866
 9249TIP3    H149162   6.777   1.769   1.844  3.1050 -0.6937  2.1547
 9249TIP3    H249163   6.644   1.726   1.903 -0.1126  0.9386 -3.2098
 9250TIP3   OH249164   6.769   2.430  10.313 -0.0958  0.0198 -0.5586
 9250TIP3    H149165   6.838   2.369  10.339 -0.1115 -0.2845 -1.2061
 9250TIP3    H249166   6.691   2.398  10.359  0.1652  0.3058  0.0959
 9251TIP3   OH249167   4.897   3.226  11.569  0.4031 -0.0485 -0.6637
 9251TIP3    H149168   4.891   3.131  11.565  1.9023 -0.4043  2.5118
 9251TIP3    H249169   4.989   3.244  11.587  0.2308  2.0817 -1.5450
 9252TIP3   OH249170   0.546   4.197   1.743 -0.4110  0.0414  0.2875
 9252TIP3    H149171   0.629   4.214   1.699  0.3560 -0.8905  1.3288
 9252TIP3    H249172   0.525   4.279   1.789 -0.5020  0.5460 -0.6252
 9253TIP3   OH249173   3.462   1.244  11.523 -0.0931  0.2089  0.2374
 9253TIP3    H149174   3.443   1.337  11.513 -1.9615  0.0564  1.8235
 9253TIP3    H249175   3.492   1.235  11.614  1.5240 -0.5679 -0.3232
 9254TIP3   OH249176   1.870   3.393  14.979 -0.9067  0.0276  0.4440
 9254TIP3    H149177   1.904   3.367  14.893 -1.2702  0.6696  0.0995
 9254TIP3    H249178   1.917   3.474  15.000 -1.1324  0.1065  0.6519
 9255TIP3   OH249179   5.374   2.510   3.840 -0.2387  0.1321  0.2731
 9255TIP3    H149180   5.393   2.471   3.754  0.0052  2.2932 -0.7003
 9255TIP3    H249181   5.450   2.485   3.894 -0.0028 -0.5611 -0.3533
 9256TIP3   OH249182   1.966   6.412  11.965  0.0316  0.4417 -0.2701
 9256TIP3    H149183   1.966   6.316  11.969 -3.0177  0.3092 -0.8715
 9256TIP3    H249184   2.017   6.439  12.041  1.3058 -1.6361 -0.3127
 9257TIP3   OH249185   4.757   2.191   2.745  0.3638  0.0764  0.5041
 9257TIP3    H149186   4.852   2.185   2.748  0.3287 -0.2796  1.2124
 9257TIP3    H249187   4.737   2.272   2.790  0.2375 -1.0272  2.5511
 9258TIP3   OH249188   6.269   3.906   1.592  0.4728  0.2931 -0.6393
 9258TIP3    H149189   6.265   3.934   1.501 -0.9270 -0.0257 -0.6909
 9258TIP3    H249190   6.187   3.859   1.607  1.5782 -1.5056  0.1927
 9259TIP3   OH249191   0.646   5.667  11.644 -0.3963  0.8385  0.2021
 9259TIP3    H149192   0.643   5.639  11.553  1.0221 -0.3547  0.4802
 9259TIP3    H249193   0.739   5.674  11.664 -0.6299 -0.4038  1.9704
 9260TIP3   OH249194   1.299   2.135  15.478  0.8433  0.2816  0.0101
 9260TIP3    H149195   1.258   2.220  15.462 -3.3630 -1.4053  0.5313
 9260TIP3    H249196   1.306   2.129  15.573 -0.1150 -0.3698  0.0627
 9261TIP3   OH249197   5.432   3.906  16.476  0.0601 -0.5261  0.6795
 9261TIP3    H149198   5.375   3.834  16.503 -0.0593 -0.3990  0.7697
 9261TIP3    H249199   5.430   3.904  16.380  1.8462 -2.0675  0.6205
 9262TIP3   OH249200   1.070   3.269  10.758 -0.0092  0.1119  0.3551
 9262TIP3    H149201   1.083   3.268  10.664 -1.0133  0.9485  0.1949
 9262TIP3    H249202   1.118   3.345  10.789 -0.7416  0.5885  0.3425
 9263TIP3   OH249203   5.548   0.700  16.584  0.0568  0.3936 -0.3018
 9263TIP3    H149204   5.542   0.683  16.490 -0.8319  0.1084 -0.2025
 9263TIP3    H249205   5.615   0.638  16.615 -0.8898 -0.7585 -0.4735
 9264TIP3   OH249206   0.127   5.958  17.177 -0.0476 -0.1207 -0.0903
 9264TIP3    H149207   0.158   6.029  17.231 -2.2296  0.9277 -0.1033
 9264TIP3    H249208   0.099   6.000  17.095  1.8796 -1.4791 -1.5436
 9265TIP3   OH249209   2.413   5.086  16.660  0.0426  0.3485  0.1458
 9265TIP3    H149210   2.497   5.044  16.640  1.7958  1.1264  4.7278
 9265TIP3    H249211   2.424   5.176  16.629  0.1664  0.0293 -0.7911
 9266TIP3   OH249212   4.468   6.501  11.615  0.0653  0.2058 -0.3728
 9266TIP3    H149213   4.507   6.422  11.652 -0.0021  0.4199  0.1656
 9266TIP3    H249214   4.541   6.548  11.577  0.1375 -0.0128 -0.5094
 9267TIP3   OH249215   2.121   3.828  14.043 -0.3823 -0.4005  0.5308
 9267TIP3    H149216   2.139   3.755  13.984  0.4428  1.9041 -2.3267
 9267TIP3    H249217   2.048   3.874  14.002  1.7219  2.6274 -0.1915
 9268TIP3   OH249218   3.165   6.739  15.836  0.0482  0.0085  0.2907
 9268TIP3    H149219   3.163   6.685  15.915  0.4099 -0.0713  0.2452
 9268TIP3    H249220   3.244   6.711  15.790  2.2610  2.9032  1.9070
 9269TIP3   OH249221   3.790   3.960   2.285 -0.0142 -0.9679 -0.3490
 9269TIP3    H149222   3.797   3.875   2.328 -1.8887 -0.2362  1.5839
 9269TIP3    H249223   3.760   3.940   2.197 -0.9357 -2.3088  0.2269
 9270TIP3   OH249224   4.842   2.777  12.325  0.1155  0.6011  0.2330
 9270TIP3    H149225   4.764   2.815  12.285  0.2903  1.3318  0.5670
 9270TIP3    H249226   4.884   2.728  12.254  0.1109  1.3907 -0.3240
 9271TIP3   OH249227   5.247   5.126  10.454  0.1912 -0.1725 -0.3809
 9271TIP3    H149228   5.326   5.157  10.498 -1.7652  1.9769  1.9244
 9271TIP3    H249229   5.225   5.044  10.499 -0.0237  0.3089  0.3911
 9272TIP3   OH249230   6.721   5.441  12.876 -0.2363  0.1961 -0.1442
 9272TIP3    H149231   6.724   5.345  12.878 -0.8527  0.0654 -2.5825
 9272TIP3    H249232   6.729   5.463  12.784 -1.8358  2.4477  0.1855
 9273TIP3   OH249233   4.034   2.420  12.533 -0.0229 -0.2661 -0.7308
 9273TIP3    H149234   4.091   2.349  12.563 -1.9215 -0.3671  3.2558
 9273TIP3    H249235   4.085   2.500  12.548 -0.3351 -0.4336  1.6268
 9274TIP3   OH249236   5.217   4.415   4.071  0.2615  0.0648 -0.3088
 9274TIP3    H149237   5.193   4.328   4.102 -2.4287  0.4007 -1.2020
 9274TIP3    H249238   5.221   4.407   3.976 -2.0673  1.2662 -0.5888
 9275TIP3   OH249239   6.591   2.176  10.624 -0.1077  0.4350  0.1422
 9275TIP3    H149240   6.507   2.137  10.651 -0.0228 -1.3102 -1.9229
 9275TIP3    H249241   6.566   2.249  10.568 -0.2686 -0.4072 -0.8991
 9276TIP3   OH249242   6.369   5.595   5.475 -0.3429  0.2482 -0.3268
 9276TIP3    H149243   6.307   5.663   5.499  0.1632  1.1544 -1.4862
 9276TIP3    H249244   6.344   5.570   5.386  0.2160 -0.2250 -0.3554
 9277TIP3   OH249245   0.447   3.979  13.949  0.1013 -0.0791  0.5893
 9277TIP3    H149246   0.482   3.906  14.000 -0.0248  1.2497  2.7045
 9277TIP3    H249247   0.517   4.045  13.949 -0.2211  0.2792 -0.2578
 9278TIP3   OH249248   5.249   2.482  11.941  0.3674  0.0559 -0.3691
 9278TIP3    H149249   5.244   2.500  12.035  0.7484  1.1012 -0.5353
 9278TIP3    H249250   5.167   2.515  11.906  0.2323 -0.3200 -0.4181
 9279TIP3   OH249251   4.604   2.274  16.586 -0.0441 -0.6005 -0.2001
 9279TIP3    H149252   4.560   2.190  16.597  0.7637 -1.1315 -0.8320
 9279TIP3    H249253   4.547   2.324  16.529  0.2240 -1.3330 -1.1315
 9280TIP3   OH249254   3.408   6.135  13.003 -0.3897  0.2257 -0.2612
 9280TIP3    H149255   3.475   6.123  13.070 -0.8622  0.2480  0.2226
 9280TIP3    H249256   3.457   6.149  12.922  0.1857 -0.5105 -0.0479
 9281TIP3   OH249257   6.550   0.366  10.842 -0.5762  0.4839 -0.6560
 9281TIP3    H149258   6.570   0.415  10.763 -1.4520 -0.4667 -1.4926
 9281TIP3    H249259   6.462   0.397  10.867 -0.3488  0.7003 -0.1129
 9282TIP3   OH249260   1.509   6.040  13.934 -0.0557 -0.3618 -0.1089
 9282TIP3    H149261   1.559   6.055  13.854 -0.2885 -0.1875 -0.2231
 9282TIP3    H249262   1.421   6.017  13.903 -0.7832  1.8779  0.1016
 9283TIP3   OH249263   4.467   6.757  15.610  0.2269 -0.1882  0.2626
 9283TIP3    H149264   4.429   6.713  15.686 -0.0797  1.2832  1.0004
 9283TIP3    H249265   4.442   6.849  15.620  3.0264  0.6840  0.2298
 9284TIP3   OH249266   0.176   4.002  17.240  0.0508  0.5131 -0.3741
 9284TIP3    H149267   0.248   3.942  17.261 -0.6493 -0.1153  0.3213
 9284TIP3    H249268   0.192   4.029  17.150  0.7607 -0.1971 -0.4721
 9285TIP3   OH249269   6.419   0.365  12.835  0.0500 -1.3324 -0.2115
 9285TIP3    H149270   6.413   0.286  12.889 -1.0479 -0.2125  1.3934
 9285TIP3    H249271   6.327   0.391  12.821  0.3239  1.4064  2.0650
 9286TIP3   OH249272   6.272   4.079   3.956 -0.6449  0.5411 -0.0041
 9286TIP3    H149273   6.298   4.108   4.044  0.3546  1.7369 -0.6607
 9286TIP3    H249274   6.177   4.070   3.961 -0.6235  0.7977  1.1475
 9287TIP3   OH249275   4.419   1.757  15.296  0.2838  0.7618 -0.2364
 9287TIP3    H149276   4.434   1.665  15.275 -2.5899  0.5947 -1.9893
 9287TIP3    H249277   4.411   1.801  15.212  0.1104  2.3542  0.5669
 9288TIP3   OH249278   5.842   2.678  16.256  0.4836 -0.2509  0.0547
 9288TIP3    H149279   5.899   2.737  16.303  1.7847  0.0405 -1.7782
 9288TIP3    H249280   5.772   2.734  16.222 -0.4428 -0.4583  1.5354
 9289TIP3   OH249281   0.575   4.715  15.548  0.4644 -0.2596 -0.0734
 9289TIP3    H149282   0.543   4.708  15.458 -0.9140  1.1985  0.2506
 9289TIP3    H249283   0.540   4.798  15.579  0.0186 -1.2133  2.1517
 9290TIP3   OH249284   5.604   1.387  11.564 -0.0042  0.6056 -0.0967
 9290TIP3    H149285   5.633   1.355  11.478 -2.2275 -1.5571 -0.1347
 9290TIP3    H249286   5.615   1.311  11.622 -1.1053  1.1793  0.8937
 9291TIP3   OH249287   5.168   1.251   1.784  0.2883 -0.0700  0.2372
 9291TIP3    H149288   5.117   1.170   1.776  0.1240  0.1866 -1.9672
 9291TIP3    H249289   5.171   1.269   1.878 -1.5561 -1.4498  0.6089
 9292TIP3   OH249290   4.129   4.668   5.349 -0.0055  0.0202  0.1479
 9292TIP3    H149291   4.054   4.710   5.307  0.2245  0.3574  0.0637
 9292TIP3    H249292   4.201   4.731   5.338  0.3470 -0.3948  0.0237
 9293TIP3   OH249293   2.322   5.782   6.771  0.7561 -0.7211 -0.2694
 9293TIP3    H149294   2.378   5.706   6.753 -0.1746 -1.4151 -0.3286
 9293TIP3    H249295   2.247   5.770   6.713 -0.4806 -0.9649  1.3035
 9294TIP3   OH249296   5.003   0.544   3.241  0.6526  0.5874  0.2386
 9294TIP3    H149297   5.084   0.587   3.271 -0.3791  2.5112  0.4295
 9294TIP3    H249298   4.988   0.579   3.154 -0.2237  0.6084  0.3901
 9295TIP3   OH249299   3.765   4.636   1.520 -0.3121 -0.3464  0.0892
 9295TIP3    H149300   3.689   4.612   1.467  0.2786 -2.5824  0.1310
 9295TIP3    H249301   3.805   4.552   1.542  1.2722  0.7070  1.4000
 9296TIP3   OH249302   2.825   0.863   0.717 -0.0222 -0.0575 -0.1915
 9296TIP3    H149303   2.806   0.873   0.810 -1.1214  0.4246 -0.4479
 9296TIP3    H249304   2.918   0.885   0.709 -0.1378  0.7938  0.6590
 9297TIP3   OH249305   3.537   6.365   2.138 -0.1449  0.1362  0.4560
 9297TIP3    H149306   3.601   6.374   2.067 -0.1333 -1.7646  0.1594
 9297TIP3    H249307   3.574   6.416   2.210  1.2065 -0.0748 -0.0479
 9298TIP3   OH249308   1.134   2.497  15.251 -0.5852  0.3410 -0.0552
 9298TIP3    H149309   1.218   2.543  15.246 -1.2221  1.4905 -0.6839
 9298TIP3    H249310   1.152   2.411  15.213  0.2407  0.6976 -0.5103
 9299TIP3   OH249311   6.221   5.903  13.091 -0.5244  0.2964  0.0690
 9299TIP3    H149312   6.178   5.821  13.117  1.7915 -0.3606  2.2305
 9299TIP3    H249313   6.267   5.880  13.010 -2.1078  0.3115 -0.8779
 9300TIP3   OH249314   5.648   6.243   4.554  0.4362  0.8065 -0.1631
 9300TIP3    H149315   5.589   6.199   4.615 -2.8947 -0.5794 -3.9493
 9300TIP3    H249316   5.592   6.304   4.505  2.6914  1.3770 -2.2344
 9301TIP3   OH249317   3.094   0.323  16.435  0.4322  0.1655  0.3024
 9301TIP3    H149318   3.072   0.231  16.421  0.0467  0.5307 -1.8869
 9301TIP3    H249319   3.189   0.323  16.449  0.2531 -0.6601  1.7394
 9302TIP3   OH249320   2.366   3.017   3.019 -0.1132 -0.6613  0.3198
 9302TIP3    H149321   2.302   3.070   2.972  2.1125  0.9047 -1.1409
 9302TIP3    H249322   2.395   3.073   3.091 -1.1046 -1.7842  1.6538
 9303TIP3   OH249323   0.859   2.849   1.658 -0.1607  0.5781 -0.2132
 9303TIP3    H149324   0.930   2.899   1.697  0.6086 -1.1878  0.7899
 9303TIP3    H249325   0.779   2.886   1.695  0.4292  0.6092  1.0863
 9304TIP3   OH249326   1.924   4.440   6.638 -0.3724 -0.0941  0.6114
 9304TIP3    H149327   1.840   4.394   6.631 -0.9067  0.9326  0.0400
 9304TIP3    H249328   1.986   4.385   6.589 -0.9159 -0.3916  0.2506
 9305TIP3   OH249329   5.003   5.836   6.468 -0.0509 -0.1448 -0.5780
 9305TIP3    H149330   4.946   5.870   6.399  1.4436 -1.1790 -2.4229
 9305TIP3    H249331   5.067   5.906   6.482 -0.7047  0.3140  0.2628
 9306TIP3   OH249332   1.449   0.878  15.869 -0.4317 -0.2622 -0.1839
 9306TIP3    H149333   1.414   0.968  15.872 -0.1006 -0.1119 -0.7886
 9306TIP3    H249334   1.434   0.850  15.779 -1.2000 -1.0890  0.1886
 9307TIP3   OH249335   5.553   3.468  13.162 -0.1043 -0.6702 -0.8627
 9307TIP3    H149336   5.518   3.554  13.186  1.1197 -0.4570  0.3185
 9307TIP3    H249337   5.622   3.488  13.099  2.2064 -0.4220  1.5671
 9308TIP3   OH249338   4.790   0.007   0.139  0.0288  0.2220 -0.4897
 9308TIP3    H149339   4.789  -0.068   0.079  0.2109 -0.4073  0.2632
 9308TIP3    H249340   4.858   0.064   0.105  0.9930 -0.7149 -0.2033
 9309TIP3   OH249341   0.530   4.075  14.994 -0.0013 -0.6824 -0.2612
 9309TIP3    H149342   0.535   4.169  15.009 -0.8228 -0.7712  0.7035
 9309TIP3    H249343   0.500   4.066  14.903 -2.2897  0.0559  0.3427
 9310TIP3   OH249344   4.892   5.608  14.033 -0.0209 -0.0928 -0.3082
 9310TIP3    H149345   4.965   5.658  14.070 -0.6227 -0.4341  1.4491
 9310TIP3    H249346   4.930   5.523  14.010  0.2057 -0.1903  0.3893
 9311TIP3   OH249347   1.377   2.079   3.985  0.1557 -0.0811  0.0258
 9311TIP3    H149348   1.442   2.069   3.916 -0.7191  0.1358 -0.8558
 9311TIP3    H249349   1.300   2.031   3.953  0.0480 -0.8250  1.2976
 9312TIP3   OH249350   2.942   0.430  11.595 -0.7809 -0.3255 -0.1951
 9312TIP3    H149351   2.936   0.523  11.614 -1.0964 -0.0757 -1.4473
 9312TIP3    H249352   2.851   0.399  11.595 -0.5826 -1.0914  2.2379
 9313TIP3   OH249353   1.452   6.694   0.426  0.3846  0.1738  0.1492
 9313TIP3    H149354   1.536   6.653   0.444  1.1975  1.6670 -0.0748
 9313TIP3    H249355   1.442   6.760   0.495 -0.9232 -0.3821  0.5456
 9314TIP3   OH249356   5.159   4.060   5.288 -0.4776  0.0861 -0.1933
 9314TIP3    H149357   5.229   4.078   5.351  1.2329 -1.5588 -1.5337
 9314TIP3    H249358   5.129   4.147   5.261 -0.0864  0.8220  1.6025
 9315TIP3   OH249359   2.403   1.054   5.943 -0.2855  0.8235 -0.1883
 9315TIP3    H149360   2.456   0.979   5.914 -0.8032  1.0322 -1.7292
 9315TIP3    H249361   2.369   1.027   6.029  0.5902 -0.1693 -0.1334
 9316TIP3   OH249362   3.063   6.722   0.900 -0.2456 -0.6865  0.0727
 9316TIP3    H149363   2.976   6.761   0.898  0.7845  1.7847 -1.2324
 9316TIP3    H249364   3.067   6.665   0.823 -0.8225 -1.1555  0.3823
 9317TIP3   OH249365   4.674   6.652  11.884  0.3411 -0.1375 -0.1270
 9317TIP3    H149366   4.711   6.567  11.860  1.1867  0.3800 -0.7838
 9317TIP3    H249367   4.636   6.685  11.802 -2.3524 -0.9882  0.7139
 9318TIP3   OH249368   0.960   2.771   2.763  0.3507  0.0240  0.0780
 9318TIP3    H149369   0.898   2.790   2.833  0.0425 -0.7412  0.0181
 9318TIP3    H249370   1.011   2.851   2.754 -0.5644  0.6320  0.1861
 9319TIP3   OH249371   5.978   1.115   4.749 -0.1547  0.2996 -0.4470
 9319TIP3    H149372   6.002   1.160   4.667 -0.4662  0.8405 -0.2432
 9319TIP3    H249373   5.969   1.023   4.723  3.2686 -0.1999 -0.3449
 9320TIP3   OH249374   6.194   6.275   3.504 -0.5771 -0.1344  0.6950
 9320TIP3    H149375   6.175   6.241   3.417  1.9121  2.0795 -0.8736
 9320TIP3    H249376   6.286   6.254   3.519 -0.3988  1.2865  1.8640
 9321TIP3   OH249377   5.544   1.337  15.230 -0.1617 -0.3651  0.4602
 9321TIP3    H149378   5.525   1.287  15.309  1.9210  1.4349  2.2358
 9321TIP3    H249379   5.504   1.423  15.246  1.2602  0.3918  0.0744
 9322TIP3   OH249380   1.607   6.018   3.125  0.2349  0.8450  0.3199
 9322TIP3    H149381   1.696   5.991   3.099  0.5038  2.0014  0.0048
 9322TIP3    H249382   1.611   6.022   3.220 -0.1095 -1.1909  0.4637
 9323TIP3   OH249383   4.461   1.053  16.599  0.4479  0.3901 -0.2101
 9323TIP3    H149384   4.526   1.059  16.669  0.8397  1.4728 -0.6365
 9323TIP3    H249385   4.397   1.121  16.620 -2.0838 -2.3426  1.6492
 9324TIP3   OH249386   1.410   1.598  14.757 -0.4532 -0.4036  0.4504
 9324TIP3    H149387   1.336   1.611  14.817  0.2503 -0.9109  1.4458
 9324TIP3    H249388   1.436   1.686  14.731 -1.5990 -0.2258 -0.1660
 9325TIP3   OH249389   4.669   4.544  15.526  0.2961 -0.0898  0.0105
 9325TIP3    H149390   4.626   4.514  15.606 -0.6471 -0.1542 -0.5120
 9325TIP3    H249391   4.726   4.471  15.501  0.9349  0.0968  0.8435
 9326TIP3   OH249392   0.189   1.369  14.007 -0.1654 -0.5086 -0.3249
 9326TIP3    H149393   0.124   1.353  14.075  0.5537  0.4424  0.6038
 9326TIP3    H249394   0.272   1.339  14.044  0.0306 -1.2718 -1.3203
 9327TIP3   OH249395   4.638   3.289  12.504  0.2951  0.1363  0.1873
 9327TIP3    H149396   4.678   3.257  12.585  0.1005 -0.8798 -0.1056
 9327TIP3    H249397   4.600   3.212  12.464  0.2533  0.6573 -0.8098
 9328TIP3   OH249398   5.976   5.956   2.750 -0.6406  0.4035 -0.0969
 9328TIP3    H149399   6.043   5.935   2.684  0.5939  0.7448  1.0173
 9328TIP3    H249400   5.919   5.879   2.751  0.1741 -0.2183 -0.5283
 9329TIP3   OH249401   1.042   4.926  16.138  0.6268 -0.5203  0.0404
 9329TIP3    H149402   1.019   4.837  16.163 -1.5786  0.1369  0.6160
 9329TIP3    H249403   1.059   4.921  16.044 -2.1476 -1.1796 -0.5383
 9330TIP3   OH249404   2.135   5.453  16.911 -0.1817 -0.1418 -0.2802
 9330TIP3    H149405   2.163   5.362  16.899 -0.9627 -0.5438  0.7776
 9330TIP3    H249406   2.207   5.493  16.960 -0.1062 -0.3666 -0.2017
 9331TIP3   OH249407   1.448   3.055  11.601  0.3056 -0.4258  0.0861
 9331TIP3    H149408   1.435   2.970  11.558  1.5995 -0.0573 -1.1321
 9331TIP3    H249409   1.535   3.083  11.571 -0.4093  1.6749 -0.1486
 9332TIP3   OH249410   4.786   5.496   3.735  0.0437  0.1466  0.3489
 9332TIP3    H149411   4.811   5.549   3.660 -0.6399  1.1561  0.8208
 9332TIP3    H249412   4.744   5.557   3.795  0.9494 -0.5502  1.7472
 9333TIP3   OH249413   0.281   4.456   3.249 -0.0982 -0.1360 -0.0092
 9333TIP3    H149414   0.291   4.379   3.305  1.2353 -0.9206 -1.2442
 9333TIP3    H249415   0.190   4.483   3.262 -1.6900 -3.8400 -1.8308
 9334TIP3   OH249416   6.076   3.054  14.039 -0.2634  0.5780 -0.1942
 9334TIP3    H149417   6.038   3.139  14.060 -0.0586  0.6601 -0.1520
 9334TIP3    H249418   6.142   3.040  14.108 -0.2516  0.4155 -0.2387
 9335TIP3   OH249419   4.542   0.480  11.701 -0.6757 -0.2692 -0.1346
 9335TIP3    H149420   4.559   0.473  11.607 -1.8377  1.0272 -0.4819
 9335TIP3    H249421   4.451   0.510  11.706 -0.9965 -1.3684  1.4449
 9336TIP3   OH249422   4.788   5.420  16.301 -0.3551  0.1649 -0.1178
 9336TIP3    H149423   4.709   5.440  16.351  0.0014  0.2992  0.3995
 9336TIP3    H249424   4.858   5.468  16.346  0.1119 -0.3779 -0.2549
 9337TIP3   OH249425   4.606   5.847  14.475 -0.4625  0.4775 -0.6774
 9337TIP3    H149426   4.668   5.911  14.439 -0.4983  0.5206 -0.6631
 9337TIP3    H249427   4.595   5.873  14.566  0.4067 -0.2355 -0.3574
 9338TIP3   OH249428   5.783   0.844  15.983  0.4837  0.5123 -0.5050
 9338TIP3    H149429   5.861   0.791  15.971  1.1308  1.2910  0.1360
 9338TIP3    H249430   5.714   0.781  16.004  1.6141  0.0190  2.0204
 9339TIP3   OH249431   3.059   0.322   2.202  0.0510 -0.5149 -0.0276
 9339TIP3    H149432   2.998   0.267   2.250  3.4331 -3.4295  1.3675
 9339TIP3    H249433   3.092   0.384   2.266  1.3366 -1.5499  0.3712
 9340TIP3   OH249434   6.161   0.976  17.091  0.4676  0.0615  0.1350
 9340TIP3    H149435   6.120   1.037  17.029  0.4830  0.3524  0.4087
 9340TIP3    H249436   6.238   1.024  17.123 -0.1711  0.3771  1.2487
 9341TIP3   OH249437   1.923   4.070   3.497 -0.5782  0.1328 -0.0935
 9341TIP3    H149438   1.906   4.161   3.520 -1.6789 -0.1307  0.2062
 9341TIP3    H249439   2.013   4.054   3.525 -0.5316  0.9849  0.2697
 9342TIP3   OH249440   5.734   5.248  12.577 -0.6777 -0.0075 -0.4310
 9342TIP3    H149441   5.660   5.218  12.523 -0.4128 -2.3483  0.3774
 9342TIP3    H249442   5.776   5.167  12.607  1.6623  1.2529 -0.0768
 9343TIP3   OH249443   5.989   1.213  15.366  0.3169  0.1220  0.0427
 9343TIP3    H149444   5.954   1.124  15.355 -0.3531  0.0188  2.4591
 9343TIP3    H249445   6.009   1.242  15.277 -0.0234 -2.2128 -0.8595
 9344TIP3   OH249446   3.085   1.425   1.022 -0.6919 -0.0179 -0.7061
 9344TIP3    H149447   3.096   1.444   1.116  2.4232  0.5914 -1.0667
 9344TIP3    H249448   3.036   1.500   0.989 -2.9432 -0.8251  0.5532
 9345TIP3   OH249449   6.260   4.835   2.500  0.0063  0.2289  0.2102
 9345TIP3    H149450   6.264   4.783   2.420  2.2227  2.1562 -1.0567
 9345TIP3    H249451   6.197   4.905   2.480 -1.3168 -0.6510  1.1183
 9346TIP3   OH249452   6.366   3.667   1.518 -0.9424  0.4653  0.2098
 9346TIP3    H149453   6.277   3.649   1.488 -0.8753 -0.9598  0.8099
 9346TIP3    H249454   6.362   3.757   1.550 -1.8403  0.8594 -0.9102
 9347TIP3   OH249455   1.956   3.364  16.820 -0.2680  0.3618 -0.0818
 9347TIP3    H149456   1.925   3.452  16.800  0.5143  0.2888 -1.7113
 9347TIP3    H249457   2.046   3.376  16.850 -0.9059  0.3088  2.0366
 9348TIP3   OH249458   3.461   0.464  14.977 -0.1028  0.0217  0.3100
 9348TIP3    H149459   3.501   0.543  14.941  1.7931 -0.5427  1.0502
 9348TIP3    H249460   3.394   0.439  14.913  2.4868 -0.4327 -2.4366
 9349TIP3   OH249461   6.594   2.304   5.589 -0.4488 -0.3474 -0.0152
 9349TIP3    H149462   6.518   2.326   5.643 -0.2204 -1.0594  0.6010
 9349TIP3    H249463   6.558   2.293   5.501 -1.2207 -1.5568  0.4281
 9350TIP3   OH249464   2.944   0.071   0.093  0.0803 -0.1540 -0.2020
 9350TIP3    H149465   2.951   0.052   0.187 -0.0677 -1.3845 -0.4212
 9350TIP3    H249466   2.996   0.150   0.080  0.4964 -0.2480  0.8349
 9351TIP3   OH249467   1.965   3.459  11.398  0.0628 -0.4394  0.1722
 9351TIP3    H149468   2.002   3.459  11.310 -0.4389  1.3794 -0.0777
 9351TIP3    H249469   1.938   3.368  11.413 -2.1962 -0.3670 -2.5824
 9352TIP3   OH249470   0.251   0.635  15.296  0.1222 -0.5239  0.3058
 9352TIP3    H149471   0.291   0.697  15.236  0.0712  1.1056  1.8585
 9352TIP3    H249472   0.179   0.596  15.247 -1.6600  2.7348  0.0590
 9353TIP3   OH249473   2.658   0.611  16.632 -0.0407  0.1537 -0.3387
 9353TIP3    H149474   2.599   0.679  16.598  1.8407  0.0057 -4.6703
 9353TIP3    H249475   2.744   0.653  16.631  0.7436 -1.3934 -0.0924
 9354TIP3   OH249476   2.025   5.890   5.726 -0.6195  0.0603 -0.2930
 9354TIP3    H149477   2.037   5.796   5.714  1.9927  0.0866  1.2972
 9354TIP3    H249478   2.072   5.930   5.652 -0.1332  0.1074  0.0367
 9355TIP3   OH249479   6.372   1.888   4.593  0.2073  0.1332  0.5094
 9355TIP3    H149480   6.466   1.890   4.579 -0.0826 -2.1414 -2.6521
 9355TIP3    H249481   6.338   1.962   4.541  0.1428  0.2980  0.7812
 9356TIP3   OH249482   1.185   0.382  15.206  1.0579 -0.1786  0.6445
 9356TIP3    H149483   1.199   0.288  15.213 -0.6013 -0.4280  1.2082
 9356TIP3    H249484   1.182   0.414  15.296 -0.5001  0.0120  0.5658
 9357TIP3   OH249485   6.044   4.998  15.291  0.3299  0.5960  0.2425
 9357TIP3    H149486   5.994   5.068  15.249  0.2243 -0.9096 -2.3161
 9357TIP3    H249487   5.977   4.940  15.329  0.3621  1.0021  0.9436
 9358TIP3   OH249488   3.527   5.395   5.692  0.1703 -0.3903  0.7420
 9358TIP3    H149489   3.443   5.352   5.673  1.0177 -1.9520  0.3415
 9358TIP3    H249490   3.552   5.364   5.778  0.2142  0.3130  0.9937
 9359TIP3   OH249491   6.578   4.868   5.522 -0.0456  0.3968 -0.6224
 9359TIP3    H149492   6.510   4.932   5.499  1.1806  1.8533 -0.3395
 9359TIP3    H249493   6.529   4.788   5.544 -1.6744  1.4737 -0.1572
 9360TIP3   OH249494   1.542   4.002   2.546 -0.7627 -0.3503  0.1908
 9360TIP3    H149495   1.598   3.925   2.544 -0.2367  0.0432 -0.7815
 9360TIP3    H249496   1.596   4.071   2.586 -0.5055  0.0441 -0.8011
 9361TIP3   OH249497   1.863   6.458  12.418  0.0356  0.1246 -0.4729
 9361TIP3    H149498   1.885   6.367  12.439  0.4943  0.2171 -0.5237
 9361TIP3    H249499   1.872   6.504  12.502  2.7644  0.6649 -0.9535
 9362TIP3   OH249500   5.228   2.646   2.533  0.0846  0.5152  0.1046
 9362TIP3    H149501   5.283   2.576   2.568  2.2304  0.7017 -2.5317
 9362TIP3    H249502   5.139   2.622   2.558  0.9879 -1.8502  1.3460
 9363TIP3   OH249503   5.221   1.390  10.745  0.1344 -0.0331  0.1503
 9363TIP3    H149504   5.227   1.348  10.659 -1.4282 -1.4088  0.6305
 9363TIP3    H249505   5.310   1.415  10.767  0.7353 -0.7417 -1.3588
 9364TIP3   OH249506   5.864   4.125   0.637  0.1310 -0.0126 -0.3898
 9364TIP3    H149507   5.782   4.107   0.683 -0.2996 -2.2639 -1.9031
 9364TIP3    H249508   5.933   4.100   0.699 -0.3611 -0.1760  0.0960
 9365TIP3   OH249509   2.214   1.010   5.741  0.1271 -0.2992  0.5371
 9365TIP3    H149510   2.260   1.062   5.807 -0.4444  1.5490 -0.4326
 9365TIP3    H249511   2.122   1.015   5.767 -0.2793  1.5323 -0.9850
 9366TIP3   OH249512   4.068   6.717   3.155 -0.1840 -0.0959  0.0565
 9366TIP3    H149513   4.128   6.691   3.224 -1.0987 -3.2594 -0.2098
 9366TIP3    H249514   4.035   6.803   3.183 -0.9435 -1.4475  3.9067
 9367TIP3   OH249515   0.148   1.541   2.001  0.2698  0.1356 -0.1580
 9367TIP3    H149516   0.105   1.624   1.979  1.5184  1.1618  1.1164
 9367TIP3    H249517   0.141   1.489   1.921 -1.0540  1.2350 -0.7964
 9368TIP3   OH249518   0.726   0.308   4.335  0.5347 -0.3156 -0.9614
 9368TIP3    H149519   0.812   0.347   4.357 -0.2502  1.8681 -1.4813
 9368TIP3    H249520   0.685   0.373   4.279 -0.9393 -1.9668 -1.8511
 9369TIP3   OH249521   3.279   5.727  14.468 -0.3187 -0.1926  0.3483
 9369TIP3    H149522   3.321   5.764  14.545  1.0987  0.2358 -0.5958
 9369TIP3    H249523   3.282   5.633  14.483  1.6500 -0.2310  0.0201
 9370TIP3   OH249524   4.893   5.521  12.721  0.7262 -0.1619 -0.3549
 9370TIP3    H149525   4.962   5.566  12.771  1.1740 -0.5810 -0.5843
 9370TIP3    H249526   4.817   5.578  12.729  1.5004  1.0575 -1.3185
 9371TIP3   OH249527   3.704   5.581  15.101  0.5309 -0.1508 -0.3744
 9371TIP3    H149528   3.752   5.517  15.048 -1.2909 -1.9410  0.0177
 9371TIP3    H249529   3.749   5.579  15.186 -0.1338 -1.7563 -0.0296
 9372TIP3   OH249530   5.465   2.023  11.064 -0.1909  0.2549 -0.1506
 9372TIP3    H149531   5.432   1.940  11.028  0.3719 -0.5120  1.0448
 9372TIP3    H249532   5.492   2.073  10.987 -2.5585  0.2500 -1.0601
 9373TIP3   OH249533   4.543   1.293  16.249 -0.2410  0.2882  0.4958
 9373TIP3    H149534   4.494   1.213  16.270 -0.5567  0.5078  0.6023
 9373TIP3    H249535   4.620   1.289  16.305  1.0189 -1.1610 -1.2389
 9374TIP3   OH249536   6.605   2.691   5.701 -0.7324  0.5990 -0.5864
 9374TIP3    H149537   6.653   2.615   5.668 -0.9652  0.2333 -0.0919
 9374TIP3    H249538   6.513   2.667   5.690 -0.8111  1.0306 -0.9192
 9375TIP3   OH249539   4.003   4.536   0.390  0.8737 -0.0131 -0.1490
 9375TIP3    H149540   3.989   4.627   0.414  1.5128  0.3024 -0.9388
 9375TIP3    H249541   4.054   4.540   0.309 -0.7114 -1.0327 -1.2675
 9376TIP3   OH249542   3.430   2.261  10.413  0.1999  0.3876 -0.4615
 9376TIP3    H149543   3.495   2.330  10.428  0.4886  0.9198 -3.5986
 9376TIP3    H249544   3.347   2.300  10.441  0.6115  1.3538 -0.5581
 9377TIP3   OH249545   0.639   2.932   5.369 -0.1282  0.4078  0.2543
 9377TIP3    H149546   0.575   2.869   5.334 -0.6501  0.6045  0.8407
 9377TIP3    H249547   0.724   2.893   5.348 -0.3969 -1.6308  2.5040
 9378TIP3   OH249548   0.088   1.099   3.707 -0.0258 -0.4195  0.1347
 9378TIP3    H149549   0.048   1.015   3.732 -0.1816 -0.1264  0.9121
 9378TIP3    H249550   0.129   1.082   3.622  1.3630 -1.7509  1.0231
 9379TIP3   OH249551   3.840   6.717  12.208 -0.5390  0.1470 -0.2457
 9379TIP3    H149552   3.830   6.769  12.129 -0.8981 -0.9212 -0.9292
 9379TIP3    H249553   3.925   6.742  12.243 -0.1282  0.2385 -1.2748
 9380TIP3   OH249554   0.437   0.376   3.162 -0.0088  0.5614  0.4041
 9380TIP3    H149555   0.426   0.301   3.221  1.0368  0.2574  0.2264
 9380TIP3    H249556   0.440   0.452   3.221 -2.6983  0.6953  0.5000
 9381TIP3   OH249557   0.558   1.804   5.741  0.7885 -0.1962  0.1069
 9381TIP3    H149558   0.552   1.897   5.721 -0.3986  0.1109  1.7354
 9381TIP3    H249559   0.642   1.794   5.785  1.1218  0.0091 -0.4726
 9382TIP3   OH249560   3.381   0.338   1.899 -0.2008 -0.1632 -0.6987
 9382TIP3    H149561   3.473   0.320   1.879  0.0388  0.2903 -0.0376
 9382TIP3    H249562   3.360   0.280   1.973 -0.6569 -0.7824 -1.3058
 9383TIP3   OH249563   4.391   1.497  15.607  0.2789  0.5769 -0.3426
 9383TIP3    H149564   4.341   1.517  15.686  1.1090 -2.9389  1.3042
 9383TIP3    H249565   4.473   1.546  15.616  0.2532  0.4079  0.9005
 9384TIP3   OH249566   4.854   3.147  13.061  0.2310 -0.9020  0.4080
 9384TIP3    H149567   4.912   3.131  13.135  0.8455  0.9917  0.3871
 9384TIP3    H249568   4.893   3.099  12.988  1.8941  0.4689  0.3549
 9385TIP3   OH249569   6.126   2.198   0.537 -0.5988  0.1618  0.7397
 9385TIP3    H149570   6.114   2.269   0.600  1.1511  0.6133  0.6132
 9385TIP3    H249571   6.142   2.121   0.592 -1.8241 -0.0368  0.8609
 9386TIP3   OH249572   0.529   5.862   3.651 -0.1758 -0.3117  0.0535
 9386TIP3    H149573   0.448   5.900   3.684  0.0544 -0.4530  0.7905
 9386TIP3    H249574   0.549   5.912   3.572  0.1963  1.1968  1.0790
 9387TIP3   OH249575   5.013   3.323  15.100  0.0054 -0.1361 -1.0984
 9387TIP3    H149576   4.969   3.408  15.098 -1.2012 -0.5012  2.8528
 9387TIP3    H249577   5.090   3.336  15.156 -0.0969 -1.5971 -0.5668
 9388TIP3   OH249578   4.077   5.120  11.942  0.5367  0.7960  0.1487
 9388TIP3    H149579   4.061   5.140  11.850  0.4266 -0.2234 -0.0636
 9388TIP3    H249580   4.116   5.200  11.977  1.8725  0.7434 -1.1051
 9389TIP3   OH249581   4.268   6.164   5.289  0.3490 -0.2459 -0.3884
 9389TIP3    H149582   4.245   6.244   5.242  1.8009  0.6120  0.3105
 9389TIP3    H249583   4.324   6.115   5.228 -0.1212 -0.5073 -0.6196
 9390TIP3   OH249584   2.979   2.081   3.490 -0.2137 -0.2151  0.1194
 9390TIP3    H149585   3.041   2.011   3.468  0.0046  0.6934 -2.3974
 9390TIP3    H249586   2.970   2.075   3.585  2.1956 -1.6597  0.3429
 9391TIP3   OH249587   0.836   5.219   0.963  0.3301  0.2606  1.0203
 9391TIP3    H149588   0.777   5.243   0.891 -1.8475 -0.7130  2.3559
 9391TIP3    H249589   0.863   5.302   1.001  1.0477  0.7677 -0.5282
 9392TIP3   OH249590   6.127   5.055   2.411  0.1733  0.3424 -0.5074
 9392TIP3    H149591   6.059   5.071   2.346 -0.7972 -1.8063 -0.0786
 9392TIP3    H249592   6.121   5.130   2.471  0.5813  1.9686 -2.3670
 9393TIP3   OH249593   0.875   4.913   3.392  0.7820  0.1982  0.3274
 9393TIP3    H149594   0.899   4.866   3.312  1.5699  0.7519  0.2304
 9393TIP3    H249595   0.848   5.000   3.361  1.8846  0.6887  0.7310
 9394TIP3   OH249596   1.911   4.626   4.380  0.4902 -0.0790  0.3273
 9394TIP3    H149597   1.823   4.615   4.418  0.2041 -0.8138 -0.5160
 9394TIP3    H249598   1.971   4.601   4.450  0.0382  0.4851  0.9313
 9395TIP3   OH249599   5.773   2.345  15.523  0.3742  0.4218  0.0315
 9395TIP3    H149600   5.720   2.272  15.556  0.2108  1.2809  1.8076
 9395TIP3    H249601   5.835   2.362  15.593  0.7136  1.6876 -0.5608
 9396TIP3   OH249602   5.018   1.531  16.168 -0.3142 -0.7916 -0.3015
 9396TIP3    H149603   4.992   1.440  16.176 -1.7581 -0.2947  1.0441
 9396TIP3    H249604   4.947   1.581  16.209  0.5977  0.9187 -0.6944
 9397TIP3   OH249605   2.953   4.494   1.892  0.0395 -0.5180  0.2011
 9397TIP3    H149606   3.025   4.536   1.939 -1.7676  1.6930  1.2273
 9397TIP3    H249607   2.977   4.502   1.800  1.2827 -0.1844  0.5368
 9398TIP3   OH249608   6.000   4.192  16.328  0.5441  0.5248  0.2629
 9398TIP3    H149609   5.933   4.133  16.296  0.9021  0.7382 -0.9486
 9398TIP3    H249610   6.076   4.136  16.346  0.6549  0.5223 -0.2066
 9399TIP3   OH249611   2.940   1.795  10.526  0.5205  0.0109 -0.6417
 9399TIP3    H149612   3.002   1.867  10.520  0.3539  0.4552  2.0282
 9399TIP3    H249613   2.854   1.836  10.514  0.4340  0.2603  0.7515
 9400TIP3   OH249614   0.294   6.151   6.110  0.0978  0.9019 -0.4652
 9400TIP3    H149615   0.295   6.205   6.189  0.2867 -0.6130  0.6154
 9400TIP3    H249616   0.377   6.104   6.113 -0.7337 -0.6177 -0.4998
 9401TIP3   OH249617   0.975   0.486  13.397  0.0552 -0.2275  0.1129
 9401TIP3    H149618   1.029   0.434  13.457 -0.3351 -1.3247 -0.4446
 9401TIP3    H249619   0.888   0.446  13.404 -0.2313  0.2989 -0.4070
 9402TIP3   OH249620   1.797   3.707  13.791  0.2294  0.0143  0.4686
 9402TIP3    H149621   1.860   3.778  13.782  0.3966 -0.2628 -0.7110
 9402TIP3    H249622   1.717   3.741  13.751  0.7390 -0.9463 -1.5455
 9403TIP3   OH249623   6.214   4.946   3.388  0.4603 -0.7364  0.6191
 9403TIP3    H149624   6.207   4.972   3.296 -0.7269  1.6729  1.3160
 9403TIP3    H249625   6.291   4.992   3.420 -1.7408  2.4249  1.9022
 9404TIP3   OH249626   1.625   0.584   3.660 -0.5971  0.4382  0.5951
 9404TIP3    H149627   1.626   0.501   3.612 -0.2886 -0.0543  1.4386
 9404TIP3    H249628   1.686   0.639   3.612  2.6229 -1.2425  2.3968
 9405TIP3   OH249629   3.803   2.424   2.007 -0.1181  0.1999  0.0753
 9405TIP3    H149630   3.739   2.436   1.937  0.5853 -1.1709 -0.8667
 9405TIP3    H249631   3.751   2.407   2.085 -0.9142  0.4771 -0.3888
 9406TIP3   OH249632   0.966   0.907  14.183  0.2521  0.1642  0.3785
 9406TIP3    H149633   1.054   0.927  14.152 -0.0531 -0.9026 -1.2796
 9406TIP3    H249634   0.964   0.939  14.273  1.2038  3.3278 -0.6287
 9407TIP3   OH249635   1.549   0.596  14.337 -0.1266 -0.1992  0.0829
 9407TIP3    H149636   1.633   0.634  14.362 -0.2836  0.6143 -0.5974
 9407TIP3    H249637   1.565   0.557  14.252 -0.1301 -1.1453  0.4999
 9408TIP3   OH249638   0.817   2.251  11.660  0.2584 -0.4690  0.2899
 9408TIP3    H149639   0.871   2.322  11.624  0.5708 -0.6658  0.3634
 9408TIP3    H249640   0.876   2.176  11.665  0.8106  0.0418  3.0139
 9409TIP3   OH249641   5.753   3.332  12.931  0.0118 -0.0045  0.0512
 9409TIP3    H149642   5.661   3.356  12.933  0.0105  0.3340 -2.0814
 9409TIP3    H249643   5.753   3.237  12.919 -0.0963  0.0881 -0.7627
 9410TIP3   OH249644   2.583   6.627  12.735  0.2409 -0.2042  0.3096
 9410TIP3    H149645   2.582   6.716  12.698 -1.3960 -0.2439  0.1888
 9410TIP3    H249646   2.658   6.585  12.693  0.6225  0.9017 -0.1658
 9411TIP3   OH249647   2.021   2.711   4.529  0.1207 -0.4462 -0.6070
 9411TIP3    H149648   2.077   2.665   4.592 -0.6861 -0.8049 -0.1247
 9411TIP3    H249649   1.958   2.645   4.500 -0.9163  0.2595 -0.0772
 9412TIP3   OH249650   2.958   0.840  15.836 -0.1902 -0.1095 -0.0319
 9412TIP3    H149651   3.026   0.798  15.784 -1.0696 -0.4771 -0.9115
 9412TIP3    H249652   2.960   0.932  15.809 -0.0975 -0.1342 -0.1074
 9413TIP3   OH249653   3.410   1.128   3.484  0.8136  0.6046 -0.2004
 9413TIP3    H149654   3.361   1.052   3.516 -2.7130  2.4631 -0.6707
 9413TIP3    H249655   3.440   1.103   3.397 -0.3628 -0.2470 -0.3743
 9414TIP3   OH249656   1.142   2.590  12.425  0.0375 -0.5022  0.4045
 9414TIP3    H149657   1.062   2.562  12.469 -0.7633  0.9203 -0.0804
 9414TIP3    H249658   1.121   2.585  12.332  0.4561  0.0129  0.2754
 9415TIP3   OH249659   6.307   4.664  12.195  0.1197  0.3074 -0.1782
 9415TIP3    H149660   6.368   4.704  12.257  1.6822 -1.7703 -0.2631
 9415TIP3    H249661   6.220   4.681  12.231  0.9367  0.2356  1.9310
 9416TIP3   OH249662   0.622   0.165  15.599 -0.1662  0.2742 -0.0950
 9416TIP3    H149663   0.653   0.075  15.597 -2.1850 -0.4716 -1.5009
 9416TIP3    H249664   0.543   0.162  15.654  0.1318  1.3424  0.4192
 9417TIP3   OH249665   2.609   1.911   4.053  0.3090 -0.3640 -0.7546
 9417TIP3    H149666   2.581   1.841   4.112  2.0803 -0.8863 -0.4639
 9417TIP3    H249667   2.548   1.908   3.980 -0.9842 -0.7356  0.2966
 9418TIP3   OH249668   4.784   5.175  13.381 -0.2125 -0.5189  0.3148
 9418TIP3    H149669   4.811   5.170  13.473  0.3678  0.1407  0.1902
 9418TIP3    H249670   4.762   5.267  13.368  1.0439 -0.3155 -0.5586
 9419TIP3   OH249671   4.062   0.162  11.684  0.4902  0.0719 -0.9438
 9419TIP3    H149672   4.058   0.257  11.696  0.3813  0.1525 -1.6011
 9419TIP3    H249673   3.977   0.140  11.644  0.9255 -0.1539 -1.7604
 9420TIP3   OH249674   1.938   4.909   0.504  0.3972  0.5485 -0.3090
 9420TIP3    H149675   1.998   4.843   0.468 -0.1152  0.6215 -1.3511
 9420TIP3    H249676   1.995   4.979   0.536  0.8784  0.8099 -1.6651
 9421TIP3   OH249677   0.694   5.026   1.119  0.3532 -0.1169  0.6942
 9421TIP3    H149678   0.734   5.089   1.059  0.2882  1.0825  1.8547
 9421TIP3    H249679   0.713   4.940   1.080  0.7955  0.5904 -0.7172
 9422TIP3   OH249680   1.794   4.865   2.123  0.5086  0.4060  0.4507
 9422TIP3    H149681   1.716   4.900   2.079  0.6516  1.0310  0.6840
 9422TIP3    H249682   1.772   4.774   2.141 -0.1988  0.5944  0.5773
 9423TIP3   OH249683   5.299   3.636   1.788  0.0337 -0.2819  0.1895
 9423TIP3    H149684   5.353   3.691   1.732 -0.1205 -0.0437  0.2701
 9423TIP3    H249685   5.345   3.635   1.872 -0.3292  0.3083  0.3971
 9424TIP3   OH249686   5.901   6.650   3.735  0.1052  0.2277 -0.4405
 9424TIP3    H149687   5.957   6.578   3.706  0.0175 -0.2103  0.4455
 9424TIP3    H249688   5.940   6.728   3.695  0.3522 -0.2747 -1.1966
 9425TIP3   OH249689   4.116   2.104  12.800  0.5070  0.2397  0.1732
 9425TIP3    H149690   4.181   2.152  12.749  1.0542 -0.0135  0.6163
 9425TIP3    H249691   4.053   2.072  12.736  1.4657 -0.5204 -0.4184
 9426TIP3   OH249692   3.920   1.094  15.729  0.4570 -0.1400 -0.5053
 9426TIP3    H149693   3.956   1.075  15.642  1.0964  0.9505 -0.4993
 9426TIP3    H249694   3.947   1.020  15.783 -0.3211 -1.0474 -1.3240
 9427TIP3   OH249695   5.773   5.770   2.112  0.6692  0.1632 -0.3515
 9427TIP3    H149696   5.826   5.693   2.091  0.1072 -1.2961  2.9782
 9427TIP3    H249697   5.696   5.762   2.056  1.1823 -0.9927 -0.9241
 9428TIP3   OH249698   2.293   1.789   3.689 -0.8068  0.1100 -0.4508
 9428TIP3    H149699   2.362   1.727   3.671 -0.2499  0.5077  0.2384
 9428TIP3    H249700   2.245   1.798   3.607  1.5501  1.8181 -1.7300
 9429TIP3   OH249701   3.716   2.928   2.785 -0.2623  0.0448 -0.4310
 9429TIP3    H149702   3.656   2.998   2.760 -0.5355  0.3811  1.0664
 9429TIP3    H249703   3.757   2.960   2.866  0.7595 -0.8617 -0.5783
 9430TIP3   OH249704   0.813   3.893   1.577 -0.2406  0.0895  0.3924
 9430TIP3    H149705   0.895   3.942   1.569  0.3204 -0.7224  1.0560
 9430TIP3    H249706   0.803   3.877   1.671 -0.6806 -0.6315  0.2284
 9431TIP3   OH249707   4.183   4.526  11.792 -0.1073  0.5378  0.0546
 9431TIP3    H149708   4.231   4.595  11.838  0.4383  0.3182 -0.1765
 9431TIP3    H249709   4.182   4.555  11.701  0.1005  0.2548 -0.0392
 9432TIP3   OH249710   4.290   3.352   1.425 -0.1798 -0.5183 -0.2654
 9432TIP3    H149711   4.295   3.431   1.370 -1.0277 -0.4905 -0.3159
 9432TIP3    H249712   4.211   3.307   1.394  1.0836 -2.1647 -1.2385
 9433TIP3   OH249713   0.797   3.343  12.051 -0.0494  0.0552 -0.3844
 9433TIP3    H149714   0.816   3.258  12.012  1.5706  1.8049 -3.8075
 9433TIP3    H249715   0.701   3.344  12.059 -0.0422 -2.6790  1.5491
 9434TIP3   OH249716   5.014   5.359   3.438  0.2383 -0.1148 -0.0223
 9434TIP3    H149717   4.948   5.426   3.416 -0.6079 -0.5623  1.0637
 9434TIP3    H249718   5.053   5.336   3.354 -0.1054  1.0804 -0.5346
 9435TIP3   OH249719   0.443   3.341  12.867 -0.6386 -0.7305  0.1245
 9435TIP3    H149720   0.444   3.289  12.947  1.1012 -0.5020  0.3060
 9435TIP3    H249721   0.474   3.428  12.894 -0.7004 -0.4479 -0.6630
 9436TIP3   OH249722   1.543   5.531  11.939 -0.1578  0.3930 -0.1372
 9436TIP3    H149723   1.615   5.579  11.980  0.6761 -2.1657  1.6842
 9436TIP3    H249724   1.464   5.578  11.967  0.6595  2.6708 -1.3597
 9437TIP3   OH249725   5.277   6.383  12.383 -0.0036  0.4794  0.6771
 9437TIP3    H149726   5.220   6.416  12.313 -0.9755 -1.1560  0.6318
 9437TIP3    H249727   5.321   6.307  12.343 -1.0431 -0.8613  1.9948
 9438TIP3   OH249728   4.966   0.693   3.684 -0.3684  0.0744 -0.1086
 9438TIP3    H149729   5.048   0.651   3.709 -0.5701  0.4907  1.3335
 9438TIP3    H249730   4.903   0.666   3.750 -1.1157  0.6709 -0.5461
 9439TIP3   OH249731   3.485   2.862   0.870  0.3236  0.0417 -0.5704
 9439TIP3    H149732   3.543   2.897   0.938 -1.3840  1.4092  0.2723
 9439TIP3    H249733   3.456   2.777   0.904 -3.2133  2.0860  2.3072
 9440TIP3   OH249734   2.986   3.412   4.579 -0.3103 -0.6116  0.5289
 9440TIP3    H149735   2.937   3.481   4.534 -0.2143 -0.9385 -0.0748
 9440TIP3    H249736   2.922   3.371   4.637 -0.1633  0.5563  1.5586
 9441TIP3   OH249737   0.999   5.859   1.324 -0.2432 -0.0417 -0.4810
 9441TIP3    H149738   1.081   5.905   1.341  0.1166 -1.2241  1.3723
 9441TIP3    H249739   0.944   5.922   1.278  1.2608  1.1900 -0.6592
 9442TIP3   OH249740   2.528   6.612  13.659  0.6380 -0.7627 -0.1415
 9442TIP3    H149741   2.479   6.612  13.741  0.0862 -1.9167 -0.4530
 9442TIP3    H249742   2.610   6.568  13.680  0.4094 -1.2444 -0.2571
 9443TIP3   OH249743   4.928   5.862   2.366 -0.1149  0.0618  0.0185
 9443TIP3    H149744   4.868   5.860   2.292 -0.0091 -0.7874 -0.0438
 9443TIP3    H249745   4.872   5.875   2.442 -0.2887  0.2117 -0.1343
 9444TIP3   OH249746   6.534   0.489   4.328 -0.6786  0.2050  0.2467
 9444TIP3    H149747   6.619   0.532   4.329  0.4121 -1.8544  0.8156
 9444TIP3    H249748   6.524   0.457   4.238 -1.3001  1.2240 -0.0649
 9445TIP3   OH249749   1.105   1.563  15.865 -0.3528  0.4225  0.2423
 9445TIP3    H149750   1.049   1.636  15.838  1.3998  1.4689 -0.7843
 9445TIP3    H249751   1.176   1.605  15.914  0.1343 -0.7244  0.5459
 9446TIP3   OH249752   2.563   1.129  14.607  0.3773 -0.0890 -0.3420
 9446TIP3    H149753   2.604   1.147  14.692 -0.0062 -1.3504  0.1310
 9446TIP3    H249754   2.596   1.198  14.550  0.6712  0.7705  0.8200
 9447TIP3   OH249755   3.534   2.254  11.306  0.1739  0.1533  0.2307
 9447TIP3    H149756   3.607   2.293  11.356 -0.1389  1.9534 -0.6156
 9447TIP3    H249757   3.574   2.184  11.256  1.7882  2.1870 -1.5411
 9448TIP3   OH249758   0.019   4.332  15.309  0.2102  0.1964 -0.0818
 9448TIP3    H149759   0.049   4.257  15.359 -1.4067 -0.6363 -0.3016
 9448TIP3    H249760   0.062   4.324  15.224  0.6292 -0.0569  0.1568
 9449TIP3   OH249761   0.816   0.558   5.988 -0.0095 -0.0490  0.3596
 9449TIP3    H149762   0.867   0.615   6.044 -0.6884  1.1697 -0.2019
 9449TIP3    H249763   0.772   0.618   5.927 -2.3021 -0.9885  0.9884
 9450TIP3   OH249764   1.840   6.369   2.986 -0.2111 -0.2457  0.1606
 9450TIP3    H149765   1.917   6.343   3.037  0.0287  1.5150  0.7663
 9450TIP3    H249766   1.766   6.332   3.032 -0.0281  1.5089  2.0350
 9451TIP3   OH249767   0.694   4.649   0.622 -0.2609  0.2128  0.2994
 9451TIP3    H149768   0.637   4.695   0.684 -1.3256  0.6795 -0.9755
 9451TIP3    H249769   0.640   4.640   0.544  1.0910 -0.2634 -0.5941
 9452TIP3   OH249770   3.808   5.886   0.801 -0.5282 -0.0949  0.2061
 9452TIP3    H149771   3.757   5.805   0.795 -1.5410  0.3872  1.7030
 9452TIP3    H249772   3.804   5.923   0.713  0.4223 -1.9189 -0.6461
 9453TIP3   OH249773   5.726   3.179   5.071  0.1407 -0.1910 -0.2679
 9453TIP3    H149774   5.695   3.135   5.150  1.3504  0.9456  0.8964
 9453TIP3    H249775   5.820   3.158   5.068  0.5604  1.5277 -0.1666
 9454TIP3   OH249776   2.826   6.409  11.858  0.1604  0.5869 -0.3967
 9454TIP3    H149777   2.754   6.348  11.873 -0.2927  1.6921  2.5192
 9454TIP3    H249778   2.905   6.357  11.870 -0.1946  0.1322  0.0354
 9455TIP3   OH249779   6.407   3.939   2.955  0.1731 -0.1320  0.3114
 9455TIP3    H149780   6.451   3.856   2.972  0.2264 -0.1599  0.0432
 9455TIP3    H249781   6.438   3.965   2.868  0.9088  0.6499  0.7895
 9456TIP3   OH249782   0.337   3.297   3.456  0.4886  0.0948 -0.1517
 9456TIP3    H149783   0.352   3.365   3.391  0.1196 -1.7355 -2.2773
 9456TIP3    H249784   0.351   3.215   3.408 -3.5833 -1.4985  0.9700
 9457TIP3   OH249785   5.542   0.478  15.400  0.4143  0.2732  0.3858
 9457TIP3    H149786   5.595   0.497  15.322 -0.6195 -1.3259 -0.7964
 9457TIP3    H249787   5.592   0.411  15.447 -1.2990 -2.8064 -1.8161
 9458TIP3   OH249788   5.527   6.672   6.149 -0.1893  0.1475  0.0532
 9458TIP3    H149789   5.589   6.687   6.221  0.8378 -1.1183 -0.5280
 9458TIP3    H249790   5.441   6.681   6.190  0.3739  0.1825  1.2897
 9459TIP3   OH249791   2.921   6.361   3.121  0.1970 -0.1800 -0.3285
 9459TIP3    H149792   2.968   6.430   3.075  0.5055 -1.0573 -1.3881
 9459TIP3    H249793   2.844   6.403   3.158 -0.8027  0.3356 -2.8116
 9460TIP3   OH249794   2.387   3.461  12.115  0.8666  0.1727  0.0413
 9460TIP3    H149795   2.299   3.445  12.080  1.2047 -1.1751 -0.2561
 9460TIP3    H249796   2.377   3.451  12.210  0.6509  0.2347  0.0252
 9461TIP3   OH249797   4.050   4.238  11.749  0.0964 -0.4473 -0.3488
 9461TIP3    H149798   4.104   4.219  11.673  0.3161 -0.3224 -0.2264
 9461TIP3    H249799   4.086   4.320  11.784  1.0277 -1.3109  0.8138
 9462TIP3   OH249800   5.649   4.055   4.762 -0.0642 -0.3278  0.0495
 9462TIP3    H149801   5.587   4.006   4.709  1.1746 -1.2309 -0.6315
 9462TIP3    H249802   5.700   3.988   4.807  0.5245  0.3761  0.4479
 9463TIP3   OH249803   2.228   6.586   1.384  0.1269 -0.1129  0.3522
 9463TIP3    H149804   2.154   6.634   1.349  1.4093  0.6289 -1.4959
 9463TIP3    H249805   2.253   6.634   1.463  0.6065  1.5950 -0.7804
 9464TIP3   OH249806   5.190   2.016   2.430  0.2581 -1.0069 -0.4787
 9464TIP3    H149807   5.158   2.053   2.348  0.3839 -1.0865 -0.5656
 9464TIP3    H249808   5.204   2.091   2.487  4.2101 -0.3871 -1.8944
 9465TIP3   OH249809   4.673   4.020   6.352  0.0658  0.4379  0.1659
 9465TIP3    H149810   4.724   3.940   6.347 -0.7528 -0.1121  0.3717
 9465TIP3    H249811   4.691   4.065   6.269  1.2168  0.4842  0.4233
 9466TIP3   OH249812   0.609   5.978   0.846 -0.5695 -0.0949  0.0864
 9466TIP3    H149813   0.579   6.007   0.932 -2.7438 -0.3133 -0.5387
 9466TIP3    H249814   0.540   6.006   0.786  0.5100 -0.6732 -1.4894
 9467TIP3   OH249815   4.037   0.747   6.460 -0.0594 -0.3013 -0.2743
 9467TIP3    H149816   3.996   0.661   6.448 -1.8732  0.3078  1.1117
 9467TIP3    H249817   4.110   0.730   6.519 -1.3348 -0.7220  1.2751
 9468TIP3   OH249818   2.730   2.535  11.150 -0.0810  0.3926  0.3175
 9468TIP3    H149819   2.734   2.448  11.110  2.5083 -0.1136  1.4275
 9468TIP3    H249820   2.754   2.521  11.241  1.2247  2.3155  0.3467
 9469TIP3   OH249821   1.243   3.253   5.770  0.1003  0.1967 -0.6599
 9469TIP3    H149822   1.303   3.195   5.817 -0.0477 -0.9699 -1.8505
 9469TIP3    H249823   1.171   3.267   5.831  1.7194  1.9983  0.9815
 9470TIP3   OH249824   3.994   4.345  17.251  0.6125  0.0980  0.2840
 9470TIP3    H149825   3.990   4.305  17.164  0.8336 -0.0419  0.3370
 9470TIP3    H249826   3.936   4.421  17.246  1.0159  0.3852 -0.1392
 9471TIP3   OH249827   1.787   5.851   2.597 -0.2599  0.0850 -0.1916
 9471TIP3    H149828   1.784   5.804   2.513  0.9329 -1.0645  0.3793
 9471TIP3    H249829   1.786   5.782   2.663 -0.6696  0.9671  0.7346
 9472TIP3   OH249830   6.724   0.210   5.230  0.0024 -0.0472 -0.1731
 9472TIP3    H149831   6.695   0.119   5.222 -0.7238  0.0994  0.6805
 9472TIP3    H249832   6.701   0.235   5.320  1.0453  0.6882 -0.0901
 9473TIP3   OH249833   3.725   1.980  16.847  0.0521  0.6749 -0.2879
 9473TIP3    H149834   3.649   2.034  16.871  0.4152  0.2806  2.0663
 9473TIP3    H249835   3.706   1.894  16.886  1.7550  0.6338  0.5504
 9474TIP3   OH249836   3.141   5.386   0.487  0.4350  0.5151 -0.0996
 9474TIP3    H149837   3.053   5.416   0.508  0.5862 -0.0245  1.4630
 9474TIP3    H249838   3.196   5.465   0.494  0.1020  0.8317 -0.9829
 9475TIP3   OH249839   1.032   3.657  16.436  0.3783  0.0879 -0.3398
 9475TIP3    H149840   1.093   3.585  16.456 -0.2679 -0.9138 -1.7886
 9475TIP3    H249841   0.946   3.615  16.434  0.0379  0.7908 -1.6999
 9476TIP3   OH249842   2.376   3.032   0.466  0.2810 -0.4221 -0.2411
 9476TIP3    H149843   2.294   3.056   0.508  0.2079 -0.9924 -0.0566
 9476TIP3    H249844   2.356   3.032   0.372  0.6996  1.8544 -0.3878
 9477TIP3   OH249845   2.148   0.804   5.024  0.1401  0.2895 -0.3929
 9477TIP3    H149846   2.202   0.790   5.101 -0.6368  0.9974  0.3007
 9477TIP3    H249847   2.189   0.751   4.955  0.0227 -1.5197  0.8563
 9478TIP3   OH249848   5.496   0.397  16.173 -1.3170  0.0047  0.3032
 9478TIP3    H149849   5.439   0.450  16.229 -1.2220  0.1617  0.2519
 9478TIP3    H249850   5.495   0.310  16.213  1.1008  0.7772  2.2931
 9479TIP3   OH249851   6.688   2.665  14.158  0.4385 -0.1147  0.1078
 9479TIP3    H149852   6.742   2.603  14.110  3.6914  2.1488  0.4967
 9479TIP3    H249853   6.704   2.645  14.250  0.9842  0.8247  0.2326
 9480TIP3   OH249854   1.132   1.405   1.728 -0.2008 -0.3551  0.5590
 9480TIP3    H149855   1.099   1.318   1.751  3.0001 -1.3475  1.9322
 9480TIP3    H249856   1.116   1.412   1.634 -0.4678 -2.4730  0.3905
 9481TIP3   OH249857   0.782   2.471   2.529  0.6843  0.0370  0.0012
 9481TIP3    H149858   0.860   2.427   2.494 -0.3623 -0.4536 -1.8500
 9481TIP3    H249859   0.738   2.404   2.581  0.7658 -0.1294 -0.1405
 9482TIP3   OH249860   1.601   1.661  13.442  0.0780  0.1115  0.2855
 9482TIP3    H149861   1.646   1.738  13.476 -0.6322  0.0022  1.5397
 9482TIP3    H249862   1.655   1.587  13.471 -0.4974  0.0218  1.1799
 9483TIP3   OH249863   5.076   4.890  15.391  0.1568 -0.0033 -1.0277
 9483TIP3    H149864   5.049   4.824  15.455  0.4993  0.2081 -0.6612
 9483TIP3    H249865   5.163   4.863  15.364 -0.3923 -0.6889 -2.2166
 9484TIP3   OH249866   5.223   4.433   2.043  0.4776  0.2368 -0.5664
 9484TIP3    H149867   5.284   4.491   1.997  0.2860 -0.9956 -2.5037
 9484TIP3    H249868   5.276   4.356   2.066 -0.0866 -0.4203 -1.3962
 9485TIP3   OH249869   2.758   1.430   6.584 -0.2479  0.0683 -0.4149
 9485TIP3    H149870   2.698   1.381   6.639 -1.0099 -1.3705 -2.4095
 9485TIP3    H249871   2.820   1.365   6.551  1.6969  1.3060  0.5809
 9486TIP3   OH249872   4.767   3.740   1.020  0.0239  0.2934  0.1088
 9486TIP3    H149873   4.672   3.739   1.010  0.1015  2.3373 -1.3307
 9486TIP3    H249874   4.781   3.748   1.115 -1.3665  3.6089  0.1599
 9487TIP3   OH249875   4.421   5.104  16.682 -0.0810 -0.2853  0.0294
 9487TIP3    H149876   4.424   5.088  16.777  0.0696 -1.6849 -0.1863
 9487TIP3    H249877   4.511   5.124  16.658  0.1017 -1.0634  0.0224
 9488TIP3   OH249878   1.049   4.382   3.289 -0.3052 -0.2041 -0.7017
 9488TIP3    H149879   1.124   4.336   3.327 -0.1592  1.1766  0.7696
 9488TIP3    H249880   0.998   4.313   3.246  1.5782 -1.2257 -1.4189
 9489TIP3   OH249881   3.650   6.731  14.781 -0.3826 -0.0261 -0.5320
 9489TIP3    H149882   3.568   6.686  14.762 -0.2287  0.1717 -1.7896
 9489TIP3    H249883   3.652   6.803  14.718  0.1317  0.7860  0.3779
 9490TIP3   OH249884   2.025   5.276   5.759 -0.0129 -0.3614 -0.2439
 9490TIP3    H149885   1.950   5.220   5.782  0.2364 -0.7579 -0.3952
 9490TIP3    H249886   2.018   5.350   5.819 -0.8264 -0.1364 -0.5969
 9491TIP3   OH249887   3.417   3.032  16.012  0.3087 -0.3400 -0.1432
 9491TIP3    H149888   3.468   3.105  15.976  1.2502 -1.4098 -1.0853
 9491TIP3    H249889   3.406   3.053  16.104  2.4970 -0.0526  0.1025
 9492TIP3   OH249890   5.937   5.335   0.697  0.1295 -0.0704  0.0399
 9492TIP3    H149891   5.971   5.248   0.682  1.6159  0.5771 -0.4838
 9492TIP3    H249892   5.990   5.392   0.642  0.5469  1.4067  1.8538
 9493TIP3   OH249893   2.727   4.325  14.932 -0.4670 -0.2049 -0.4236
 9493TIP3    H149894   2.713   4.398  14.993  0.7923 -0.5271  0.2967
 9493TIP3    H249895   2.822   4.326  14.915 -0.5315 -1.2571 -0.9310
 9494TIP3   OH249896   4.726   5.292  11.464  0.1915  0.2237 -0.6942
 9494TIP3    H149897   4.751   5.382  11.483 -2.7888  1.0849 -0.3120
 9494TIP3    H249898   4.630   5.292  11.466 -0.0008 -2.4998 -2.8621
 9495TIP3   OH249899   1.707   1.165   0.218  0.5034  0.3341 -0.2610
 9495TIP3    H149900   1.727   1.112   0.141 -2.3749 -0.7969 -0.3519
 9495TIP3    H249901   1.708   1.256   0.186 -0.9428 -0.1307 -1.7714
 9496TIP3   OH249902   4.152   1.116  15.177 -0.2233  0.1584  0.1154
 9496TIP3    H149903   4.132   1.023  15.169  0.6205  0.0617 -1.0436
 9496TIP3    H249904   4.094   1.159  15.114  0.4538  0.2643 -0.4369
 9497TIP3   OH249905   3.434   2.673   3.287 -0.1127 -0.0773 -0.1792
 9497TIP3    H149906   3.423   2.688   3.381  1.1913 -0.8358  0.1140
 9497TIP3    H249907   3.509   2.727   3.263 -0.3483 -0.0072 -0.7730
 9498TIP3   OH249908   5.811   5.438  11.199  0.1666 -0.7604 -0.0377
 9498TIP3    H149909   5.770   5.358  11.166 -0.0823 -0.5645 -0.2031
 9498TIP3    H249910   5.903   5.415  11.208  0.0510 -1.1587  0.1955
 9499TIP3   OH249911   1.802   0.578   2.406 -0.3771  0.0760  0.3570
 9499TIP3    H149912   1.827   0.492   2.373 -0.0457 -0.2341  1.3974
 9499TIP3    H249913   1.823   0.576   2.499 -0.2648  1.3212  0.3780
 9500TIP3   OH249914   2.146   2.867  11.004 -0.0877 -0.4506  0.4066
 9500TIP3    H149915   2.165   2.818  11.083  0.2502  0.6857  1.0501
 9500TIP3    H249916   2.082   2.813  10.957 -0.2391 -1.1663  1.4037
 9501TIP3   OH249917   0.667   1.069  15.856 -0.1880 -0.1063 -0.4543
 9501TIP3    H149918   0.693   0.980  15.876 -1.1574 -0.5650 -1.1622
 9501TIP3    H249919   0.572   1.067  15.855 -0.2322  0.4643 -2.4084
 9502TIP3   OH249920   1.616   4.360   0.500 -0.3706  0.2556  0.1330
 9502TIP3    H149921   1.544   4.423   0.502 -0.2596  0.4397 -1.0821
 9502TIP3    H249922   1.684   4.400   0.554 -1.1451  0.1012  1.2538
 9503TIP3   OH249923   3.269   6.562   3.208 -0.9814  0.0850  0.7127
 9503TIP3    H149924   3.202   6.553   3.141 -2.1514  0.3851  1.8091
 9503TIP3    H249925   3.346   6.595   3.161 -1.4225 -0.7468 -0.6487
 9504TIP3   OH249926   3.652   0.483  13.572 -0.2632 -0.3688 -0.0872
 9504TIP3    H149927   3.718   0.428  13.530  2.1391  1.5678  0.9196
 9504TIP3    H249928   3.612   0.532  13.499 -1.5226 -2.3883 -0.8342
 9505TIP3   OH249929   3.846   3.588  11.328  0.3990  0.4457 -0.5871
 9505TIP3    H149930   3.789   3.529  11.280 -0.0022  0.9640 -0.7656
 9505TIP3    H249931   3.892   3.638  11.260  1.7353 -0.5631 -0.4660
 9506TIP3   OH249932   3.636   3.019   4.076 -0.7168 -0.0800 -0.1070
 9506TIP3    H149933   3.622   3.110   4.051  0.6974  0.4189  0.7864
 9506TIP3    H249934   3.731   3.012   4.089 -0.7945 -1.6880 -0.1758
 9507TIP3   OH249935   5.516   0.568  12.331  0.3216 -0.1753 -0.3266
 9507TIP3    H149936   5.606   0.594  12.310  0.9210 -2.6231 -1.0164
 9507TIP3    H249937   5.517   0.552  12.426  0.7026 -0.5542 -0.3948
 9508TIP3   OH249938   1.511   2.001  11.070  0.0855  0.4349  0.6765
 9508TIP3    H149939   1.512   2.027  10.978 -0.8083 -0.0171  0.5348
 9508TIP3    H249940   1.421   1.975  11.087 -0.0050  1.4877  1.9607
 9509TIP3   OH249941   0.269   2.497   4.246  0.1781  0.2290 -0.1474
 9509TIP3    H149942   0.253   2.402   4.248  1.4051 -0.0306 -1.2741
 9509TIP3    H249943   0.187   2.534   4.214 -0.7181 -0.3184  1.3935
 9510TIP3   OH249944   5.200   1.658   4.575 -0.5553 -0.4998  0.1747
 9510TIP3    H149945   5.148   1.611   4.640  0.1121 -0.0956  1.0266
 9510TIP3    H249946   5.217   1.743   4.615 -0.3630 -0.1343 -0.6525
 9511TIP3   OH249947   1.798   5.863  15.864 -0.1810  0.1596  0.0991
 9511TIP3    H149948   1.800   5.865  15.768 -0.1031  0.8683  0.1144
 9511TIP3    H249949   1.876   5.812  15.888  2.1877  3.3932 -0.1274
 9512TIP3   OH249950   6.133   4.149   6.076 -0.5951  0.0982  0.7030
 9512TIP3    H149951   6.137   4.141   6.172  1.2828  0.3606  0.6847
 9512TIP3    H249952   6.078   4.226   6.061 -0.5033  0.3463  1.5804
 9513TIP3   OH249953   1.760   1.996  16.230 -0.0306 -0.6595 -0.0660
 9513TIP3    H149954   1.852   1.986  16.204  0.3503  0.1770  0.8531
 9513TIP3    H249955   1.758   2.079  16.277 -1.6291  0.2543 -1.6137
 9514TIP3   OH249956   4.593   1.364  13.898  0.6319 -0.0681 -0.2765
 9514TIP3    H149957   4.623   1.453  13.914  0.3772 -0.4648  3.0674
 9514TIP3    H249958   4.668   1.320  13.858  1.2899  1.2215 -0.5136
 9515TIP3   OH249959   2.731   0.030  15.026  0.2650  0.0420 -0.3337
 9515TIP3    H149960   2.689   0.109  15.058 -2.7929 -1.4202 -0.3847
 9515TIP3    H249961   2.784  -0.001  15.099  0.3089  1.3222  0.1943
 9516TIP3   OH249962   0.227   5.858   6.289  0.0505 -0.0835 -0.0939
 9516TIP3    H149963   0.142   5.896   6.267  0.2066 -0.3276 -1.1569
 9516TIP3    H249964   0.208   5.796   6.359 -0.1982  1.9901  1.7924
 9517TIP3   OH249965   6.353   6.526   0.990  0.0829  0.1541  0.1284
 9517TIP3    H149966   6.333   6.613   0.956 -0.0380  0.5565  1.1966
 9517TIP3    H249967   6.438   6.536   1.033  0.8002 -0.6320 -1.0395
 9518TIP3   OH249968   3.748   0.092   4.733  0.2549  0.1996  0.1609
 9518TIP3    H149969   3.797   0.028   4.681  0.2042  1.7755 -1.9510
 9518TIP3    H249970   3.803   0.170   4.733 -1.1562  1.2274 -0.1995
 9519TIP3   OH249971   2.924   1.869   5.197  0.0338  0.8465  0.4378
 9519TIP3    H149972   2.867   1.894   5.124  1.9519 -0.5173 -1.6723
 9519TIP3    H249973   2.942   1.776   5.182  0.6481  0.5624  2.6081
 9520TIP3   OH249974   0.714   6.441  15.399 -0.3529  0.3068 -0.1103
 9520TIP3    H149975   0.745   6.530  15.416  0.8622  0.0303 -0.7385
 9520TIP3    H249976   0.794   6.388  15.393 -1.0135 -0.6950 -0.4815
 9521TIP3   OH249977   3.426   0.085   2.991  0.1889  0.0992 -0.1512
 9521TIP3    H149978   3.470   0.016   2.942 -1.1257 -1.8373  1.2525
 9521TIP3    H249979   3.377   0.134   2.925  0.1460 -1.1219 -1.0473
 9522TIP3   OH249980   4.202   1.413  13.527 -0.0491 -0.5641 -0.0631
 9522TIP3    H149981   4.137   1.429  13.595 -0.8565  0.6022 -1.0543
 9522TIP3    H249982   4.152   1.378  13.454  0.0269  2.0528 -1.5013
 9523TIP3   OH249983   0.448   3.251   0.462  0.1600  0.7850  0.3900
 9523TIP3    H149984   0.430   3.315   0.393  2.7897 -0.4076 -1.5842
 9523TIP3    H249985   0.489   3.301   0.532  2.8908  1.3087 -1.4320
 9524TIP3   OH249986   5.347   3.213   0.821  0.4498  0.0509  0.4021
 9524TIP3    H149987   5.437   3.181   0.816  1.0627  1.6758  0.3338
 9524TIP3    H249988   5.342   3.279   0.752 -1.2361 -0.9605 -0.5194
 9525TIP3   OH249989   2.673   1.099   0.354 -0.5530  0.2177 -0.3037
 9525TIP3    H149990   2.710   1.013   0.331 -0.3481 -0.0997  1.0986
 9525TIP3    H249991   2.668   1.146   0.271 -1.3050 -1.3867 -1.2143
 9526TIP3   OH249992   2.022   6.576   0.892  0.3254 -0.2482  0.1214
 9526TIP3    H149993   1.932   6.586   0.922 -0.2044 -0.1597 -1.3869
 9526TIP3    H249994   2.045   6.663   0.857  1.2094 -0.1082  0.9975
 9527TIP3   OH249995   0.099   1.915   2.362  0.3359 -0.2784  0.2205
 9527TIP3    H149996   0.036   1.863   2.411  1.6019  0.2984  2.6155
 9527TIP3    H249997   0.177   1.859   2.356  0.6946  0.2161  0.1911
 9528TIP3   OH249998   5.520   3.604   0.122 -0.1088 -0.0560  0.8268
 9528TIP3    H149999   5.530   3.697   0.143  2.6242  0.2549 -1.3176
 9528TIP3    H250000   5.447   3.601   0.060  1.5112  1.1671 -1.2842
 9529TIP3   OH250001   1.300   4.220   3.422  0.3631 -0.7519 -0.3870
 9529TIP3    H150002   1.262   4.231   3.509  1.5290 -0.6395  0.1312
 9529TIP3    H250003   1.239   4.163   3.375 -3.1262  3.2803 -1.3346
 9530TIP3   OH250004   6.378   6.180  14.484 -0.2148  0.2735 -0.1008
 9530TIP3    H150005   6.429   6.106  14.517 -0.7208 -0.0063  0.0771
 9530TIP3    H250006   6.294   6.173  14.530  0.1659  1.6851  0.8502
 9531TIP3   OH250007   0.526   1.224   0.080 -0.0430  0.0806  0.0773
 9531TIP3    H150008   0.610   1.257   0.050  0.7452 -0.9193  1.0880
 9531TIP3    H250009   0.528   1.130   0.058  0.1753 -0.4935  2.2810
 9532TIP3   OH250010   1.243   0.871  14.545 -0.5090  0.5631  0.3055
 9532TIP3    H150011   1.328   0.862  14.503 -0.0537 -1.2634  1.5336
 9532TIP3    H250012   1.199   0.940  14.494  0.9721  0.2627 -1.5030
 9533TIP3   OH250013   5.564   6.647  16.639  0.6257  0.1628 -0.1948
 9533TIP3    H150014   5.540   6.556  16.620 -0.2732  0.0098  1.5069
 9533TIP3    H250015   5.485   6.697  16.621  0.4080  0.2815  1.0153
 9534TIP3   OH250016   2.710   4.256   2.867  0.3228  0.3670  0.3763
 9534TIP3    H150017   2.787   4.301   2.834  0.2868  0.8539  0.9380
 9534TIP3    H250018   2.637   4.293   2.818  0.1652  1.7207  1.5604
 9535TIP3   OH250019   2.683   2.310  16.806  0.0663 -0.2621  0.3772
 9535TIP3    H150020   2.739   2.257  16.750  0.7938  0.0570  0.8006
 9535TIP3    H250021   2.609   2.333  16.750  1.0162  0.4558 -0.6241
 9536TIP3   OH250022   3.220   1.540   0.051  0.1848 -0.2784  0.1535
 9536TIP3    H150023   3.263   1.557  -0.033  0.4146  1.6388  0.6286
 9536TIP3    H250024   3.134   1.505   0.026  0.8127 -1.2005 -0.8297
 9537TIP3   OH250025   4.053   3.401  14.319  0.0501  0.3837 -0.5524
 9537TIP3    H150026   3.998   3.413  14.397 -0.9053  0.7653 -1.2632
 9537TIP3    H250027   4.140   3.432  14.346  0.7775 -3.0176  1.5407
 9538TIP3   OH250028   6.535   6.538   1.939 -0.1005 -0.0614  0.0384
 9538TIP3    H150029   6.475   6.559   1.867 -1.0629 -1.8181  0.2831
 9538TIP3    H250030   6.592   6.470   1.903 -0.3738 -0.7149  0.8221
 9539TIP3   OH250031   1.464   5.404  15.631 -0.0226  0.3308 -0.3250
 9539TIP3    H150032   1.432   5.450  15.709  0.0179  0.3604 -0.3263
 9539TIP3    H250033   1.497   5.321  15.665  0.4504  0.5477 -0.2481
 9540TIP3   OH250034   4.169   6.258   1.819  0.1907  0.3172 -0.2076
 9540TIP3    H150035   4.120   6.273   1.900  0.6972  1.7650 -0.1356
 9540TIP3    H250036   4.175   6.344   1.778 -1.2781 -0.6254 -2.5465
 9541TIP3   OH250037   0.509   1.111  14.751  0.1057 -0.1563 -0.3144
 9541TIP3    H150038   0.545   1.189  14.709  2.2899 -1.4195 -1.0003
 9541TIP3    H250039   0.439   1.082  14.693  0.3674  0.3974 -0.9156
 9542TIP3   OH250040   4.031   0.405  12.845  0.1854  0.0979 -0.0135
 9542TIP3    H150041   4.101   0.382  12.906 -0.0461 -1.1269 -0.1770
 9542TIP3    H250042   3.975   0.327  12.843 -0.4647  0.5734 -0.8785
 9543TIP3   OH250043   3.896   5.065   5.234  0.0872 -0.4303 -0.4038
 9543TIP3    H150044   3.893   4.973   5.258  1.1174  0.0403  1.7644
 9543TIP3    H250045   3.927   5.066   5.144  1.1326 -2.1572 -0.0926
 9544TIP3   OH250046   5.993   2.345   5.288 -0.2565  0.5096 -0.2502
 9544TIP3    H150047   6.033   2.271   5.333 -1.3387  0.9553  1.5323
 9544TIP3    H250048   6.029   2.341   5.199 -0.5645 -2.3507 -0.3424
 9545TIP3   OH250049   5.279   5.446   5.750 -0.0773  0.4433  0.5084
 9545TIP3    H150050   5.262   5.358   5.717  0.1684  0.9391 -0.9896
 9545TIP3    H250051   5.335   5.486   5.685 -0.0905  1.6840  1.2304
 9546TIP3   OH250052   1.860   3.984   0.499  0.0786  0.2784 -0.3979
 9546TIP3    H150053   1.768   4.008   0.512  0.5368  1.7009  0.4451
 9546TIP3    H250054   1.909   4.053   0.543  1.5435 -2.0063  1.8113
 9547TIP3   OH250055   4.825   5.077   6.217  0.9755 -0.2792  0.3896
 9547TIP3    H150056   4.882   5.052   6.290 -0.4671 -2.7772  0.7604
 9547TIP3    H250057   4.763   5.139   6.256  0.0855 -1.7429  1.4178
 9548TIP3   OH250058   3.469   5.799  16.715  0.1987 -0.0991 -0.6544
 9548TIP3    H150059   3.532   5.850  16.665  0.6928 -0.7527 -0.7189
 9548TIP3    H250060   3.523   5.744  16.772 -0.3141 -0.6854 -0.7257
 9549TIP3   OH250061   0.560   6.661   1.137  0.0169 -0.2069  0.1018
 9549TIP3    H150062   0.558   6.743   1.186  0.7512 -1.0552  1.6362
 9549TIP3    H250063   0.473   6.655   1.098  0.5437  2.2050 -1.6970
 9550TIP3   OH250064   2.259   3.517  13.297  0.1818  0.1964 -0.4974
 9550TIP3    H150065   2.203   3.505  13.220 -0.7494  0.0307  0.1886
 9550TIP3    H250066   2.315   3.439  13.298  1.4274  1.0402 -1.9893
 9551TIP3   OH250067   0.291   5.203  13.563  0.1454  0.3329 -0.0057
 9551TIP3    H150068   0.380   5.209  13.528  0.6558 -2.5449  0.5678
 9551TIP3    H250069   0.288   5.270  13.631  1.2392  1.6832 -1.2042
 9552TIP3   OH250070   3.277   3.705  11.136 -0.3037  0.1118  0.3380
 9552TIP3    H150071   3.209   3.771  11.129  0.0234  0.5937  1.4640
 9552TIP3    H250072   3.278   3.662  11.050 -1.4844  0.6046  0.0565
 9553TIP3   OH250073   5.751   4.942  12.448 -0.1096  0.3699 -0.4781
 9553TIP3    H150074   5.734   4.932  12.541 -1.3676 -0.6575 -0.7844
 9553TIP3    H250075   5.753   4.853  12.413 -1.8656  0.7651 -1.7569
 9554TIP3   OH250076   6.169   1.965   2.864 -0.4259 -0.3382 -0.2082
 9554TIP3    H150077   6.147   1.874   2.885  1.4873 -0.7198  0.3152
 9554TIP3    H250078   6.127   1.980   2.779 -1.1866 -1.5386 -0.0742
 9555TIP3   OH250079   2.968   0.827   4.580  0.3281 -0.3867  0.1378
 9555TIP3    H150080   3.052   0.788   4.556  0.0934 -0.2539 -0.9534
 9555TIP3    H250081   2.903   0.760   4.556 -0.0280  0.3791 -1.1408
 9556TIP3   OH250082   6.737   5.143   1.034 -1.1193 -0.3187  0.0014
 9556TIP3    H150083   6.771   5.055   1.050 -0.7052 -0.1922 -0.1745
 9556TIP3    H250084   6.806   5.202   1.065 -1.2734 -0.0579 -0.1463
 9557TIP3   OH250085   6.123   4.614   4.899  0.3584 -0.2612 -0.4997
 9557TIP3    H150086   6.037   4.596   4.936 -0.0948  2.7506  0.1896
 9557TIP3    H250087   6.182   4.612   4.975  0.1551  1.5738 -0.2345
 9558TIP3   OH250088   5.062   3.573  11.259 -0.1648  0.4410 -0.4973
 9558TIP3    H150089   5.144   3.540  11.222  0.6936  0.7981  1.0127
 9558TIP3    H250090   5.064   3.545  11.351 -2.2814 -0.5365 -0.6819
 9559TIP3   OH250091   4.143   4.222  15.530 -0.1504 -0.3163  0.3621
 9559TIP3    H150092   4.198   4.293  15.496 -1.8891  0.5536 -0.7684
 9559TIP3    H250093   4.098   4.261  15.605  0.1760 -0.7847  0.8086
 9560TIP3   OH250094   4.581   1.918  13.150  0.4074  0.2046  0.3334
 9560TIP3    H150095   4.542   1.831  13.143  1.9710 -0.4471 -0.9055
 9560TIP3    H250096   4.604   1.926  13.243 -0.8265 -0.1856  0.6911
 9561TIP3   OH250097   4.042   3.250   3.666 -1.0810 -0.0724  0.0460
 9561TIP3    H150098   4.028   3.260   3.571  0.2430  0.4979 -0.1108
 9561TIP3    H250099   4.119   3.195   3.673 -0.5404  0.7598  0.7747
 9562TIP3   OH250100   5.757   2.514   5.882  0.5533 -0.3658 -0.1103
 9562TIP3    H150101   5.738   2.608   5.883 -1.0630 -0.6420 -1.0715
 9562TIP3    H250102   5.826   2.503   5.947 -1.3999  1.0632  2.4287
 9563TIP3   OH250103   0.008   3.219  14.084 -0.3961 -0.2262  0.1826
 9563TIP3    H150104   0.062   3.140  14.083 -0.7943 -0.5336 -1.5723
 9563TIP3    H250105   0.070   3.291  14.089  0.0062 -0.6374  1.1815
 9564TIP3   OH250106   3.465   0.855   1.065 -0.7416 -0.2625  0.3832
 9564TIP3    H150107   3.449   0.842   0.971  0.0767 -0.5728  0.2793
 9564TIP3    H250108   3.378   0.854   1.104 -1.0720 -0.4578 -0.3338
 9565TIP3   OH250109   6.060   1.204  15.088 -0.2302  0.3413  0.2677
 9565TIP3    H150110   6.052   1.296  15.061  0.4584  0.9743  2.0603
 9565TIP3    H250111   6.080   1.157  15.007 -2.2907  1.4865 -0.9903
 9566TIP3   OH250112   3.791   3.294   5.000 -1.0609 -0.0760 -0.6474
 9566TIP3    H150113   3.729   3.222   4.989 -0.9933 -0.2449  0.0211
 9566TIP3    H250114   3.867   3.255   5.043 -0.9017  0.3311 -0.5475
 9567TIP3   OH250115   4.403   6.446   4.227 -0.2900 -0.3677  0.0458
 9567TIP3    H150116   4.391   6.470   4.135 -2.8382  1.8534  0.8273
 9567TIP3    H250117   4.384   6.526   4.276  2.0011 -1.2022  2.5368
 9568TIP3   OH250118   1.496   1.168   2.509  0.1149 -0.2568 -0.6613
 9568TIP3    H150119   1.544   1.219   2.444 -0.7236  1.8089  0.2613
 9568TIP3    H250120   1.406   1.166   2.477 -0.4883  1.5009  0.7652
 9569TIP3   OH250121   4.181   5.770   3.944 -0.4948  0.3868  0.0850
 9569TIP3    H150122   4.266   5.813   3.944 -0.7814  1.0519 -1.4370
 9569TIP3    H250123   4.118   5.842   3.941 -1.0252 -0.0995 -1.1556
 9570TIP3   OH250124   5.619   4.362  11.174 -0.1754 -0.1350  0.4326
 9570TIP3    H150125   5.698   4.312  11.193  0.1884 -0.8570 -2.5186
 9570TIP3    H250126   5.649   4.435  11.119 -1.2794  0.9323  1.1817
 9571TIP3   OH250127   2.731   3.121   4.519  0.6504 -0.2147  0.5793
 9571TIP3    H150128   2.701   3.076   4.598  0.1136 -0.0507  0.4731
 9571TIP3    H250129   2.652   3.135   4.468  0.8321  0.7235  0.5435
 9572TIP3   OH250130   2.412   4.685  14.307  0.5331 -0.0111 -0.1927
 9572TIP3    H150131   2.443   4.770  14.275 -0.8719 -0.0485 -1.8162
 9572TIP3    H250132   2.477   4.622  14.275  1.1095  0.3504  0.2531
 9573TIP3   OH250133   5.387   2.994   0.973 -0.0370  0.1625 -0.0736
 9573TIP3    H150134   5.372   3.088   0.969  0.4474  0.2937  0.9472
 9573TIP3    H250135   5.337   2.964   1.049  0.5875 -0.2440  0.1880
 9574TIP3   OH250136   2.026   5.525   0.508 -0.3396  0.3532  0.0213
 9574TIP3    H150137   2.109   5.562   0.480 -1.1697  2.2903 -0.0715
 9574TIP3    H250138   2.026   5.436   0.473  1.7251  0.2549  0.1516
 9575TIP3   OH250139   1.943   5.299   5.086 -0.1739  0.0028  0.3748
 9575TIP3    H150140   1.970   5.381   5.046  1.0290 -0.3053  0.5368
 9575TIP3    H250141   1.860   5.321   5.130 -0.9562  0.6088 -1.3048
 9576TIP3   OH250142   2.688   1.379  15.569  0.6643  0.1048  0.4447
 9576TIP3    H150143   2.624   1.444  15.539  1.8892  0.9805 -0.3477
 9576TIP3    H250144   2.663   1.361  15.660 -0.8988  0.1647  0.0576
 9577TIP3   OH250145   2.225   5.393  13.393  0.1428 -0.0214  0.2294
 9577TIP3    H150146   2.236   5.473  13.342  1.4005  0.4142  1.1143
 9577TIP3    H250147   2.132   5.389  13.412  0.3089  2.5248  2.1135
 9578TIP3   OH250148   4.974   1.456   6.158  0.3837  0.5103  0.2840
 9578TIP3    H150149   5.043   1.504   6.204 -0.7189  2.9179 -0.4224
 9578TIP3    H250150   4.896   1.469   6.212  0.0520 -0.5846  0.0971
 9579TIP3   OH250151   1.329   4.706   1.131 -0.2753 -0.3003  0.2557
 9579TIP3    H150152   1.279   4.634   1.094 -1.2101 -1.4104  3.3616
 9579TIP3    H250153   1.313   4.700   1.225  3.3787  1.0767  1.1385
 9580TIP3   OH250154   5.454   2.972   6.544  0.3281  0.2930 -0.2158
 9580TIP3    H150155   5.359   2.963   6.547  0.4592 -1.1945  2.2280
 9580TIP3    H250156   5.476   3.017   6.626  1.8230 -0.9206  0.1031
 9581TIP3   OH250157   1.742   5.398   5.737  0.0632  0.4172 -0.2733
 9581TIP3    H150158   1.706   5.478   5.776  0.9983  1.0156 -0.5905
 9581TIP3    H250159   1.731   5.331   5.805  2.0182  1.5136  1.2439
 9582TIP3   OH250160   1.894   3.065  15.849 -0.1940  0.4640 -0.0767
 9582TIP3    H150161   1.955   3.116  15.902  1.3197 -1.4857  0.1459
 9582TIP3    H250162   1.835   3.024  15.912  1.1770 -1.3000  0.1350
 9583TIP3   OH250163   5.419   0.706  13.935 -0.1638 -0.1600 -0.3221
 9583TIP3    H150164   5.500   0.720  13.886  1.0084 -0.6867  1.3811
 9583TIP3    H250165   5.434   0.624  13.983 -1.6629 -0.1985  0.1281
 9584TIP3   OH250166   4.228   6.285  15.164 -0.9777 -0.0159 -0.4894
 9584TIP3    H150167   4.133   6.286  15.167 -0.9696 -0.1566 -0.1658
 9584TIP3    H250168   4.253   6.205  15.211 -0.6925  0.1794 -0.3056
 9585TIP3   OH250169   3.321   1.143  14.704  0.4219 -0.0474 -1.0059
 9585TIP3    H150170   3.343   1.118  14.614  3.5007 -2.2431  0.1632
 9585TIP3    H250171   3.369   1.225  14.718  2.5560 -1.2822 -0.5671
 9586TIP3   OH250172   0.050   4.021   4.930  0.1096 -0.0966 -0.2597
 9586TIP3    H150173  -0.038   3.984   4.939  1.2587 -2.9128  0.4561
 9586TIP3    H250174   0.087   4.016   5.018  0.5209  2.5309 -0.2116
 9587TIP3   OH250175   4.368   1.000   0.023 -0.4517 -0.8418  0.6088
 9587TIP3    H150176   4.359   1.069  -0.043 -0.2716 -0.5757  0.8561
 9587TIP3    H250177   4.279   0.968   0.037 -0.9894  1.2239  2.4736
 9588TIP3   OH250178   3.318   4.269   4.375  0.4851 -0.4492 -0.6790
 9588TIP3    H150179   3.389   4.221   4.331  0.1683 -1.3596 -0.2152
 9588TIP3    H250180   3.363   4.339   4.423  0.9375 -0.1792 -1.4721
 9589TIP3   OH250181   2.586   1.586  13.354  0.8100 -0.1496  0.1153
 9589TIP3    H150182   2.499   1.586  13.396 -0.3493  2.6914 -1.9914
 9589TIP3    H250183   2.572   1.541  13.271  1.6225 -0.4600  0.1349
 9590TIP3   OH250184   4.548   1.530   5.788  0.0886  0.0798  0.6730
 9590TIP3    H150185   4.491   1.465   5.745 -1.0923  0.4465  1.6313
 9590TIP3    H250186   4.636   1.496   5.776 -0.5476 -2.3568  2.1361
 9591TIP3   OH250187   0.162   5.007  16.570  0.0789  0.0831 -0.3976
 9591TIP3    H150188   0.136   4.975  16.484  0.6100 -2.6776  0.3555
 9591TIP3    H250189   0.181   4.928  16.620  1.2088  1.6461  1.8305
 9592TIP3   OH250190   6.731   0.279  14.208  0.2519 -0.0316  0.2011
 9592TIP3    H150191   6.820   0.259  14.180  0.3088  0.8017 -0.2591
 9592TIP3    H250192   6.741   0.312  14.298  0.5435  1.0192 -0.1973
 9593TIP3   OH250193   5.197   5.976   3.873  0.3045  0.1867  0.3351
 9593TIP3    H150194   5.225   5.928   3.951  1.6160  1.4719  0.7140
 9593TIP3    H250195   5.240   5.931   3.801 -3.0879 -2.7614 -0.1452
 9594TIP3   OH250196   3.913   3.503   1.505 -0.1618  0.0968  0.3757
 9594TIP3    H150197   3.883   3.520   1.415  1.1921 -1.5908 -0.4532
 9594TIP3    H250198   3.853   3.553   1.560 -2.3250 -0.4448 -1.3546
 9595TIP3   OH250199   3.835   6.660   5.977 -0.7530  0.0129  0.3676
 9595TIP3    H150200   3.844   6.680   5.884 -1.2135  0.6471  0.4544
 9595TIP3    H250201   3.918   6.688   6.016  0.4931 -2.5634 -0.2078
 9596TIP3   OH250202   3.149   5.656   6.106 -0.2290  0.1604 -0.1485
 9596TIP3    H150203   3.203   5.590   6.148 -1.8365 -0.9442  0.2893
 9596TIP3    H250204   3.207   5.731   6.094  1.0371 -0.4923  1.4969
 9597TIP3   OH250205   5.062   4.910  12.359  0.5494 -0.2622  0.3006
 9597TIP3    H150206   5.038   4.818  12.372 -0.6128  0.0973  0.8170
 9597TIP3    H250207   5.050   4.924  12.265 -0.5327 -0.3087  0.4219
 9598TIP3   OH250208   1.443   0.111   0.250  0.0863  0.0149 -0.3274
 9598TIP3    H150209   1.437   0.035   0.308  1.2796 -1.5610 -2.1571
 9598TIP3    H250210   1.352   0.129   0.225 -0.4276  0.5714  1.7481
 9599TIP3   OH250211   4.533   1.047  16.990  0.6861  0.0307  0.0518
 9599TIP3    H150212   4.477   1.111  17.034  0.3823 -1.7789  2.4639
 9599TIP3    H250213   4.622   1.075  17.011  0.5821  0.1916  0.2834
 9600TIP3   OH250214   0.617   0.441  11.598  0.0931 -0.2548 -0.3493
 9600TIP3    H150215   0.647   0.528  11.572 -3.5623  0.4310 -3.0511
 9600TIP3    H250216   0.550   0.457  11.664  0.3343 -1.1506  0.1262
 9601TIP3   OH250217   0.588   5.553   4.851 -0.3662 -0.2819 -0.2554
 9601TIP3    H150218   0.586   5.458   4.860 -3.2620 -0.4640 -1.5678
 9601TIP3    H250219   0.504   5.582   4.887  0.0233  1.6811 -0.8137
 9602TIP3   OH250220   5.293   5.686  12.380 -0.0559 -0.4519 -0.1981
 9602TIP3    H150221   5.274   5.593  12.365 -0.5840 -0.2482 -0.8355
 9602TIP3    H250222   5.215   5.718  12.426  0.5819 -0.5574  0.9809
 9603TIP3   OH250223   4.624   0.929   6.357  0.4526  0.0168 -0.5435
 9603TIP3    H150224   4.648   1.021   6.362 -2.5970  0.8536  1.0134
 9603TIP3    H250225   4.677   0.894   6.285  3.0286  2.4814 -0.0159
 9604TIP3   OH250226   4.532   4.665  13.047  0.3888 -0.3857 -0.2093
 9604TIP3    H150227   4.501   4.593  12.992 -1.6830 -0.5210  1.0250
 9604TIP3    H250228   4.517   4.744  12.993  1.4319 -0.7354 -1.0503
 9605TIP3   OH250229   2.954   3.134  14.785 -0.6060 -0.3120 -0.3323
 9605TIP3    H150230   2.902   3.059  14.812 -0.8564  0.5031  1.5898
 9605TIP3    H250231   2.904   3.173  14.713 -0.8913 -1.4704 -0.7821
 9606TIP3   OH250232   4.428   4.637  12.531 -0.3847 -0.5050  0.1357
 9606TIP3    H150233   4.394   4.619  12.443  0.1371 -0.8609  0.0001
 9606TIP3    H250234   4.506   4.582  12.538 -0.1514 -0.1185  0.6415
 9607TIP3   OH250235   0.088   2.067   4.380 -0.1162  0.2175 -0.9386
 9607TIP3    H150236   0.159   2.084   4.318 -0.5036 -0.3523 -1.5514
 9607TIP3    H250237   0.053   1.981   4.354 -0.0248 -0.2189  0.3211
 9608TIP3   OH250238   5.574   0.975   0.608 -0.7718 -0.0030 -0.9595
 9608TIP3    H150239   5.589   1.067   0.588 -1.6079 -0.2452 -2.9761
 9608TIP3    H250240   5.662   0.939   0.624 -0.6025  1.6850  3.0216
 9609TIP3   OH250241   3.593   3.224  12.128 -0.7227 -0.6130 -0.5313
 9609TIP3    H150242   3.531   3.159  12.161 -2.1535  0.6971 -0.5360
 9609TIP3    H250243   3.556   3.253  12.045 -0.2955  0.4398 -0.3705
 9610TIP3   OH250244   5.499   5.909   0.026  0.2461 -0.0805  0.1703
 9610TIP3    H150245   5.411   5.874   0.015 -0.2107  1.1032 -0.1635
 9610TIP3    H250246   5.506   5.977  -0.042  0.9089  0.7631  1.0516
 9611TIP3   OH250247   2.424   5.527   4.275  0.3632 -0.4403  0.0783
 9611TIP3    H150248   2.468   5.606   4.308 -1.7841  1.1800 -0.6727
 9611TIP3    H250249   2.461   5.514   4.188 -1.0770  1.3876 -0.8801
 9612TIP3   OH250250   0.462   3.339   6.586 -0.1040  0.0171  0.7104
 9612TIP3    H150251   0.396   3.273   6.564  0.2664  0.2127 -1.2571
 9612TIP3    H250252   0.486   3.321   6.677 -4.4234  1.3361  2.3439
 9613TIP3   OH250253   3.083   0.316  12.365  0.3333 -0.0714 -0.3196
 9613TIP3    H150254   3.072   0.231  12.322 -2.6140  0.4724 -0.8996
 9613TIP3    H250255   3.175   0.319  12.391  1.1682 -2.2947 -2.6405
 9614TIP3   OH250256   5.795   3.530   4.213  0.5473 -0.5542  0.3848
 9614TIP3    H150257   5.789   3.533   4.309 -0.3419 -2.6768  0.4354
 9614TIP3    H250258   5.888   3.546   4.195  0.7073 -0.0015  1.5778
 9615TIP3   OH250259   1.055   0.623   2.685 -0.2539  0.0795 -0.1033
 9615TIP3    H150260   1.089   0.548   2.636 -2.7629 -1.1620 -0.0948
 9615TIP3    H250261   1.038   0.588   2.773 -1.8072  0.4935 -0.2061
 9616TIP3   OH250262   3.743   6.756  16.087 -0.1032 -0.3188  0.7200
 9616TIP3    H150263   3.822   6.802  16.057 -1.0483  2.1933  1.8313
 9616TIP3    H250264   3.690   6.823  16.129 -1.4208 -2.5268  2.8808
 9617TIP3   OH250265   2.939   3.128   0.532  0.2999 -0.3196 -0.1586
 9617TIP3    H150266   2.850   3.161   0.520  0.3309  0.2124  0.9632
 9617TIP3    H250267   2.929   3.050   0.586  0.6016  0.5664  1.2436
 9618TIP3   OH250268   3.776   4.070  14.206 -0.0914  0.0887  0.2843
 9618TIP3    H150269   3.857   4.082  14.256 -0.7769  0.3339  1.3621
 9618TIP3    H250270   3.743   4.159  14.192 -0.8153 -0.0661  0.9485
 9619TIP3   OH250271   5.310   4.596   1.686 -0.2521  0.4289  0.4277
 9619TIP3    H150272   5.403   4.573   1.678 -0.6370 -0.9757 -0.3693
 9619TIP3    H250273   5.295   4.602   1.780  0.3407 -0.6718  0.6039
 9620TIP3   OH250274   5.431   2.073  16.951  0.0638 -0.0692 -0.6075
 9620TIP3    H150275   5.511   2.020  16.960  0.1014  0.2001  1.0191
 9620TIP3    H250276   5.449   2.131  16.877  1.4119  0.0238 -0.2409
 9621TIP3   OH250277   0.077   2.238   5.818  0.1986 -0.0116  0.2909
 9621TIP3    H150278   0.075   2.276   5.906 -1.0518 -0.7580  0.6198
 9621TIP3    H250279   0.121   2.154   5.829 -1.4343 -0.8740  0.5753
 9622TIP3   OH250280   2.115   5.076  15.695 -0.1234 -0.4635  0.1056
 9622TIP3    H150281   2.074   5.033  15.620 -1.4361  1.7316 -0.5256
 9622TIP3    H250282   2.100   5.170  15.680 -0.6941  0.0522  3.2498
 9623TIP3   OH250283   1.641   2.508   4.181 -0.5143 -0.7268 -0.0614
 9623TIP3    H150284   1.692   2.589   4.176  0.3633 -1.3676 -2.0553
 9623TIP3    H250285   1.560   2.535   4.225 -0.2415  1.2350 -0.6453
 9624TIP3   OH250286   4.429   1.750  16.657  0.4169  0.5015 -0.1535
 9624TIP3    H150287   4.423   1.828  16.601  0.2252  1.9710  1.7926
 9624TIP3    H250288   4.350   1.755  16.712  0.1218 -1.4014 -0.3594
 9625TIP3   OH250289   1.055   1.398  13.128 -0.0104 -0.1668 -0.3162
 9625TIP3    H150290   1.128   1.417  13.070 -1.5155 -0.7832 -2.5539
 9625TIP3    H250291   1.093   1.347  13.199  1.8985  0.4834 -0.8237
 9626TIP3   OH250292   1.015   1.217   4.962 -0.0191  0.1665 -0.1998
 9626TIP3    H150293   0.970   1.134   4.980  1.0267 -0.5858 -0.9886
 9626TIP3    H250294   1.028   1.255   5.049 -0.3766 -0.5631  0.1883
 9627TIP3   OH250295   3.646   2.577   1.816  0.2726  0.4670  0.5472
 9627TIP3    H150296   3.579   2.574   1.749  1.4375 -0.0796 -0.6449
 9627TIP3    H250297   3.697   2.655   1.797  1.4032 -0.3816 -0.0389
 9628TIP3   OH250298   4.222   3.495  15.591  0.1909  0.0701 -0.2830
 9628TIP3    H150299   4.253   3.543  15.515 -0.4764 -1.8800 -1.8578
 9628TIP3    H250300   4.241   3.404  15.571 -2.1666 -0.7309  0.8114
 9629TIP3   OH250301   6.509   3.267   1.756 -0.2052 -0.3794 -0.0609
 9629TIP3    H150302   6.469   3.353   1.768  0.5094 -0.0179 -0.2339
 9629TIP3    H250303   6.550   3.271   1.670  1.4044 -0.2412  0.6748
 9630TIP3   OH250304   5.194   4.105   3.178 -0.2134  0.1656  0.4282
 9630TIP3    H150305   5.147   4.102   3.262  2.0387 -1.4365  1.7538
 9630TIP3    H250306   5.258   4.176   3.188  1.2500 -1.1453  0.8361
 9631TIP3   OH250307   5.852   0.959   0.620 -0.6314  0.1492 -0.1573
 9631TIP3    H150308   5.871   0.908   0.699 -0.9247 -1.3137 -0.9862
 9631TIP3    H250309   5.890   1.045   0.637  1.6748 -0.9095  0.5404
 9632TIP3   OH250310   2.426   6.258   3.291  0.0037  0.2141 -0.3324
 9632TIP3    H150311   2.516   6.250   3.322  0.2260 -0.5508 -1.1106
 9632TIP3    H250312   2.432   6.242   3.197 -0.7400  1.7448 -0.6619
 9633TIP3   OH250313   1.156   2.336  17.083  0.2502  0.0476  0.0562
 9633TIP3    H150314   1.245   2.344  17.049  0.8638 -1.4203  1.2269
 9633TIP3    H250315   1.118   2.262  17.035 -0.9958  1.6767 -1.6594
 9634TIP3   OH250316   3.231   4.823  17.163  0.8614 -0.7764 -0.2836
 9634TIP3    H150317   3.295   4.798  17.097  0.5958 -3.0041  0.2401
 9634TIP3    H250318   3.280   4.826  17.245  0.8115  0.1413 -0.2757
 9635TIP3   OH250319   1.707   1.370   0.762  0.0817 -0.1900 -0.1640
 9635TIP3    H150320   1.688   1.295   0.818  1.2461 -0.6413 -0.3419
 9635TIP3    H250321   1.791   1.348   0.722 -0.4298  0.3996 -1.6056
 9636TIP3   OH250322   2.717   4.598   3.812  0.8635  0.0650 -0.1794
 9636TIP3    H150323   2.745   4.574   3.723  1.2535 -1.9880  0.4494
 9636TIP3    H250324   2.723   4.516   3.862 -0.4531  0.9244  1.4736
 9637TIP3   OH250325   1.828   5.179  11.948 -0.2241 -0.1822 -0.0051
 9637TIP3    H150326   1.796   5.254  11.897 -0.9144  0.7983  1.7839
 9637TIP3    H250327   1.815   5.205  12.039  3.6439 -0.6626  0.8218
 9638TIP3   OH250328   1.270   4.186  11.478  0.3510  0.2334 -0.2003
 9638TIP3    H150329   1.192   4.240  11.463  0.7472  1.0727  0.6531
 9638TIP3    H250330   1.342   4.242  11.452  0.7283 -0.1992 -0.0929
 9639TIP3   OH250331   3.792   0.398   0.189  0.7274 -0.1418  0.1108
 9639TIP3    H150332   3.714   0.422   0.138  1.7304 -0.4258 -1.6550
 9639TIP3    H250333   3.775   0.309   0.219  0.2387 -0.0845  0.0132
 9640TIP3   OH250334   1.069   1.516  11.232 -0.2570  0.5522  0.2877
 9640TIP3    H150335   1.061   1.535  11.325  1.4959  0.2533  0.5270
 9640TIP3    H250336   1.143   1.568  11.203 -0.3219  0.0787 -0.7772
 9641TIP3   OH250337   1.872   6.204  15.466  0.2510  0.3455  0.7366
 9641TIP3    H150338   1.939   6.204  15.399 -0.1594 -0.5847  0.3066
 9641TIP3    H250339   1.841   6.295  15.470  1.3253  0.7150  0.7470
 9642TIP3   OH250340   3.094   6.603   3.567  0.2971 -0.5573  0.2680
 9642TIP3    H150341   3.125   6.652   3.491  1.0090 -0.2953  0.7194
 9642TIP3    H250342   3.008   6.641   3.587  0.0599 -0.6967 -0.4555
 9643TIP3   OH250343   0.090   0.889   0.392  0.1869 -0.5129 -0.5405
 9643TIP3    H150344   0.165   0.941   0.362 -0.3102 -0.3423 -1.5184
 9643TIP3    H250345   0.042   0.947   0.451  0.1707 -0.2016 -0.8602
 9644TIP3   OH250346   1.371   5.386   0.384  0.3959  0.3169 -0.6687
 9644TIP3    H150347   1.351   5.421   0.471 -0.1157 -0.3439 -0.5195
 9644TIP3    H250348   1.339   5.453   0.323  0.4660  0.6335 -0.3624
 9645TIP3   OH250349   3.868   1.471  15.062 -0.0934 -0.4785 -0.5358
 9645TIP3    H150350   3.809   1.520  15.120 -0.0412 -0.1427 -0.7657
 9645TIP3    H250351   3.836   1.488  14.974 -0.2387 -1.0787 -0.6070
 9646TIP3   OH250352   0.068   4.067   1.684  0.1995 -0.7801  0.4280
 9646TIP3    H150353   0.048   3.975   1.667  0.5627 -0.6652 -0.7141
 9646TIP3    H250354   0.162   4.075   1.665 -0.2392  0.2515 -1.5946
 9647TIP3   OH250355   0.231   1.420  16.201 -0.2790  0.5914 -0.4447
 9647TIP3    H150356   0.227   1.436  16.295 -1.0152 -0.2403 -0.3152
 9647TIP3    H250357   0.189   1.335  16.190  0.3454  0.4020 -1.4611
 9648TIP3   OH250358   3.490   2.050   2.316 -0.2627 -0.1500 -0.8688
 9648TIP3    H150359   3.423   2.024   2.253 -1.2710 -2.4279  1.0527
 9648TIP3    H250360   3.448   2.118   2.369 -0.1940  0.1258 -1.1597
 9649TIP3   OH250361   6.159   4.889   5.056  0.3337  0.1135  0.2589
 9649TIP3    H150362   6.087   4.902   5.118  0.2699 -0.8956  0.4249
 9649TIP3    H250363   6.217   4.827   5.101  1.6191  1.3447  0.3792
 9650TIP3   OH250364   4.819   3.502   3.572  0.4317 -0.3996 -0.2010
 9650TIP3    H150365   4.796   3.432   3.633 -0.3013  1.4814  1.7839
 9650TIP3    H250366   4.743   3.508   3.514  0.0025 -0.5030  0.3379
 9651TIP3   OH250367   6.265   4.620   5.152  0.5318 -0.0232 -0.4404
 9651TIP3    H150368   6.359   4.629   5.167  0.3977 -0.3310  0.6516
 9651TIP3    H250369   6.230   4.587   5.234 -0.6365  0.7494 -0.5937
 9652TIP3   OH250370   1.419   0.815  16.678 -0.0382  0.1958 -0.1068
 9652TIP3    H150371   1.384   0.729  16.655  0.6947 -0.4193  1.0025
 9652TIP3    H250372   1.349   0.876  16.655 -1.1064 -0.8228  0.3595
 9653TIP3   OH250373   4.377   4.512  12.219 -0.1187  0.1273  0.1827
 9653TIP3    H150374   4.393   4.539  12.129  2.3257 -0.1833  0.4562
 9653TIP3    H250375   4.300   4.454  12.214 -1.3986  1.8441 -1.3272
 9654TIP3   OH250376   2.897   5.235  12.960  0.0940  0.5075 -0.4606
 9654TIP3    H150377   2.960   5.291  12.914  0.1887 -0.2168 -1.2449
 9654TIP3    H250378   2.850   5.294  13.018  2.0475  0.9461  0.7618
 9655TIP3   OH250379   1.640   1.003   6.158 -0.3914 -0.4039  0.4488
 9655TIP3    H150380   1.554   1.042   6.173  0.7027  2.3596  0.1047
 9655TIP3    H250381   1.690   1.024   6.237  0.9139  1.0444 -0.6809
 9656TIP3   OH250382   0.348   1.765   3.180 -0.3513 -0.3649  0.8558
 9656TIP3    H150383   0.298   1.686   3.157 -0.4431 -0.4350  1.2981
 9656TIP3    H250384   0.286   1.837   3.169  0.0916 -0.1978 -0.8390
 9657TIP3   OH250385   3.193   6.504  11.246 -0.5868  0.2587  0.1225
 9657TIP3    H150386   3.160   6.556  11.319 -1.0790  1.4432 -0.9044
 9657TIP3    H250387   3.237   6.568  11.189 -1.0708 -0.4710 -1.0986
 9658TIP3   OH250388   2.025   0.547  16.087  0.0746  0.1489  0.0296
 9658TIP3    H150389   1.979   0.547  16.171 -0.4752  0.3669 -0.2672
 9658TIP3    H250390   2.026   0.455  16.060  0.4538  0.0491  0.3861
 9659TIP3   OH250391   6.632   6.555  15.711 -0.1847 -0.3227 -0.3716
 9659TIP3    H150392   6.637   6.592  15.623 -1.2596 -1.2008 -0.8200
 9659TIP3    H250393   6.638   6.631  15.769 -0.5547  0.3744 -1.2184
 9660TIP3   OH250394   5.924   5.321  13.315 -0.1033 -0.2324 -0.1832
 9660TIP3    H150395   5.909   5.363  13.230 -0.5053  3.2529  1.4161
 9660TIP3    H250396   6.015   5.342  13.336 -0.2551 -0.3188  0.5972
 9661TIP3   OH250397   4.762   6.174   3.038  0.6251 -0.0523  0.3835
 9661TIP3    H150398   4.799   6.250   2.994 -1.0703  1.4142  1.3891
 9661TIP3    H250399   4.719   6.209   3.116 -1.2449 -1.8645  0.2629
 9662TIP3   OH250400   4.253   6.741  13.459  0.1294  0.6157  0.8986
 9662TIP3    H150401   4.345   6.714  13.467  0.7497  1.6271 -1.8402
 9662TIP3    H250402   4.217   6.684  13.391 -0.8795  1.1761  0.9447
 9663TIP3   OH250403   0.170   4.818   6.488 -0.2473  0.2654  0.2599
 9663TIP3    H150404   0.212   4.750   6.435 -1.0282 -0.1568  0.1717
 9663TIP3    H250405   0.080   4.789   6.497  0.2061 -0.5217  3.1926
 9664TIP3   OH250406   5.022   1.019   4.836  1.0805  0.2831 -0.5174
 9664TIP3    H150407   4.950   0.957   4.831  0.9362  0.2728  1.1759
 9664TIP3    H250408   5.097   0.971   4.801  0.8966 -0.7412  0.4301
 9665TIP3   OH250409   4.238   6.165   6.039  0.2890 -0.4384  0.2509
 9665TIP3    H150410   4.149   6.146   6.066 -0.3978 -0.5281 -1.8801
 9665TIP3    H250411   4.274   6.081   6.011  0.2978 -0.0942 -0.8392
 9666TIP3   OH250412   5.397   0.809  13.617 -0.0666  0.5878 -0.1979
 9666TIP3    H150413   5.394   0.874  13.688  0.2037 -0.7578  1.0980
 9666TIP3    H250414   5.416   0.860  13.539  0.0603  2.0825  0.7613
 9667TIP3   OH250415   3.447   5.996   0.073  0.4127 -0.1446 -0.2387
 9667TIP3    H150416   3.403   5.931   0.129  0.6860  0.0536  0.2109
 9667TIP3    H250417   3.506   5.944   0.019 -0.8326 -0.4987 -1.3284
 9668TIP3   OH250418   1.544   0.824  17.245 -0.1504 -0.0043 -0.2535
 9668TIP3    H150419   1.520   0.737  17.213 -0.8871 -0.1803  0.7558
 9668TIP3    H250420   1.619   0.849  17.190 -1.9272  0.1229 -2.7835
 9669TIP3   OH250421   3.457   5.473   0.049 -0.5018 -0.2246  0.3349
 9669TIP3    H150422   3.490   5.534   0.115  0.4124 -0.7588  0.3935
 9669TIP3    H250423   3.382   5.518   0.010  1.0378  1.6152 -0.6681
 9670TIP3   OH250424   0.991   2.502  15.911 -0.0538 -0.0214  0.4227
 9670TIP3    H150425   1.027   2.467  15.830 -1.3566  0.5915 -0.4475
 9670TIP3    H250426   1.014   2.437  15.978  3.4630  0.7788  0.1522
 9671TIP3   OH250427   5.513   4.179   5.959  0.7075 -0.1558 -0.5280
 9671TIP3    H150428   5.442   4.194   6.022  1.2230  1.3648 -0.2768
 9671TIP3    H250429   5.508   4.085   5.939 -3.2144  0.3007 -2.7165
 9672TIP3   OH250430   3.041   1.163   0.083  0.1902 -0.0391 -0.1571
 9672TIP3    H150431   2.972   1.215   0.126 -0.6371 -0.1876 -1.2648
 9672TIP3    H250432   3.115   1.167   0.144 -0.5397  0.7516  0.7161
 9673TIP3   OH250433   2.692   6.277   0.602  0.3736  0.1157 -0.0488
 9673TIP3    H150434   2.720   6.245   0.516  1.5079  0.2166  0.2801
 9673TIP3    H250435   2.602   6.245   0.610  0.5761 -0.7101 -0.8672
 9674TIP3   OH250436   2.392   3.003  11.088 -0.0923  0.1179  0.2585
 9674TIP3    H150437   2.303   2.978  11.066  0.1354 -1.4227  0.9440
 9674TIP3    H250438   2.413   3.073  11.026 -1.8785  0.7653  0.3304
 9675TIP3   OH250439   5.795   5.272  16.296  0.2032  0.5098  0.2446
 9675TIP3    H150440   5.775   5.330  16.369  1.5881  0.2954  0.8215
 9675TIP3    H250441   5.724   5.288  16.233 -0.7630  1.0239  1.4248
 9676TIP3   OH250442   5.888   5.953  14.244 -0.1215  0.0147 -0.4784
 9676TIP3    H150443   5.839   5.979  14.166 -1.6392  1.4645  0.8632
 9676TIP3    H250444   5.860   5.863  14.261  1.4018 -0.8937 -2.4026
 9677TIP3   OH250445   6.435   0.401  17.067 -0.5107 -0.4283 -0.5936
 9677TIP3    H150446   6.343   0.383  17.090  0.0916 -1.5228  1.1331
 9677TIP3    H250447   6.460   0.331  17.007 -0.4425 -0.8471 -0.0750
 9678TIP3   OH250448   5.629   4.304  16.026 -0.2175 -0.3077  0.4560
 9678TIP3    H150449   5.555   4.304  15.965 -0.7130  0.4110  1.0434
 9678TIP3    H250450   5.617   4.383  16.079  1.2042  0.0617  0.2783
 9679TIP3   OH250451   5.679   3.286  14.336  0.1351  0.2603  0.1807
 9679TIP3    H150452   5.637   3.327  14.260  1.6320  2.6091  0.4990
 9679TIP3    H250453   5.734   3.217  14.298 -0.4703  0.2488 -0.7000
 9680TIP3   OH250454   6.513   4.821   4.054  0.2953 -1.0331  0.1097
 9680TIP3    H150455   6.479   4.759   4.118  0.6174 -0.6707  0.6365
 9680TIP3    H250456   6.590   4.859   4.096 -0.8513  0.9787  0.5244
 9681TIP3   OH250457   4.866   4.424   2.716 -0.3502  0.5497  0.1934
 9681TIP3    H150458   4.900   4.510   2.689  0.1649 -0.1456 -1.4913
 9681TIP3    H250459   4.773   4.426   2.692 -0.4964  0.8811  0.7844
 9682TIP3   OH250460   1.260   3.301  16.244  0.5938  0.0304 -0.0888
 9682TIP3    H150461   1.257   3.325  16.152 -0.7377  1.8015  0.3785
 9682TIP3    H250462   1.300   3.214  16.244  2.7724  0.8979 -2.1311
 9683TIP3   OH250463   6.176   1.855  15.705  0.2981 -0.5299  0.0693
 9683TIP3    H150464   6.219   1.890  15.783 -0.3368  0.5929 -0.0716
 9683TIP3    H250465   6.242   1.799  15.664  1.1932  0.1807  0.5242
 9684TIP3   OH250466   3.072   4.803   3.672  0.3802 -0.3546 -0.1928
 9684TIP3    H150467   3.143   4.773   3.729  0.6797 -3.4017 -1.9767
 9684TIP3    H250468   2.996   4.811   3.730  1.0869 -1.5504  0.9480
 9685TIP3   OH250469   1.303   3.623   0.482 -0.3518  0.0113 -0.1672
 9685TIP3    H150470   1.228   3.565   0.496  1.3460 -2.1054  0.7929
 9685TIP3    H250471   1.265   3.702   0.444 -3.2916 -0.2132  1.9404
 9686TIP3   OH250472   5.142   3.999   2.906 -0.5206 -0.0921 -0.5429
 9686TIP3    H150473   5.062   4.028   2.864 -0.1908  0.8189 -0.5683
 9686TIP3    H250474   5.166   4.071   2.964 -0.2810 -0.7920  0.2496
 9687TIP3   OH250475   6.211   5.444  12.592 -0.4208  0.0344  0.2936
 9687TIP3    H150476   6.182   5.454  12.502  2.7072 -1.3026 -1.0095
 9687TIP3    H250477   6.188   5.354  12.615 -0.8299  0.2386  0.7022
 9688TIP3   OH250478   5.796   2.054  16.769 -0.0230  0.0560 -0.4166
 9688TIP3    H150479   5.863   2.095  16.823  0.7772 -0.8068 -0.7254
 9688TIP3    H250480   5.726   2.031  16.830 -1.3612  3.4265 -0.4444
 9689TIP3   OH250481   2.488   1.810   5.311 -0.2546  0.5408  0.0756
 9689TIP3    H150482   2.393   1.821   5.320 -0.3253 -0.5691  0.8775
 9689TIP3    H250483   2.500   1.716   5.299  0.8375  0.4745  1.4553
 9690TIP3   OH250484   2.285   0.225  11.522 -0.0397  0.0886 -0.8229
 9690TIP3    H150485   2.222   0.153  11.515 -0.0476 -0.1206  0.9655
 9690TIP3    H250486   2.354   0.191  11.579 -0.4926  1.7832  0.7970
 9691TIP3   OH250487   2.493   1.458  14.455  0.1459  0.2336  0.5323
 9691TIP3    H150488   2.460   1.548  14.460 -0.7475 -0.0171 -0.4583
 9691TIP3    H250489   2.429   1.407  14.505 -0.1566 -0.0488 -0.1376
 9692TIP3   OH250490   0.349   5.773   5.133  0.4673  0.4196 -0.1133
 9692TIP3    H150491   0.386   5.822   5.060 -1.3351  1.1154 -0.6214
 9692TIP3    H250492   0.312   5.694   5.092  1.0308 -0.0833  0.3280
 9693TIP3   OH250493   5.102   2.943   0.610 -0.6041 -0.0309  0.2764
 9693TIP3    H150494   5.047   2.868   0.632  0.8636 -0.9026  1.1419
 9693TIP3    H250495   5.184   2.927   0.656  0.9080  0.4960 -2.0389
 9694TIP3   OH250496   1.526   3.499   5.912  0.1340 -0.2748 -0.1583
 9694TIP3    H150497   1.439   3.522   5.879 -0.4069 -0.2558  1.2189
 9694TIP3    H250498   1.582   3.572   5.886 -0.8629  1.0902  1.3360
 9695TIP3   OH250499   3.412   4.390  13.423  0.3708  0.1569  0.3803
 9695TIP3    H150500   3.450   4.307  13.393  1.8074  0.6418  0.7868
 9695TIP3    H250501   3.460   4.411  13.503  0.1611  1.4757  0.1871
 9696TIP3   OH250502   0.025   6.500  13.225  0.3461 -0.0420 -0.0153
 9696TIP3    H150503   0.012   6.470  13.135  0.4245 -0.0743 -0.0162
 9696TIP3    H250504   0.053   6.591  13.216  1.9228 -0.5084 -0.1019
 9697TIP3   OH250505   3.241   2.984   4.571 -0.3500 -0.3987  0.6088
 9697TIP3    H150506   3.279   3.071   4.578  0.1107 -0.2534 -2.2903
 9697TIP3    H250507   3.148   3.001   4.553 -0.6324 -0.5924  1.8074
 9698TIP3   OH250508   3.960   1.306   4.848  0.1544  0.2241  0.1006
 9698TIP3    H150509   4.029   1.276   4.908 -0.9255  1.9414  2.3654
 9698TIP3    H250510   3.978   1.261   4.766  3.5541  0.0602  0.7839
 9699TIP3   OH250511   1.212   1.197   4.113  0.3705 -0.0634 -0.3947
 9699TIP3    H150512   1.149   1.125   4.119  2.0042 -1.4875  0.3536
 9699TIP3    H250513   1.197   1.235   4.026 -1.1503 -0.6744 -0.4306
 9700TIP3   OH250514   1.501   3.267   4.409 -0.1991  0.0822  0.0644
 9700TIP3    H150515   1.457   3.331   4.353 -2.9427 -0.7368  1.0990
 9700TIP3    H250516   1.588   3.257   4.371 -1.4207  0.6139 -3.2198
 9701TIP3   OH250517   5.057   0.872  14.349  0.0859 -0.1137 -0.3060
 9701TIP3    H150518   5.025   0.802  14.292  0.9626 -0.6526 -0.1543
 9701TIP3    H250519   5.048   0.837  14.437 -0.9967  0.6097 -0.1145
 9702TIP3   OH250520   6.626   0.298  14.627 -0.1524  0.2856 -0.3776
 9702TIP3    H150521   6.570   0.323  14.701  0.3955 -0.1069  0.1738
 9702TIP3    H250522   6.702   0.355  14.634  0.8159 -1.0768  0.5223
 9703TIP3   OH250523   4.128   1.238  12.545 -0.2528 -0.3165 -0.3235
 9703TIP3    H150524   4.093   1.218  12.632 -2.3350 -1.1982 -1.2874
 9703TIP3    H250525   4.223   1.247  12.558 -0.4034 -1.3511  1.8680
 9704TIP3   OH250526   0.216   1.611   3.840  0.1555  0.0084  0.2973
 9704TIP3    H150527   0.147   1.554   3.876 -0.0774  0.2276  0.1997
 9704TIP3    H250528   0.296   1.561   3.852 -0.1345 -0.6548 -0.4382
 9705TIP3   OH250529   6.617   0.720  16.445  0.1041 -0.1157  0.6563
 9705TIP3    H150530   6.615   0.625  16.451  0.0976 -0.1835 -0.2948
 9705TIP3    H250531   6.701   0.745  16.486  0.4547 -0.5881  0.2367
 9706TIP3   OH250532   2.791   2.811  11.064 -0.1545  0.5365 -0.5226
 9706TIP3    H150533   2.773   2.717  11.070  0.5435  0.4453  0.6047
 9706TIP3    H250534   2.821   2.824  10.975 -1.0159 -0.1704 -0.9316
 9707TIP3   OH250535   1.343   5.298  13.033 -0.3633 -1.2113 -0.1576
 9707TIP3    H150536   1.254   5.265  13.020 -1.2549  0.5389  1.0266
 9707TIP3    H250537   1.352   5.302  13.128  0.3606  0.1811 -0.2738
 9708TIP3   OH250538   1.504   6.229   5.767 -0.2283  0.1575 -0.1825
 9708TIP3    H150539   1.434   6.230   5.832 -0.4810  1.7458 -0.4478
 9708TIP3    H250540   1.571   6.287   5.802  0.6725 -0.7844 -0.2725
 9709TIP3   OH250541   3.017   0.716  13.056 -0.0745 -0.7582 -0.0636
 9709TIP3    H150542   2.938   0.739  13.007  1.0183  0.0278 -1.4810
 9709TIP3    H250543   3.068   0.663  12.996  0.7176 -0.8553  0.6824
 9710TIP3   OH250544   1.080   4.939  12.590 -0.4929 -0.0386  0.3203
 9710TIP3    H150545   1.040   4.853  12.601  0.6921 -0.5005  1.3304
 9710TIP3    H250546   1.141   4.946  12.664  0.5427  1.0324 -0.5967
 9711TIP3   OH250547   5.661   3.933  13.550 -0.0872 -0.3764  0.3114
 9711TIP3    H150548   5.696   3.960  13.635 -0.6689 -1.0379  0.7758
 9711TIP3    H250549   5.715   3.858  13.525  1.5283  1.1323 -0.9763
 9712TIP3   OH250550   2.383   2.398  14.899 -0.4444  0.6760 -0.8529
 9712TIP3    H150551   2.368   2.422  14.808 -0.1109  2.5876 -0.4534
 9712TIP3    H250552   2.447   2.327  14.895 -1.4188 -0.1530 -2.1365
 9713TIP3   OH250553   0.777   1.492  16.449 -0.4450 -0.3625  0.1390
 9713TIP3    H150554   0.839   1.420  16.437  0.3214  0.1907  0.6618
 9713TIP3    H250555   0.776   1.507  16.544  0.4150  1.1681 -0.0617
 9714TIP3   OH250556   3.437   2.945   3.851  0.2983 -0.1760 -0.2502
 9714TIP3    H150557   3.424   2.851   3.849  0.5065 -0.2332  0.7418
 9714TIP3    H250558   3.511   2.958   3.910 -0.6389  0.6913  0.7751
 9715TIP3   OH250559   0.421   0.449  11.793  0.5366 -0.3264 -0.2015
 9715TIP3    H150560   0.447   0.502  11.868  0.6437  0.1830 -0.5959
 9715TIP3    H250561   0.326   0.460  11.787  0.4575 -0.7775  0.1670
 9716TIP3   OH250562   4.411   1.369  10.740 -0.0062  0.3517 -0.2180
 9716TIP3    H150563   4.434   1.294  10.685 -1.8742  1.0244 -2.0465
 9716TIP3    H250564   4.469   1.439  10.711  2.4759 -0.5263  2.2066
 9717TIP3   OH250565   0.208   5.848  14.730 -0.7179  0.2196  0.2573
 9717TIP3    H150566   0.191   5.754  14.721 -3.3617  0.5594  1.1035
 9717TIP3    H250567   0.221   5.861  14.824  0.7353  0.5798  0.0292
 9718TIP3   OH250568   4.265   0.186  16.900  0.5007  0.4355  0.1353
 9718TIP3    H150569   4.316   0.122  16.852 -0.4545  0.4004 -0.8926
 9718TIP3    H250570   4.274   0.162  16.992  2.7923  0.8058  0.0459
 9719TIP3   OH250571   5.218   1.315  17.045  0.5576  0.0958 -0.1299
 9719TIP3    H150572   5.157   1.333  16.973  1.1284  1.8128 -0.2200
 9719TIP3    H250573   5.204   1.386  17.107  0.7892 -0.8123  1.0083
 9720TIP3   OH250574   4.563   5.231   5.230  0.3547  0.3061  0.1541
 9720TIP3    H150575   4.576   5.198   5.320 -0.9852 -1.0952 -0.1217
 9720TIP3    H250576   4.648   5.217   5.188  0.8216  0.4000  1.0356
 9721TIP3   OH250577   0.026   2.856  14.939  0.1829 -0.2223 -0.0174
 9721TIP3    H150578   0.094   2.824  14.998 -1.5121 -0.6964  1.7593
 9721TIP3    H250579   0.063   2.937  14.902  0.9155  0.6886  2.5203
 9722TIP3   OH250580   5.271   1.701  14.327 -0.1989 -0.1447 -0.3935
 9722TIP3    H150581   5.182   1.668  14.338  0.0040 -0.5035  0.2307
 9722TIP3    H250582   5.325   1.639  14.376  0.1864  1.2057  0.9225
 9723TIP3   OH250583   5.649   3.066  12.403 -0.3224  0.0055 -0.3280
 9723TIP3    H150584   5.566   3.045  12.446  0.8202 -1.5174  1.2954
 9723TIP3    H250585   5.634   3.151  12.361 -2.7481 -0.3493 -0.3026
 9724TIP3   OH250586   4.393   3.742   3.975  0.3358 -0.3000 -0.6427
 9724TIP3    H150587   4.462   3.680   3.997  1.3129  0.3123 -1.8553
 9724TIP3    H250588   4.436   3.810   3.924 -1.0474  0.4359 -0.9014
 9725TIP3   OH250589   6.679   1.042  15.200  0.8502  0.1742  0.7810
 9725TIP3    H150590   6.765   1.076  15.177  0.1115  2.0980  0.7150
 9725TIP3    H250591   6.676   1.049  15.296  0.8360 -0.1353  0.8067
 9726TIP3   OH250592   0.093   5.696   0.783 -0.3994 -0.4603  0.1310
 9726TIP3    H150593   0.104   5.604   0.805 -1.7405 -0.7270 -0.2489
 9726TIP3    H250594   0.049   5.734   0.859  0.8250  0.0688  0.6201
 9727TIP3   OH250595   2.354   3.651  14.638 -0.1397 -0.3018 -0.5496
 9727TIP3    H150596   2.352   3.713  14.711  0.6794  2.6067 -2.7820
 9727TIP3    H250597   2.268   3.660  14.596  0.4209  0.3353 -1.6087
 9728TIP3   OH250598   5.508   0.282  17.119  0.0741  0.2395  0.1292
 9728TIP3    H150599   5.597   0.317  17.106  0.4723 -0.0796  1.7130
 9728TIP3    H250600   5.514   0.235  17.203 -2.2075  2.2753  1.5266
 9729TIP3   OH250601   3.858   0.094  11.928 -0.9642  0.1517  0.5569
 9729TIP3    H150602   3.861   0.076  11.834 -0.5561 -0.0032  0.5964
 9729TIP3    H250603   3.843   0.188  11.934 -0.3891  0.2659  0.3277
 9730TIP3   OH250604   4.914   4.028   1.152  0.1899 -0.6540  0.0284
 9730TIP3    H150605   4.905   3.999   1.243  1.3158 -3.3627 -0.6370
 9730TIP3    H250606   5.004   4.061   1.146 -0.3125  0.8571  0.1616
 9731TIP3   OH250607   0.959   2.676  17.195 -0.1539  0.1583 -0.2040
 9731TIP3    H150608   0.901   2.752  17.193 -0.0784  0.2011 -1.4118
 9731TIP3    H250609   0.922   2.616  17.130 -0.6755 -1.2062  1.2767
 9732TIP3   OH250610   3.005   1.334   5.071 -0.1492 -0.6739 -0.1574
 9732TIP3    H150611   2.994   1.258   5.128  0.8452 -0.4492  0.3531
 9732TIP3    H250612   2.977   1.304   4.985 -1.3176 -1.1292  0.3628
 9733TIP3   OH250613   2.779   5.913   1.846 -0.3808 -0.5162  0.0145
 9733TIP3    H150614   2.860   5.909   1.797  0.2348  4.0416  0.2065
 9733TIP3    H250615   2.806   5.910   1.938 -0.5998 -0.7018  0.0735
 9734TIP3   OH250616   3.327   4.019   3.426  0.3080  0.2214  0.3218
 9734TIP3    H150617   3.244   3.989   3.462  0.2404  2.0305  1.8794
 9734TIP3    H250618   3.315   4.016   3.331 -1.3330 -0.0779  0.5126
 9735TIP3   OH250619   6.333   5.740   2.518 -0.3756  0.3822  0.3859
 9735TIP3    H150620   6.355   5.730   2.426 -1.6074 -0.5344  0.1728
 9735TIP3    H250621   6.399   5.688   2.564 -0.4923 -0.1800 -0.0678
 9736TIP3   OH250622   1.871   5.248  12.222  0.0787 -0.8755  0.2547
 9736TIP3    H150623   1.842   5.339  12.227  0.8904 -0.4728 -1.7643
 9736TIP3    H250624   1.913   5.232  12.307  1.1089  1.0535  0.1459
 9737TIP3   OH250625   1.624   3.398  14.850 -0.3456 -0.0808 -0.8905
 9737TIP3    H150626   1.702   3.443  14.884 -0.0931 -1.5667  0.6126
 9737TIP3    H250627   1.654   3.354  14.771  0.6926 -1.5230  0.2418
 9738TIP3   OH250628   0.626   4.724   1.367  0.5499 -0.2654 -0.5861
 9738TIP3    H150629   0.692   4.660   1.339 -0.0788 -0.8893 -0.6605
 9738TIP3    H250630   0.556   4.716   1.303 -0.1530 -0.5003  0.1873
 9739TIP3   OH250631   4.784   4.881  10.691 -0.5363 -0.2545 -0.4674
 9739TIP3    H150632   4.846   4.862  10.762 -1.5690 -1.0643  0.2599
 9739TIP3    H250633   4.716   4.814  10.700 -2.1058  1.2328 -0.5347
 9740TIP3   OH250634   0.032   1.156   6.041 -0.2026  0.2898 -0.2514
 9740TIP3    H150635   0.040   1.070   6.080  1.0210  0.9281  0.9786
 9740TIP3    H250636  -0.011   1.209   6.108  0.4746  1.0075 -0.3630
 9741TIP3   OH250637   4.602   2.624   2.700  0.0423  0.1202 -0.4922
 9741TIP3    H150638   4.621   2.570   2.776  3.1949  0.7713 -0.6788
 9741TIP3    H250639   4.554   2.566   2.641 -0.1473 -1.2167  0.9135
 9742TIP3   OH250640   3.815   0.778  11.168  0.5835  0.6576 -0.2285
 9742TIP3    H150641   3.867   0.716  11.219  1.4934  1.0601 -0.6563
 9742TIP3    H250642   3.834   0.863  11.206  0.2448  0.8161 -0.4033
 9743TIP3   OH250643   0.601   0.857   5.043  0.0649 -0.2622 -0.3451
 9743TIP3    H150644   0.575   0.766   5.055 -0.2526 -0.1229  0.0702
 9743TIP3    H250645   0.553   0.904   5.111 -0.3294  0.3149 -1.0077
 9744TIP3   OH250646   3.844   5.426   3.288  0.0478 -0.3342  0.4933
 9744TIP3    H150647   3.928   5.461   3.319 -0.0275 -0.1580  0.4977
 9744TIP3    H250648   3.868   5.348   3.238  0.1738 -0.5875  0.9415
 9745TIP3   OH250649   4.546   2.886   2.582  0.1619  0.4350  0.4906
 9745TIP3    H150650   4.541   2.805   2.633  0.4436  0.8907  1.2621
 9745TIP3    H250651   4.491   2.948   2.630  1.2904  1.1852  0.8590
 9746TIP3   OH250652   0.423   4.609  13.043 -0.0211  0.3691  0.4783
 9746TIP3    H150653   0.476   4.597  13.122 -0.5313  1.8456  1.0830
 9746TIP3    H250654   0.479   4.660  12.984  0.5520 -1.1631 -0.3610
 9747TIP3   OH250655   2.564   4.779   4.856  0.1317  0.5718  0.0336
 9747TIP3    H150656   2.593   4.823   4.776 -1.1955  1.1659 -0.1315
 9747TIP3    H250657   2.576   4.845   4.925  1.1246  0.1118  0.3296
 9748TIP3   OH250658   5.008   6.565   5.373  0.1064  0.2768  0.6045
 9748TIP3    H150659   4.955   6.534   5.300  0.1686  0.7276  0.3687
 9748TIP3    H250660   5.097   6.540   5.351  0.2206  1.0098  0.1983
 9749TIP3   OH250661   6.718   3.185   2.400  0.0625  0.5541  0.0266
 9749TIP3    H150662   6.696   3.118   2.466  0.3877 -0.1161 -0.5272
 9749TIP3    H250663   6.640   3.239   2.393 -0.0098  0.5799  0.9011
 9750TIP3   OH250664   6.134   1.482   6.448 -0.2324 -0.2318  0.5151
 9750TIP3    H150665   6.197   1.518   6.511 -0.6838 -1.5103  1.7377
 9750TIP3    H250666   6.188   1.436   6.385  0.1611  0.1446  0.5691
 9751TIP3   OH250667   3.368   4.222  12.492  0.2235  0.1282  0.0087
 9751TIP3    H150668   3.342   4.135  12.463  0.5390  0.7624 -2.4208
 9751TIP3    H250669   3.459   4.231  12.462 -0.3447  1.8716 -1.3585
 9752TIP3   OH250670   5.273   4.443   1.412 -0.6329 -0.1004  0.1048
 9752TIP3    H150671   5.243   4.533   1.408 -0.9101 -0.1231  1.2397
 9752TIP3    H250672   5.363   4.448   1.442 -1.1819 -0.2496  1.8892
 9753TIP3   OH250673   0.585   2.073  12.932  0.1095  0.4074  0.2080
 9753TIP3    H150674   0.636   2.135  12.986  0.8568 -0.7551  0.8845
 9753TIP3    H250675   0.524   2.033  12.993  0.6984 -0.6404  0.1370
 9754TIP3   OH250676   0.658   0.389   2.973  0.2873 -0.7991 -0.6852
 9754TIP3    H150677   0.603   0.356   3.044  0.5168  1.1236  0.4565
 9754TIP3    H250678   0.599   0.398   2.898 -0.5744 -0.3238  0.0433
 9755TIP3   OH250679   1.697   5.993  11.604  0.2310 -0.0414  0.2307
 9755TIP3    H150680   1.773   6.024  11.654  0.3014  0.0077  0.0927
 9755TIP3    H250681   1.700   6.043  11.522 -1.6372  2.1859  1.4120
 9756TIP3   OH250682   4.616   3.694  11.759  0.1018 -0.4750  0.0118
 9756TIP3    H150683   4.632   3.672  11.668 -1.7529  0.6009 -0.6238
 9756TIP3    H250684   4.594   3.610  11.800  0.4871 -0.8963 -0.6205
 9757TIP3   OH250685   2.750   0.339   0.417 -0.2130 -0.5237 -0.7269
 9757TIP3    H150686   2.770   0.404   0.484 -0.8103  0.6569 -1.6315
 9757TIP3    H250687   2.695   0.275   0.460  3.5195 -2.7261  1.2782
 9758TIP3   OH250688   5.766   5.350  13.085  0.5058  0.6505 -0.0231
 9758TIP3    H150689   5.734   5.261  13.099 -1.5561  1.0697 -1.6296
 9758TIP3    H250690   5.750   5.367  12.992  2.1847  2.2170 -0.0789
 9759TIP3   OH250691   6.404   3.780  11.925  0.2551 -0.0641 -0.1177
 9759TIP3    H150692   6.318   3.802  11.891 -0.4052 -0.6767  1.0925
 9759TIP3    H250693   6.397   3.688  11.952  0.8018  0.3037  1.4010
 9760TIP3   OH250694   5.259   3.295   2.117 -0.1457 -0.6488 -0.0888
 9760TIP3    H150695   5.216   3.368   2.072 -0.0260  0.1138  1.0008
 9760TIP3    H250696   5.266   3.323   2.208 -1.3964 -2.6133  0.6809
 9761TIP3   OH250697   5.517   0.954   4.549 -0.2225  0.2683  0.3996
 9761TIP3    H150698   5.451   0.889   4.524 -0.8079  1.7861 -2.3931
 9761TIP3    H250699   5.495   0.977   4.640 -3.4839  0.5802 -0.3480
 9762TIP3   OH250700   5.124   3.024  14.652 -0.3056  0.3729 -0.7140
 9762TIP3    H150701   5.186   3.059  14.715 -0.3512 -0.6166 -0.0874
 9762TIP3    H250702   5.169   3.029  14.568  0.0872  0.9213 -0.4700
 9763TIP3   OH250703   2.191   5.614  15.256 -0.0990  0.7312  0.2052
 9763TIP3    H150704   2.159   5.654  15.175  2.0875 -2.4966 -2.5480
 9763TIP3    H250705   2.286   5.625  15.252  0.0757  0.3635  2.3076
 9764TIP3   OH250706   6.262   4.890   3.944  0.4238 -0.2324  0.0436
 9764TIP3    H150707   6.245   4.802   3.911 -2.6808 -0.0526  0.8918
 9764TIP3    H250708   6.325   4.878   4.015 -0.2307 -1.8360  0.3790
 9765TIP3   OH250709   0.174   3.257  15.139  0.8010 -0.0062 -0.0885
 9765TIP3    H150710   0.094   3.277  15.187  0.6017 -0.5410 -0.1863
 9765TIP3    H250711   0.162   3.299  15.054  0.5547 -0.2117 -0.1560
 9766TIP3   OH250712   1.976   3.611   4.939 -0.0724 -0.3471 -0.3511
 9766TIP3    H150713   1.955   3.616   5.032  0.9021 -1.9645 -0.0045
 9766TIP3    H250714   1.953   3.521   4.914 -2.6244  0.7320 -2.2959
 9767TIP3   OH250715   6.424   2.865  13.175 -0.2946 -0.3552 -0.0589
 9767TIP3    H150716   6.518   2.877  13.157 -0.5356  0.9803 -0.5645
 9767TIP3    H250717   6.412   2.770  13.175  1.2394 -0.5973  1.0207
 9768TIP3   OH250718   2.194   5.443  12.534  0.3426 -0.5241  0.5216
 9768TIP3    H150719   2.164   5.382  12.466  2.1493  0.0633 -0.8652
 9768TIP3    H250720   2.253   5.390  12.588  3.1945  0.2337 -1.6217
 9769TIP3   OH250721   4.126   5.924   5.319 -0.3746  1.1064 -0.6284
 9769TIP3    H150722   4.189   5.856   5.343 -1.7911 -1.6767 -3.9546
 9769TIP3    H250723   4.175   6.006   5.325  2.1242 -0.3754  1.3462
 9770TIP3   OH250724   5.997   6.582   4.072 -0.2926  0.4543 -0.2407
 9770TIP3    H150725   6.086   6.600   4.042  0.3137 -1.7472  0.0526
 9770TIP3    H250726   5.946   6.657   4.041  1.4509  1.2736 -1.3268
 9771TIP3   OH250727   1.934   0.117  11.353  0.4098 -0.0669  0.2462
 9771TIP3    H150728   1.866   0.150  11.295 -0.4101  1.2254  1.8468
 9771TIP3    H250729   1.986   0.058  11.299 -1.8166 -0.8974 -1.1035
 9772TIP3   OH250730   0.235   2.190   2.715 -0.1542 -0.3375  0.1653
 9772TIP3    H150731   0.236   2.119   2.780  1.2924 -0.5354 -0.0282
 9772TIP3    H250732   0.237   2.145   2.631  0.9784 -0.0894  0.0426
 9773TIP3   OH250733   1.092   3.814  13.268  0.9021  0.3712  0.4838
 9773TIP3    H150734   1.034   3.828  13.193  0.7465 -0.0977  0.5130
 9773TIP3    H250735   1.150   3.744  13.240  0.6587 -0.0064  0.9039
 9774TIP3   OH250736   4.370   0.016  14.861 -0.0193  0.8606 -0.2302
 9774TIP3    H150737   4.408  -0.000  14.775 -1.4545  1.5206 -1.0252
 9774TIP3    H250738   4.276   0.024  14.845 -0.5806 -0.9861  1.6907
 9775TIP3   OH250739   5.758   3.319  17.112 -0.1123 -0.5895  0.0974
 9775TIP3    H150740   5.758   3.258  17.187 -1.3160 -1.1620 -0.3402
 9775TIP3    H250741   5.679   3.372  17.125 -0.3832 -0.7635 -0.8152
 9776TIP3   OH250742   5.059   3.638  16.877  0.1759 -0.0093  0.4472
 9776TIP3    H150743   5.024   3.567  16.821 -1.5889  2.0411 -1.2344
 9776TIP3    H250744   5.001   3.638  16.953  0.0816 -0.2715  0.3801
 9777TIP3   OH250745   6.349   3.702  12.985 -0.2757  0.0494  0.3114
 9777TIP3    H150746   6.316   3.612  12.993  0.0785 -0.0859  0.2428
 9777TIP3    H250747   6.270   3.755  12.976 -0.5252 -0.1748  1.0683
 9778TIP3   OH250748   2.025   0.353  14.406 -0.0758  0.1447  0.4204
 9778TIP3    H150749   2.099   0.333  14.348 -0.3696 -1.6986  0.6165
 9778TIP3    H250750   2.003   0.269  14.446 -0.4298  1.2041  2.5953
 9779TIP3   OH250751   3.466   2.591   6.297  0.1347  1.0577 -0.9255
 9779TIP3    H150752   3.389   2.627   6.341 -0.0219  1.0833 -1.2252
 9779TIP3    H250753   3.535   2.657   6.313  0.8933 -0.2481  1.7754
 9780TIP3   OH250754   0.452   6.657  14.144 -0.8097 -0.6024  0.1588
 9780TIP3    H150755   0.373   6.639  14.195  0.1255 -1.3939  1.3866
 9780TIP3    H250756   0.485   6.571  14.119 -1.2275 -0.2432 -1.8297
 9781TIP3   OH250757   6.719   1.907  15.068 -0.1873  0.1458  0.1781
 9781TIP3    H150758   6.658   1.889  14.997  1.2357  1.7246 -1.5527
 9781TIP3    H250759   6.666   1.953  15.133 -1.2126  0.0146 -0.5393
 9782TIP3   OH250760   5.202   0.546   4.300  0.0179 -0.2558  0.7052
 9782TIP3    H150761   5.288   0.543   4.258 -1.0501 -0.9296 -1.5927
 9782TIP3    H250762   5.206   0.478   4.367  1.4543  0.1395  1.0697
 9783TIP3   OH250763   4.314   5.653  11.635 -0.2044  0.2645  0.5008
 9783TIP3    H150764   4.288   5.707  11.709  0.1536  1.2171 -0.0558
 9783TIP3    H250765   4.355   5.576  11.675 -0.0283  0.7561  1.2850
 9784TIP3   OH250766   4.409   4.406  13.662 -0.0167 -0.2779  0.0424
 9784TIP3    H150767   4.471   4.334  13.653  0.6014  0.2059  0.4108
 9784TIP3    H250768   4.401   4.443  13.574 -0.2474 -0.7219 -0.1239
 9785TIP3   OH250769   4.340   2.141   3.926 -0.0880  0.1696  0.3560
 9785TIP3    H150770   4.390   2.149   3.845 -0.1585 -1.1684  0.1567
 9785TIP3    H250771   4.253   2.114   3.898 -0.2995  0.3247  0.8482
 9786TIP3   OH250772   1.344   6.115  11.522 -0.3957 -0.2250  0.3886
 9786TIP3    H150773   1.314   6.086  11.436 -1.6530  2.5454 -0.2281
 9786TIP3    H250774   1.430   6.153  11.506 -0.1490 -0.6962  0.5794
 9787TIP3   OH250775   3.007   5.370   4.015  0.2612  0.3812 -0.2614
 9787TIP3    H150776   3.007   5.299   3.951  4.4637 -1.8707  1.8161
 9787TIP3    H250777   2.964   5.331   4.092  3.2889 -0.4321  1.1604
 9788TIP3   OH250778   6.229   4.463  10.619 -0.2663  0.4307  0.2535
 9788TIP3    H150779   6.266   4.456  10.706 -1.8179  1.6117  1.0553
 9788TIP3    H250780   6.254   4.381  10.576  0.3516 -0.2648  1.8548
 9789TIP3   OH250781   4.605   1.249  14.146 -0.7572 -0.3004  0.9216
 9789TIP3    H150782   4.596   1.271  14.054 -1.1339  1.8217  1.4225
 9789TIP3    H250783   4.662   1.172  14.147 -1.0839 -0.6119 -1.0752
 9790TIP3   OH250784   5.924   3.965  12.881  0.5099 -0.3199 -0.0006
 9790TIP3    H150785   5.879   3.891  12.840 -1.1180 -0.1610  1.3700
 9790TIP3    H250786   5.966   3.927  12.958  0.7345 -0.0428  0.0136
 9791TIP3   OH250787   2.497   2.719  16.854  0.1188  0.0975 -0.6366
 9791TIP3    H150788   2.584   2.746  16.883  0.3312 -1.9122  0.7667
 9791TIP3    H250789   2.441   2.795  16.871  1.1068  0.5056  0.9214
 9792TIP3   OH250790   6.624   6.142  12.365 -0.3573  0.1531 -0.0394
 9792TIP3    H150791   6.605   6.142  12.459 -1.1412 -2.0248 -0.1446
 9792TIP3    H250792   6.691   6.075  12.354 -3.2148 -2.7501 -1.4347
 9793TIP3   OH250793   5.453   3.812  14.011 -0.6080  0.0627  0.1930
 9793TIP3    H150794   5.472   3.774  14.097 -0.7707 -0.1750  0.1247
 9793TIP3    H250795   5.483   3.903  14.018 -2.1634  0.5662  1.0845
 9794TIP3   OH250796   3.955   1.253   0.286  0.0287 -0.6935 -0.2892
 9794TIP3    H150797   3.889   1.316   0.315  1.5014  0.0345  1.6566
 9794TIP3    H250798   3.905   1.187   0.238 -1.8840  0.6506 -0.2681
 9795TIP3   OH250799   0.198   4.875   4.521  0.7026 -0.3510  0.0319
 9795TIP3    H150800   0.234   4.797   4.479  0.5169 -1.5279  1.9239
 9795TIP3    H250801   0.109   4.850   4.547  0.7803  0.3194  1.0313
 9796TIP3   OH250802   6.107   6.262   4.276  1.1657  0.3154 -0.4160
 9796TIP3    H150803   6.167   6.305   4.337 -0.1036 -0.2051  1.3037
 9796TIP3    H250804   6.025   6.256   4.325 -0.1780  0.5987 -2.4976
 9797TIP3   OH250805   5.765   1.425  15.757 -0.2111  0.4368 -0.2409
 9797TIP3    H150806   5.846   1.460  15.720 -0.4233 -0.0657 -1.2028
 9797TIP3    H250807   5.701   1.433  15.687 -0.1544 -2.3144 -0.7241
 9798TIP3   OH250808   0.781   5.870   2.615 -0.0342 -0.4426  0.3746
 9798TIP3    H150809   0.865   5.915   2.628  0.5045 -0.3244 -2.6632
 9798TIP3    H250810   0.802   5.800   2.553 -1.9079 -1.4946  0.8608
 9799TIP3   OH250811   0.591   0.421   5.560 -0.2810  0.4289 -0.6317
 9799TIP3    H150812   0.657   0.360   5.528  0.5339  0.3116  1.1488
 9799TIP3    H250813   0.554   0.379   5.638  0.4720  2.2288  0.7891
 9800TIP3   OH250814   1.979   5.015  14.026 -0.2628  0.2049 -0.0498
 9800TIP3    H150815   1.928   5.043  14.102 -1.6115 -0.6962 -0.5977
 9800TIP3    H250816   2.042   4.952  14.061 -0.7792 -0.0910  0.3448
 9801TIP3   OH250817   3.048   1.127   2.769  0.2177 -0.3045 -0.0706
 9801TIP3    H150818   3.043   1.055   2.832  1.6672  1.0604  1.6919
 9801TIP3    H250819   3.140   1.152   2.768  0.1725 -0.0085 -2.4928
 9802TIP3   OH250820   4.985   6.358  14.714  0.4660  0.0432  0.2951
 9802TIP3    H150821   5.010   6.315  14.796  0.1965 -0.8355 -0.0679
 9802TIP3    H250822   5.058   6.417  14.695  1.4576 -1.1810  0.1665
 9803TIP3   OH250823   6.150   6.409   1.159 -0.1719  0.1660  0.2105
 9803TIP3    H150824   6.222   6.422   1.098 -1.3756  2.2270 -0.8737
 9803TIP3    H250825   6.175   6.460   1.236  0.9727 -1.7866  1.2155
 9804TIP3   OH250826   3.340   1.959  12.434 -0.7228  0.2804 -0.2652
 9804TIP3    H150827   3.395   1.937  12.359  0.9525  2.1123  0.3707
 9804TIP3    H250828   3.302   2.044  12.413  0.7345  1.4286  1.3879
 9805TIP3   OH250829   2.408   3.807  11.860  0.3356  0.1186 -0.1728
 9805TIP3    H150830   2.435   3.806  11.769  1.4554  1.1919  0.1194
 9805TIP3    H250831   2.489   3.793  11.910  0.0974  1.5325  0.6826
 9806TIP3   OH250832   3.183   2.689  14.672  0.4134 -0.3964  0.1394
 9806TIP3    H150833   3.151   2.620  14.729  1.3354 -0.0522  1.1115
 9806TIP3    H250834   3.276   2.696  14.692  0.4302  0.8289 -0.2557
 9807TIP3   OH250835   4.618   1.232   4.407 -0.3393  0.3266  0.7211
 9807TIP3    H150836   4.629   1.138   4.413 -1.6186  0.1663  0.8984
 9807TIP3    H250837   4.589   1.248   4.318  1.4958  0.7584  0.1687
 9808TIP3   OH250838   2.692   4.304   1.226 -0.5857 -0.1433  0.2077
 9808TIP3    H150839   2.705   4.214   1.257 -1.3436 -0.0833  0.7308
 9808TIP3    H250840   2.630   4.342   1.288  0.6433  1.1430  0.6996
 9809TIP3   OH250841   5.064   6.284  16.090 -0.7539  0.5339  0.3732
 9809TIP3    H150842   5.071   6.266  16.184 -0.3024  0.4085  0.3157
 9809TIP3    H250843   5.123   6.357  16.075  1.8391 -1.5696 -0.3881
 9810TIP3   OH250844   1.996   0.093  14.502 -0.0234 -0.1956 -0.5289
 9810TIP3    H150845   2.085   0.074  14.535 -0.0607  0.7327  0.1502
 9810TIP3    H250846   1.942   0.092  14.581 -0.4659  0.1019 -0.8301
 9811TIP3   OH250847   1.726   3.415   2.512  0.3546 -0.1134  0.4002
 9811TIP3    H150848   1.815   3.448   2.497 -0.0495  0.3767 -1.0158
 9811TIP3    H250849   1.673   3.458   2.446 -0.3521 -3.0693 -1.1239
 9812TIP3   OH250850   1.439   5.936  14.908  0.3687 -0.4937 -0.3029
 9812TIP3    H150851   1.429   5.859  14.853 -0.7293  0.8641 -2.1062
 9812TIP3    H250852   1.411   6.009  14.853  0.6387  1.1242  1.5869
 9813TIP3   OH250853   1.676   1.979   2.322 -0.1903  0.0141  0.2463
 9813TIP3    H150854   1.647   2.045   2.385  0.6671 -0.8547  1.5872
 9813TIP3    H250855   1.762   2.009   2.294 -0.6907  0.5517 -0.7705
 9814TIP3   OH250856   4.747   1.830   1.062  0.4295 -0.2319  0.1060
 9814TIP3    H150857   4.842   1.820   1.057  0.4373  0.1645 -0.9162
 9814TIP3    H250858   4.712   1.757   1.009  0.2307  0.4676 -0.7576
 9815TIP3   OH250859   2.683   1.608   4.280  0.0917  0.1472 -0.1941
 9815TIP3    H150860   2.599   1.578   4.316  0.0274  0.2217 -0.2816
 9815TIP3    H250861   2.716   1.534   4.230  0.9320 -0.5194  1.2996
 9816TIP3   OH250862   1.060   2.115  16.968  0.2074  0.1584  0.3066
 9816TIP3    H150863   1.062   2.100  16.874 -0.4972 -0.6361  0.4060
 9816TIP3    H250864   0.978   2.075  16.997  1.3098 -1.3660  1.5353
 9817TIP3   OH250865   6.627   1.642  11.317  0.5630 -0.4847  0.5048
 9817TIP3    H150866   6.715   1.678  11.307 -0.0372  1.3350  1.3450
 9817TIP3    H250867   6.569   1.710  11.282 -0.6073 -0.6341  2.0305
 9818TIP3   OH250868   3.407   1.694   3.122  0.3636  0.0739  1.0180
 9818TIP3    H150869   3.400   1.648   3.039  1.3273  2.2065 -0.3115
 9818TIP3    H250870   3.500   1.687   3.146  0.3545  0.6275  1.2274
 9819TIP3   OH250871   5.413   1.708   5.127 -0.3461 -0.0454  0.2107
 9819TIP3    H150872   5.379   1.680   5.212  1.1859 -0.8198  0.6098
 9819TIP3    H250873   5.489   1.762   5.149 -0.4986  0.5439 -0.6587
 9820TIP3   OH250874   6.724   5.514   5.236  0.3899  0.3673  0.3107
 9820TIP3    H150875   6.672   5.590   5.262  0.8328  0.3973  1.1744
 9820TIP3    H250876   6.727   5.459   5.315  1.3474  0.1930  0.1651
 9821TIP3   OH250877   4.476   0.576   2.911  0.2433 -0.0854 -0.1081
 9821TIP3    H150878   4.496   0.530   2.829  0.1745 -0.2470 -0.0330
 9821TIP3    H250879   4.498   0.513   2.980  0.5543  0.1449  0.0064
 9822TIP3   OH250880   4.789   3.449   2.950 -0.4042  0.7858 -0.7114
 9822TIP3    H150881   4.775   3.510   3.022 -0.6118  0.1674 -0.2141
 9822TIP3    H250882   4.883   3.433   2.950 -0.6202 -0.7354  0.7252
 9823TIP3   OH250883   1.702   2.411   0.235 -0.2052 -0.3972  0.3426
 9823TIP3    H150884   1.630   2.438   0.178 -0.5758 -1.3176  0.3617
 9823TIP3    H250885   1.685   2.455   0.318 -1.6572 -1.8510  0.8659
 9824TIP3   OH250886   4.159   0.229   2.699 -0.4363 -0.4534  0.0937
 9824TIP3    H150887   4.122   0.273   2.775  0.3701  0.2749  0.0784
 9824TIP3    H250888   4.156   0.294   2.630  0.2193 -0.6178 -0.0935
 9825TIP3   OH250889   1.663   1.279   5.240  0.4629  0.2943  0.4179
 9825TIP3    H150890   1.690   1.318   5.323  1.5186 -1.5378  0.9832
 9825TIP3    H250891   1.646   1.187   5.260 -1.9377  0.3588 -0.8580
 9826TIP3   OH250892   3.080   5.590  11.292  0.1145 -0.1828  0.6113
 9826TIP3    H150893   3.158   5.591  11.237 -0.7783 -0.5028 -0.7226
 9826TIP3    H250894   3.030   5.667  11.264 -1.2960 -1.4293 -0.5112
 9827TIP3   OH250895   0.441   5.073  15.890 -0.3269 -0.6713 -0.1944
 9827TIP3    H150896   0.349   5.097  15.875  0.1140  1.0149 -0.4072
 9827TIP3    H250897   0.469   5.130  15.962  0.5985 -1.0675 -0.2335
 9828TIP3   OH250898   0.373   5.920   3.297 -0.3568 -0.1199  0.2679
 9828TIP3    H150899   0.381   5.863   3.221  1.2325  0.9305 -0.3920
 9828TIP3    H250900   0.352   6.006   3.261 -2.7082 -0.1869  1.2509
 9829TIP3   OH250901   6.515   6.706  11.112 -0.0271 -0.0022  0.0679
 9829TIP3    H150902   6.596   6.656  11.100  0.4902  0.3706  1.7275
 9829TIP3    H250903   6.469   6.661  11.183 -0.0193  1.2771  0.9152
 9830TIP3   OH250904   2.051   4.355  14.195 -0.2669  0.0683 -0.3016
 9830TIP3    H150905   2.034   4.348  14.101  3.1006  0.1909 -1.0626
 9830TIP3    H250906   2.067   4.448  14.210  0.0507 -0.0661  0.2144
 9831TIP3   OH250907   2.633   1.052   2.681  0.2905  0.0453  0.8009
 9831TIP3    H150908   2.599   1.094   2.760  0.0171  1.2401  0.0648
 9831TIP3    H250909   2.681   0.976   2.714  0.6425  0.8145  2.1657
 9832TIP3   OH250910   2.220   1.320   4.503  0.7010  0.4139 -0.3090
 9832TIP3    H150911   2.295   1.285   4.456 -1.3376 -2.1080 -2.0018
 9832TIP3    H250912   2.180   1.244   4.544 -0.9854  1.6352  0.4426
 9833TIP3   OH250913   6.544   5.944  14.490  0.6099  0.3331 -0.8038
 9833TIP3    H150914   6.625   5.895  14.474  1.0305  0.4439  0.8213
 9833TIP3    H250915   6.540   5.953  14.585 -0.3533  1.9608 -0.9699
 9834TIP3   OH250916   4.641   6.549  13.004 -0.0069 -0.2023 -0.0930
 9834TIP3    H150917   4.639   6.574  13.097  0.0461 -0.2900 -0.0681
 9834TIP3    H250918   4.569   6.598  12.965  2.9714  4.0152 -1.0526
 9835TIP3   OH250919   5.680   1.670   1.046 -0.3417  0.0460 -0.1132
 9835TIP3    H150920   5.775   1.685   1.042 -0.5998  1.9281  0.1166
 9835TIP3    H250921   5.646   1.705   0.964 -0.9698  0.3951  0.2904
 9836TIP3   OH250922   4.570   1.520   4.503  0.0454  0.2962 -0.1404
 9836TIP3    H150923   4.607   1.445   4.549 -1.9375 -0.6887 -0.0343
 9836TIP3    H250924   4.476   1.515   4.520 -0.8038  0.0715 -3.9948
 9837TIP3   OH250925   2.452   0.914  15.286 -0.3419  0.2643 -0.5327
 9837TIP3    H150926   2.407   0.947  15.364  1.0838  0.9304  0.0295
 9837TIP3    H250927   2.393   0.846  15.252 -1.7874  1.1190  0.1509
 9838TIP3   OH250928   6.369   5.485  16.252  0.2939 -0.0124  0.2135
 9838TIP3    H150929   6.376   5.427  16.175  0.8127 -0.9185  0.9244
 9838TIP3    H250930   6.317   5.435  16.314 -0.8157  1.0537  0.1626
 9839TIP3   OH250931   5.007   1.427  13.154  0.0965  0.3443 -0.3777
 9839TIP3    H150932   5.079   1.382  13.111  0.9451  1.2278  0.0735
 9839TIP3    H250933   5.017   1.519  13.128 -1.0593  0.4364 -0.5672
 9840TIP3   OH250934   5.323   1.422  12.054 -0.7461  0.1694 -0.0874
 9840TIP3    H150935   5.238   1.437  12.097 -0.5606 -1.7086  1.0391
 9840TIP3    H250936   5.384   1.408  12.126  1.1088  3.6713 -0.7532
 9841TIP3   OH250937   5.690   3.240  11.713  0.4467  0.6127  0.1548
 9841TIP3    H150938   5.689   3.195  11.798  0.7035 -0.9193 -0.6216
 9841TIP3    H250939   5.783   3.253  11.694  0.3679  1.7644  0.5037
 9842TIP3   OH250940   2.194   6.549  15.365 -0.1188 -0.1422 -0.4089
 9842TIP3    H150941   2.227   6.469  15.406  0.8695 -0.3178 -1.4864
 9842TIP3    H250942   2.228   6.546  15.276 -0.6028  1.1750 -0.6648
 9843TIP3   OH250943   5.311   0.130   1.735 -0.7109  0.6443  0.0738
 9843TIP3    H150944   5.405   0.149   1.735 -0.9897  2.5985 -2.8274
 9843TIP3    H250945   5.294   0.095   1.823  2.9544 -1.3197  0.1900
 9844TIP3   OH250946   4.158   4.462   1.982 -0.5653  0.2830  0.7655
 9844TIP3    H150947   4.247   4.453   2.016  0.0661 -2.4991 -1.2454
 9844TIP3    H250948   4.151   4.554   1.958  1.5323  0.7109  1.6014
 9845TIP3   OH250949   1.472   5.356  13.869 -0.2862  0.0760  0.7754
 9845TIP3    H150950   1.440   5.272  13.902  0.6135 -0.6965 -0.2550
 9845TIP3    H250951   1.562   5.338  13.841 -0.0041  1.4413  0.7331
 9846TIP3   OH250952   0.781   0.024  14.008  0.3125  0.4253  0.1071
 9846TIP3    H150953   0.809  -0.026  14.084  1.3993  1.8230  0.6618
 9846TIP3    H250954   0.689   0.046  14.026  0.2192 -0.2308  0.4583
 9847TIP3   OH250955   2.531   6.368  12.851 -0.7655 -0.1918 -0.3382
 9847TIP3    H150956   2.458   6.382  12.911 -1.4372 -1.2506 -0.8677
 9847TIP3    H250957   2.550   6.455  12.814 -1.6109  0.1294 -0.0296
 9848TIP3   OH250958   6.222   1.754   5.303  0.4977  0.4165 -0.0357
 9848TIP3    H150959   6.156   1.730   5.368  0.2161 -0.2608 -0.5670
 9848TIP3    H250960   6.297   1.698   5.323  0.5659  0.5111 -0.0277
 9849TIP3   OH250961   0.723   0.759   6.309  0.4822 -0.0713  0.6594
 9849TIP3    H150962   0.764   0.844   6.295  1.5534 -0.7903 -0.7317
 9849TIP3    H250963   0.785   0.695   6.274 -1.2545 -1.2812 -0.3623
 9850TIP3   OH250964   2.052   0.936   2.381 -0.1588  0.4642 -0.0116
 9850TIP3    H150965   2.023   0.928   2.472  2.5365 -0.4007  0.8801
 9850TIP3    H250966   2.117   1.006   2.383  0.2898  0.0979 -1.1699
 9851TIP3   OH250967   2.139   0.821  12.798  0.1199 -0.3234 -0.2545
 9851TIP3    H150968   2.146   0.794  12.890  1.4305  2.1030  0.4545
 9851TIP3    H250969   2.105   0.911  12.802 -0.0089 -0.2414 -2.1803
 9852TIP3   OH250970   3.201   0.958   1.185 -0.2698 -0.0465 -0.6991
 9852TIP3    H150971   3.111   0.940   1.159 -0.8199  1.5186 -0.0109
 9852TIP3    H250972   3.212   0.908   1.266 -0.9639  0.7587 -0.0915
 9853TIP3   OH250973   3.534   2.727  16.068 -0.6232  0.1877  0.2587
 9853TIP3    H150974   3.482   2.790  16.118  2.7849  1.9461  1.9273
 9853TIP3    H250975   3.608   2.777  16.035  1.5469 -2.6046  0.4621
 9854TIP3   OH250976   2.146   4.739  12.517  0.8004  0.2139  0.2120
 9854TIP3    H150977   2.142   4.753  12.612  0.5870  0.2629  0.1952
 9854TIP3    H250978   2.141   4.644  12.507  1.2947  0.1766  0.2734
 9855TIP3   OH250979   1.285   1.991   4.239 -0.4281  0.8266  0.3543
 9855TIP3    H150980   1.209   2.016   4.187  0.0368  0.2863 -0.6159
 9855TIP3    H250981   1.336   1.935   4.181 -0.3631 -0.5906  1.7215
 9856TIP3   OH250982   0.968   5.385  10.618 -0.2722 -0.0418  0.1962
 9856TIP3    H150983   0.961   5.413  10.526  1.1558  0.8658  0.3440
 9856TIP3    H250984   0.922   5.301  10.620  1.8518 -1.4034 -1.9518
 9857TIP3   OH250985   2.913   0.074  16.954  0.1276  0.4226  0.0460
 9857TIP3    H150986   2.890   0.077  16.861  0.9957 -0.5466 -0.2215
 9857TIP3    H250987   2.886   0.159  16.988 -0.7866  0.5494 -0.9493
 9858TIP3   OH250988   2.707   0.218  14.510  0.2256 -0.5877 -0.0634
 9858TIP3    H150989   2.759   0.298  14.496 -0.2492 -0.1498  0.6067
 9858TIP3    H250990   2.640   0.221  14.442  1.5283 -1.5697 -1.4471
 9859TIP3   OH250991   1.067   2.723  12.187  0.9344 -0.7405  0.4001
 9859TIP3    H150992   1.084   2.700  12.096  1.5721 -0.5625  0.4685
 9859TIP3    H250993   0.973   2.736  12.192  0.7519 -1.8597  0.0236
 9860TIP3   OH250994   2.170   6.204   3.450 -0.5456 -0.1661 -0.0312
 9860TIP3    H150995   2.152   6.250   3.532  0.8990 -0.5660  0.5445
 9860TIP3    H250996   2.241   6.254   3.410 -0.2224 -0.8279 -0.2983
 9861TIP3   OH250997   4.526   0.164   0.008  0.2202  0.5390 -0.1579
 9861TIP3    H150998   4.610   0.134   0.043  1.5339  0.5209 -3.0287
 9861TIP3    H250999   4.539   0.165  -0.087 -2.4152  2.4535 -0.5988
 9862TIP3   OH251000   5.997   0.433  15.146 -0.3124 -0.1273 -0.2927
 9862TIP3    H151001   5.912   0.393  15.125 -0.3741 -0.1579  0.0205
 9862TIP3    H251002   6.010   0.498  15.077 -1.6231  1.4641  0.9047
 9863TIP3   OH251003   0.508   5.289  16.749 -0.3369 -0.2550 -0.4617
 9863TIP3    H151004   0.432   5.232  16.758 -0.8052  0.2447 -1.1718
 9863TIP3    H251005   0.486   5.367  16.801  1.1615 -1.4991  2.2874
 9864TIP3   OH251006   5.950   4.282   5.016  0.2470 -0.0606 -0.8845
 9864TIP3    H151007   6.023   4.227   4.988  1.6149  1.1060  0.2256
 9864TIP3    H251008   5.945   4.269   5.111 -1.2930 -0.4345 -0.9863
 9865TIP3   OH251009   2.761   1.884   0.770  0.0765  0.2026 -0.3748
 9865TIP3    H151010   2.748   1.856   0.861  0.1522 -0.5875 -0.6047
 9865TIP3    H251011   2.723   1.972   0.767 -1.3306 -0.3677  0.0370
 9866TIP3   OH251012   4.115   0.109  17.140 -0.0502  0.0955  0.0535
 9866TIP3    H151013   4.045   0.174  17.145 -0.9850 -0.9786  3.3711
 9866TIP3    H251014   4.119   0.071  17.227  1.2721 -3.4818 -1.3696
 9867TIP3   OH251015   3.025   6.770  13.689  0.3122  0.0356 -0.0698
 9867TIP3    H151016   3.094   6.712  13.659 -0.5752 -0.2716 -1.6443
 9867TIP3    H251017   3.070   6.848  13.722  1.4687 -1.1050  1.0909
 9868TIP3   OH251018   3.930   2.751  12.264 -0.3656 -0.1652  0.5495
 9868TIP3    H151019   3.839   2.729  12.281 -0.2691 -0.4313  0.7244
 9868TIP3    H251020   3.932   2.847  12.265 -0.8478 -0.1374 -0.5809
 9869TIP3   OH251021   1.864   4.364  15.221  0.1899  0.2126  0.3292
 9869TIP3    H151022   1.792   4.405  15.173 -0.4772 -3.4007 -2.1252
 9869TIP3    H251023   1.942   4.390  15.173 -0.0145  0.1873 -0.0211
 9870TIP3   OH251024   3.011   3.661  16.248  0.0282  0.1044  0.2201
 9870TIP3    H151025   2.986   3.570  16.267  0.2384  0.2088  1.0105
 9870TIP3    H251026   3.105   3.664  16.263 -0.3990  1.1969  3.3950
 9871TIP3   OH251027   2.945   0.575   6.016 -0.3582  0.1517  0.2059
 9871TIP3    H151028   2.940   0.543   5.926  0.5920 -1.3793  0.6655
 9871TIP3    H251029   2.888   0.516   6.066  1.5150 -1.0202  1.0894
 9872TIP3   OH251030   6.291   1.747  16.742 -0.0371  0.3483 -0.2402
 9872TIP3    H151031   6.378   1.745  16.783 -0.4683 -1.5121  0.6891
 9872TIP3    H251032   6.305   1.709  16.656  0.1020  0.2773 -0.1865
 9873TIP3   OH251033   0.059   6.319  14.396  0.3249  0.6138 -0.4231
 9873TIP3    H151034   0.095   6.324  14.307 -2.5853  0.6431 -1.7171
 9873TIP3    H251035   0.080   6.230  14.425  0.3560  0.2199 -1.5871
 9874TIP3   OH251036   0.093   4.909  16.335  0.3436  0.0186 -0.1170
 9874TIP3    H151037   0.003   4.876  16.338  0.4422 -0.2013  1.8768
 9874TIP3    H251038   0.111   4.920  16.242 -1.4556 -0.7152 -0.6066
 9875TIP3   OH251039   2.314   6.299  15.488 -0.1417 -0.1737  0.2378
 9875TIP3    H151040   2.389   6.295  15.430 -0.7630  1.3321 -0.7273
 9875TIP3    H251041   2.337   6.365  15.554 -0.2913 -0.2961  0.4159
 9876TIP3   OH251042   3.789   4.449  16.400 -0.3316  0.3753  0.0311
 9876TIP3    H151043   3.779   4.510  16.326 -1.3759 -2.8651 -2.7554
 9876TIP3    H251044   3.881   4.459  16.426 -0.1638  2.2674 -1.0757
 9877TIP3   OH251045   0.535   4.589  16.032  0.0728 -0.5178  0.1788
 9877TIP3    H151046   0.524   4.496  16.051 -0.4712 -0.4886  0.0230
 9877TIP3    H251047   0.577   4.625  16.110  0.3553 -0.9071  0.2089
 9878TIP3   OH251048   1.341   1.641   2.854  0.0027  0.6502  0.3537
 9878TIP3    H151049   1.350   1.605   2.765  0.2964  0.0159  0.6305
 9878TIP3    H251050   1.284   1.579   2.899  1.0400  0.1658  1.0275
 9879TIP3   OH251051   2.562   3.994   3.172  0.5770  0.1199  0.8515
 9879TIP3    H151052   2.484   4.004   3.118  0.4621  2.9458  1.3665
 9879TIP3    H251053   2.631   3.967   3.111 -0.0766  0.9059 -0.2710
 9880TIP3   OH251054   5.382   6.190   3.013 -0.1634  0.2427  0.2505
 9880TIP3    H151055   5.473   6.169   3.034 -0.4010 -1.1484 -0.0008
 9880TIP3    H251056   5.350   6.113   2.966 -1.7189  0.3542  1.0682
 9881TIP3   OH251057   2.796   0.836  10.628  0.1780 -0.5353 -0.2371
 9881TIP3    H151058   2.820   0.927  10.642  1.1342 -0.7408 -0.4539
 9881TIP3    H251059   2.700   0.836  10.627  0.1698  0.5069 -0.5595
 9882TIP3   OH251060   4.326   3.901  12.608 -0.1576 -0.0324  0.5836
 9882TIP3    H151061   4.296   3.983  12.646 -2.7733  0.3684 -1.9433
 9882TIP3    H251062   4.359   3.925  12.521  2.1166 -1.3081  1.0281
 9883TIP3   OH251063   2.795   6.440   4.677 -0.1173  0.2045 -0.2910
 9883TIP3    H151064   2.815   6.409   4.766 -0.7422  0.5915 -0.0024
 9883TIP3    H251065   2.699   6.431   4.671 -0.0554 -0.0013 -0.9997
 9884TIP3   OH251066   4.603   1.923  15.476  0.1889  0.1858 -0.5378
 9884TIP3    H151067   4.687   1.881  15.489  0.2332 -0.1753 -1.8256
 9884TIP3    H251068   4.554   1.864  15.419 -2.1649 -1.1423  2.5559
 9885TIP3   OH251069   5.286   1.032  14.572 -0.0190  0.2685 -0.3767
 9885TIP3    H151070   5.198   1.058  14.600 -0.6342 -0.5368 -1.4694
 9885TIP3    H251071   5.276   1.009  14.480  0.9901 -1.4017 -0.1090
 9886TIP3   OH251072   0.768   4.035   5.630 -0.2461 -0.0193  0.2566
 9886TIP3    H151073   0.742   4.126   5.646  2.3521  0.9535 -0.6259
 9886TIP3    H251074   0.723   3.985   5.699 -1.8000  1.8783  0.7022
 9887TIP3   OH251075   3.343   3.865  15.630  0.9269  0.5820  0.3751
 9887TIP3    H151076   3.274   3.836  15.690 -0.7780 -1.1593 -2.2325
 9887TIP3    H251077   3.355   3.957  15.651 -1.3057  0.6399  1.7776
 9888TIP3   OH251078   4.040   4.119   2.775 -0.0420  0.4641 -0.2005
 9888TIP3    H151079   4.091   4.199   2.766 -0.0937  0.8174  1.9163
 9888TIP3    H251080   3.960   4.136   2.725  0.4053  1.3006 -0.6532
 9889TIP3   OH251081   6.713   6.381   5.926  0.4545  0.4789  0.5669
 9889TIP3    H151082   6.705   6.406   5.834  1.0663  0.9506  0.6381
 9889TIP3    H251083   6.623   6.375   5.957 -0.0326 -3.1408 -0.9491
 9890TIP3   OH251084   3.119   2.784   0.713 -0.1613 -0.8613 -0.6354
 9890TIP3    H151085   3.049   2.841   0.744  1.6336 -0.4836  3.3602
 9890TIP3    H251086   3.200   2.825   0.746  1.4880 -3.8713 -0.5161
 9891TIP3   OH251087   6.761   5.107   5.446 -0.3122  0.1297 -0.7906
 9891TIP3    H151088   6.812   5.037   5.407  2.6438  2.2703 -1.1296
 9891TIP3    H251089   6.754   5.083   5.539  0.8007 -0.5328 -0.8656
 9892TIP3   OH251090   6.368   4.630  12.491  0.1928 -0.6383 -0.1644
 9892TIP3    H151091   6.363   4.684  12.570 -0.5107 -2.2735  0.9565
 9892TIP3    H251092   6.278   4.604  12.473  0.6614 -2.8455  0.3773
 9893TIP3   OH251093   0.158   1.812   3.654  0.3107 -0.3030 -0.5587
 9893TIP3    H151094   0.205   1.762   3.587  2.4273  0.7698  0.0384
 9893TIP3    H251095   0.159   1.755   3.731  2.8232  0.5694  0.1553
 9894TIP3   OH251096   1.072   3.857  13.549 -0.2031  0.1685  0.2476
 9894TIP3    H151097   1.076   3.849  13.454 -0.3656 -0.6544  0.2948
 9894TIP3    H251098   1.124   3.783  13.581  0.8835  1.1557  0.7989
 9895TIP3   OH251099   4.509   1.910   1.727 -0.2262  0.4042 -0.6821
 9895TIP3    H151100   4.496   1.815   1.721 -0.8896  0.2993  1.6270
 9895TIP3    H251101   4.425   1.944   1.754  0.0578  1.6737 -1.3294
 9896TIP3   OH251102   4.777   5.082  16.011  0.0714 -0.1427 -0.1635
 9896TIP3    H151103   4.866   5.117  15.999  0.7183 -1.2718  1.0847
 9896TIP3    H251104   4.748   5.120  16.094 -1.6447  2.1702 -1.6842
 9897TIP3   OH251105   5.506   1.095  16.672  0.1413  0.2918 -0.0017
 9897TIP3    H151106   5.430   1.057  16.628 -1.0188  2.3586  0.0928
 9897TIP3    H251107   5.562   1.126  16.600  0.5241 -0.5027 -0.0584
 9898TIP3   OH251108   2.846   4.176   5.669  0.0092  0.2792  0.3446
 9898TIP3    H151109   2.885   4.259   5.644  0.3319  0.1373  0.3708
 9898TIP3    H251110   2.889   4.111   5.613 -1.3464  0.3131 -0.7771
 9899TIP3   OH251111   0.194   6.312  12.800  0.1262  0.1328  0.4457
 9899TIP3    H151112   0.263   6.370  12.770  0.3687 -0.4571 -0.1677
 9899TIP3    H251113   0.199   6.236  12.742  0.5799 -1.0382  1.9511
 9900TIP3   OH251114   6.165   4.960  16.054  0.4665 -0.1222  0.5268
 9900TIP3    H151115   6.196   5.012  16.127  1.6938  1.2798 -0.9151
 9900TIP3    H251116   6.245   4.940  16.004 -0.3231 -1.1267 -0.3673
 9901TIP3   OH251117   0.624   2.257  13.858  0.0332 -0.4517  0.2913
 9901TIP3    H151118   0.565   2.195  13.901  0.9029 -0.0368  2.2261
 9901TIP3    H251119   0.567   2.324  13.822 -0.7362 -0.5219  1.3367
 9902TIP3   OH251120   3.905   1.979   5.205 -0.1537  0.1158  0.4917
 9902TIP3    H151121   3.876   2.049   5.147 -1.2108 -0.1297  0.7059
 9902TIP3    H251122   3.927   1.906   5.146  0.2274  0.3688  0.3163
 9903TIP3   OH251123   1.344   2.708   2.575 -0.2995 -0.0713 -0.0165
 9903TIP3    H151124   1.252   2.710   2.550 -0.1074 -1.3922 -0.8836
 9903TIP3    H251125   1.350   2.638   2.640  0.2766 -0.7301 -0.7686
 9904TIP3   OH251126   5.233   2.666  12.729  0.0580  0.4915 -0.4717
 9904TIP3    H151127   5.184   2.594  12.690 -0.5115  0.9729 -0.6674
 9904TIP3    H251128   5.298   2.689  12.662  1.1665 -0.7298  0.1482
 9905TIP3   OH251129   1.540   2.161   0.373 -0.2668  0.0140 -0.1356
 9905TIP3    H151130   1.494   2.158   0.457  0.0772 -2.4561  0.0645
 9905TIP3    H251131   1.491   2.224   0.321 -1.1031  0.8552  1.5845
 9906TIP3   OH251132   0.953   6.502  16.799  0.2989 -0.4854 -0.2417
 9906TIP3    H151133   0.955   6.471  16.890 -2.9194  0.5153  0.2959
 9906TIP3    H251134   1.027   6.562  16.793  1.1425 -1.2745  1.4045
 9907TIP3   OH251135   1.268   1.889   2.925 -0.3930  0.3650  0.0405
 9907TIP3    H151136   1.354   1.931   2.919 -0.4400  0.7379  1.5551
 9907TIP3    H251137   1.283   1.799   2.896  0.9035 -0.0521  1.8096
 9908TIP3   OH251138   0.113   2.315  15.112 -0.3963  0.1558 -0.2110
 9908TIP3    H151139   0.037   2.373  15.117  0.0011  0.6345  0.4798
 9908TIP3    H251140   0.162   2.346  15.036 -0.2649  0.6400  0.0653
 9909TIP3   OH251141   3.209   4.800  11.681 -0.3756 -0.4077 -0.2528
 9909TIP3    H151142   3.231   4.793  11.774  0.6195 -0.9863 -0.5231
 9909TIP3    H251143   3.253   4.726  11.639  0.4277  0.6766 -1.4030
 9910TIP3   OH251144   3.403   6.401   2.512  0.5358  0.7613  0.0521
 9910TIP3    H151145   3.475   6.412   2.450  0.3687  0.5837 -0.1718
 9910TIP3    H251146   3.445   6.364   2.590  0.4911 -0.5099 -0.5091
 9911TIP3   OH251147   6.139   4.101   0.382 -0.2759  0.2286  0.2870
 9911TIP3    H151148   6.105   4.057   0.460 -0.8028  1.0033  0.5094
 9911TIP3    H251149   6.233   4.107   0.397 -0.4123  0.6852  1.0376
 9912TIP3   OH251150   1.066   4.784   2.043  0.0071 -0.5861 -0.4554
 9912TIP3    H151151   0.998   4.844   2.074  0.7841 -0.8903  2.0038
 9912TIP3    H251152   1.048   4.702   2.088  1.7855 -0.7757 -0.0205
 9913TIP3   OH251153   5.825   2.083  12.672 -0.7368 -0.1428  0.0312
 9913TIP3    H151154   5.794   2.123  12.591 -1.1363 -0.8652 -0.1781
 9913TIP3    H251155   5.891   2.019  12.644 -1.0859 -0.6014  0.2437
 9914TIP3   OH251156   0.432   4.672  11.954 -0.4967 -0.3542  0.1566
 9914TIP3    H151157   0.479   4.755  11.944  0.8820 -1.0071  1.0076
 9914TIP3    H251158   0.397   4.675  12.044 -0.6671 -0.5913  0.1010
 9915TIP3   OH251159   4.058   4.357  10.769 -0.0433  0.0615  0.0672
 9915TIP3    H151160   4.084   4.408  10.692  0.3308 -1.8054 -1.0851
 9915TIP3    H251161   4.128   4.372  10.832 -0.0532  1.1229 -0.1494
 9916TIP3   OH251162   4.825   5.269   2.379 -0.2974 -0.3166  0.2729
 9916TIP3    H151163   4.857   5.269   2.469  0.0370  3.2196  0.2969
 9916TIP3    H251164   4.759   5.338   2.377  0.4925  0.4845 -2.3715
 9917TIP3   OH251165   4.080   4.131  15.087 -0.4436  1.3489  0.1820
 9917TIP3    H151166   4.078   4.225  15.069 -1.3446  1.7393  2.0763
 9917TIP3    H251167   4.159   4.118  15.140  0.6583  0.6873 -1.5167
 9918TIP3   OH251168   0.223   6.421  12.227  0.3212 -0.2779 -0.1009
 9918TIP3    H151169   0.195   6.509  12.200  1.1048 -0.2907 -1.0146
 9918TIP3    H251170   0.163   6.397  12.297  0.4525  1.2312  0.5716
 9919TIP3   OH251171   3.513   1.036  11.811  0.0078  0.2444  0.5850
 9919TIP3    H151172   3.424   1.045  11.778  0.3916  1.5704 -0.1468
 9919TIP3    H251173   3.530   1.118  11.859  1.0461  0.2943  0.1624
 9920TIP3   OH251174   5.187   1.910  11.382 -0.3667  0.3109  0.1057
 9920TIP3    H151175   5.238   1.829  11.381  0.8807  1.0590  0.6599
 9920TIP3    H251176   5.213   1.953  11.464  0.8997  2.4423 -1.3099
 9921TIP3   OH251177   2.305   4.321   5.966 -0.1492 -0.6369  0.1378
 9921TIP3    H151178   2.305   4.227   5.952  1.4968 -0.5306 -0.8656
 9921TIP3    H251179   2.397   4.344   5.976 -0.5021  0.8941  0.1146
 9922TIP3   OH251180   5.657   5.140   3.550  0.0143 -0.1981  0.4929
 9922TIP3    H151181   5.696   5.158   3.465 -0.3941  1.9045  0.6756
 9922TIP3    H251182   5.621   5.052   3.543 -2.1337  0.7298 -2.3897
 9923TIP3   OH251183   3.922   1.050   6.163 -0.1038 -0.1399  0.1032
 9923TIP3    H151184   3.962   1.090   6.240 -0.3289  2.0463 -0.8227
 9923TIP3    H251185   3.971   0.970   6.149  0.8374  0.1115  1.7173
 9924TIP3   OH251186   1.655   6.058   5.204  0.4044 -0.1616 -0.0408
 9924TIP3    H151187   1.731   6.031   5.153  0.3836 -0.0933 -0.1085
 9924TIP3    H251188   1.651   5.996   5.276 -0.8293 -1.6394 -1.2793
 9925TIP3   OH251189   1.960   3.895   5.749 -0.3118  0.6778  0.0557
 9925TIP3    H151190   2.027   3.863   5.688 -0.0482 -1.2126  1.2411
 9925TIP3    H251191   2.007   3.909   5.831 -0.5940  3.5150 -0.1674
 9926TIP3   OH251192   4.079   1.993  11.830 -0.2342 -0.2991 -0.1381
 9926TIP3    H151193   4.096   1.975  11.737 -0.8999  0.0848 -0.3419
 9926TIP3    H251194   3.992   1.956  11.846 -0.6617  0.7382  0.0088
 9927TIP3   OH251195   1.581   1.619  12.222  0.6854  0.2721 -0.0242
 9927TIP3    H151196   1.489   1.596  12.234  0.3360  1.9713  0.8242
 9927TIP3    H251197   1.589   1.707  12.258  2.3984  0.6375 -1.1610
 9928TIP3   OH251198   6.153   1.958   3.746 -0.9095 -0.4943 -0.0717
 9928TIP3    H151199   6.081   1.896   3.740 -2.6291  1.2177  1.4609
 9928TIP3    H251200   6.111   2.041   3.770  1.6559  0.3428  2.0196
 9929TIP3   OH251201   1.147   4.981   2.922  0.0627  0.3452  0.4084
 9929TIP3    H151202   1.059   4.972   2.961 -0.0689 -0.6696 -0.0924
 9929TIP3    H251203   1.182   4.892   2.923 -0.2520  0.1137 -2.4974
 9930TIP3   OH251204   5.371   2.333   2.968  0.5855  0.8658  0.5315
 9930TIP3    H151205   5.411   2.308   3.051  0.2957  0.7764  0.6485
 9930TIP3    H251206   5.335   2.420   2.985 -0.4000  0.4214  0.8378
 9931TIP3   OH251207   2.741   0.217  11.909 -0.4830 -0.2020  0.1198
 9931TIP3    H151208   2.827   0.258  11.923 -0.6706  0.3171 -0.2136
 9931TIP3    H251209   2.759   0.123  11.912  0.4122 -0.1339 -1.6164
 9932TIP3   OH251210   1.719   3.530   4.772  0.4497  0.2545 -0.0136
 9932TIP3    H151211   1.635   3.486   4.784  1.0815 -0.7103  1.0387
 9932TIP3    H251212   1.746   3.555   4.860  2.2313 -1.3031 -0.0549
 9933TIP3   OH251213   5.224   3.834  16.680 -0.0603  0.0960  0.6290
 9933TIP3    H151214   5.144   3.823  16.732 -0.1555 -1.3556  0.2135
 9933TIP3    H251215   5.291   3.789  16.731 -0.1456 -1.3059 -0.4495
 9934TIP3   OH251216   1.374   3.614   3.774 -0.2997 -0.0425 -0.4539
 9934TIP3    H151217   1.296   3.664   3.800  0.0500  1.5463 -2.2201
 9934TIP3    H251218   1.342   3.554   3.707 -0.1271  0.2334 -0.7897
 9935TIP3   OH251219   4.489   5.458  14.582 -0.3463 -0.0036  0.4190
 9935TIP3    H151220   4.464   5.367  14.568 -0.6508 -0.2866  2.4904
 9935TIP3    H251221   4.415   5.496  14.629  1.1293  0.3578  2.6143
 9936TIP3   OH251222   6.421   4.709  10.630 -0.0719  0.2106 -0.1481
 9936TIP3    H151223   6.372   4.644  10.580 -2.5602  1.4330  0.5340
 9936TIP3    H251224   6.487   4.741  10.570 -0.8426 -0.7063 -1.5264
 9937TIP3   OH251225   1.561   0.914   3.556 -0.3390  1.0224 -0.2940
 9937TIP3    H151226   1.599   1.000   3.536  1.4313  0.7591  1.5430
 9937TIP3    H251227   1.624   0.875   3.616 -1.9880 -0.8665  0.2758
 9938TIP3   OH251228   4.172   3.337  16.713 -0.2829 -0.1373 -0.2541
 9938TIP3    H151229   4.099   3.327  16.774 -0.1288 -1.6243 -0.2740
 9938TIP3    H251230   4.133   3.321  16.627 -0.0476 -0.4093 -0.3133
 9939TIP3   OH251231   2.341   2.842   1.278 -0.4257  0.4306 -0.9957
 9939TIP3    H151232   2.341   2.794   1.360  1.3831  1.4286 -0.3496
 9939TIP3    H251233   2.288   2.920   1.296  0.4563  0.9436 -0.5618
 9940TIP3   OH251234   4.742   1.771   2.679  0.1688 -0.0213  0.5236
 9940TIP3    H151235   4.835   1.756   2.662 -0.0512 -0.5926 -0.2346
 9940TIP3    H251236   4.710   1.687   2.712 -0.6020 -0.6521 -1.6559
 9941TIP3   OH251237   2.165   5.032  12.695 -0.0877  0.4746  0.5412
 9941TIP3    H151238   2.157   5.077  12.779  2.4302  1.3214  0.4150
 9941TIP3    H251239   2.180   4.940  12.719 -2.3193  0.1472  0.8752
 9942TIP3   OH251240   2.099   0.861   3.598 -0.2676 -0.0477 -0.1154
 9942TIP3    H151241   2.184   0.856   3.641 -0.7088 -1.9059  0.6143
 9942TIP3    H251242   2.120   0.877   3.506  1.0948 -3.2298 -0.4856
 9943TIP3   OH251243   5.216   3.494  13.828 -0.1312  0.3449 -0.1186
 9943TIP3    H151244   5.159   3.472  13.755  1.3683  0.9006 -1.4961
 9943TIP3    H251245   5.179   3.576  13.863 -0.6144  0.2912 -0.4937
 9944TIP3   OH251246   0.085   1.352   0.250  0.1735 -0.1681 -0.4276
 9944TIP3    H151247   0.150   1.338   0.181 -1.0720  1.3223 -1.9696
 9944TIP3    H251248   0.010   1.392   0.206 -1.6667 -1.4096  1.3550
 9945TIP3   OH251249   0.580   4.551   4.585 -0.2595  0.4515 -0.1812
 9945TIP3    H151250   0.667   4.544   4.546 -0.8331  2.4515 -2.0415
 9945TIP3    H251251   0.531   4.605   4.524 -2.3279  0.8223  1.6737
 9946TIP3   OH251252   0.937   6.080   5.941  0.2416  0.3712 -0.1065
 9946TIP3    H151253   0.942   6.023   6.018 -1.3296  1.0950  0.5822
 9946TIP3    H251254   0.969   6.165   5.972 -2.4666  1.2803  0.4685
 9947TIP3   OH251255   4.085   2.619  13.617  0.1365 -0.0939  0.1737
 9947TIP3    H151256   4.031   2.694  13.593 -2.5891 -1.9603 -0.0446
 9947TIP3    H251257   4.110   2.579  13.534 -0.1155 -0.5374  0.3093
 9948TIP3   OH251258   2.356   0.968  14.390 -0.0240  0.3532  0.2698
 9948TIP3    H151259   2.348   0.961  14.485  0.8738  1.1263  0.4154
 9948TIP3    H251260   2.282   1.022  14.363  0.9853  2.1079  0.8319
 9949TIP3   OH251261   4.043   0.550   5.674  0.2091  0.1258 -0.1209
 9949TIP3    H151262   4.091   0.593   5.603 -1.4779  0.3040 -1.2060
 9949TIP3    H251263   3.958   0.593   5.675  0.1391  0.0605  1.9772
 9950TIP3   OH251264   4.642   5.086  13.159  0.3071 -0.0132  0.2212
 9950TIP3    H151265   4.705   5.060  13.092  0.7539  1.4910  0.0120
 9950TIP3    H251266   4.696   5.110  13.235 -0.0417  0.5995  0.2863
 9951TIP3   OH251267   1.082   6.625   3.242 -0.0329  0.4851  0.1494
 9951TIP3    H151268   1.087   6.537   3.204 -2.0256  0.8063 -1.0103
 9951TIP3    H251269   1.029   6.614   3.321 -0.1397  0.5909  0.0944
 9952TIP3   OH251270   0.022   6.602   4.624  0.0384  0.0923  0.0064
 9952TIP3    H151271   0.064   6.530   4.671 -0.2582  0.2449  0.5101
 9952TIP3    H251272   0.083   6.622   4.553  0.8423  0.3140  0.7304
 9953TIP3   OH251273   4.456   2.157   3.686 -0.1847  0.7653  0.3007
 9953TIP3    H151274   4.377   2.121   3.647 -0.6251 -0.8716  2.5431
 9953TIP3    H251275   4.500   2.202   3.613 -2.6878  0.9767 -1.1901
 9954TIP3   OH251276   5.940   2.182   5.988  0.1291  0.5638 -0.1693
 9954TIP3    H151277   6.032   2.157   5.989 -0.5490 -2.3499 -0.8222
 9954TIP3    H251278   5.918   2.196   6.080  1.0477  0.6326  0.0543
 9955TIP3   OH251279   4.922   0.277   3.987  0.1037 -0.0417 -0.1615
 9955TIP3    H151280   4.994   0.224   4.021  3.3063  2.9838 -1.6258
 9955TIP3    H251281   4.931   0.270   3.892 -1.5971  0.4448 -0.3889
 9956TIP3   OH251282   2.108   3.307  12.352 -0.4941  0.4514 -0.1680
 9956TIP3    H151283   2.036   3.350  12.307  0.9181  0.6262 -2.4271
 9956TIP3    H251284   2.167   3.279  12.281  2.4100  1.6807  1.6018
 9957TIP3   OH251285   0.377   6.324  14.727  0.7538  0.3734 -0.2696
 9957TIP3    H151286   0.440   6.251  14.731 -0.7093 -1.0441 -1.5843
 9957TIP3    H251287   0.387   6.359  14.638 -1.2047 -0.7914 -1.0169
 9958TIP3   OH251288   6.047   3.816   0.964  0.0035  0.2866  0.6095
 9958TIP3    H151289   6.137   3.787   0.975  0.1427 -0.1766 -1.3915
 9958TIP3    H251290   5.994   3.738   0.982  0.1701 -0.1927 -0.8826
 9959TIP3   OH251291   6.747   3.848   0.529  0.2401 -0.2891 -0.4233
 9959TIP3    H151292   6.787   3.765   0.555 -0.4726 -1.0458 -1.6071
 9959TIP3    H251293   6.820   3.905   0.507  0.7165 -1.2499 -1.4154
 9960TIP3   OH251294   5.050   2.254  11.224  0.2482 -0.2150  0.3814
 9960TIP3    H151295   5.051   2.161  11.199 -1.6286 -0.1451 -0.1588
 9960TIP3    H251296   4.959   2.281  11.210  0.5010  1.4315  1.5895
 9961TIP3   OH251297   2.452   1.159  15.192  0.1428 -0.2555 -0.0322
 9961TIP3    H151298   2.534   1.208  15.191  0.6715 -1.1077  0.3454
 9961TIP3    H251299   2.473   1.079  15.240 -1.4151  0.3620  1.7773
 9962TIP3   OH251300   5.776   5.371   3.733 -0.6783  0.2013 -0.6918
 9962TIP3    H151301   5.790   5.379   3.639  0.0900  2.8203 -0.4364
 9962TIP3    H251302   5.862   5.391   3.772 -1.0236 -0.6538  0.5760
 9963TIP3   OH251303   5.472   2.370  12.500 -0.0569  0.4515  0.5616
 9963TIP3    H151304   5.442   2.391  12.589 -1.6240  1.0977 -0.0905
 9963TIP3    H251305   5.542   2.433  12.484 -0.2597  0.8182  1.0651
 9964TIP3   OH251306   0.319   5.990   4.158  0.6001  0.4255  0.0866
 9964TIP3    H151307   0.249   6.015   4.219 -1.3955  1.4354 -2.4284
 9964TIP3    H251308   0.373   6.069   4.150 -0.7166  1.2538 -1.3650
 9965TIP3   OH251309   3.374   6.113   1.558  0.3732  0.2187  0.2789
 9965TIP3    H151310   3.333   6.136   1.642  3.2279  1.7773  1.4024
 9965TIP3    H251311   3.373   6.017   1.556  1.5105  0.0608  2.8781
 9966TIP3   OH251312   4.268   4.134  16.234  0.0358 -0.8500  0.1104
 9966TIP3    H151313   4.327   4.115  16.307  1.8135  0.5248 -0.8829
 9966TIP3    H251314   4.180   4.119  16.269  0.7604  0.7290  2.8617
 9967TIP3   OH251315   2.583   4.789   5.937  0.5102  0.0405  0.2766
 9967TIP3    H151316   2.635   4.869   5.944 -0.6212  0.7245  1.2765
 9967TIP3    H251317   2.604   4.741   6.017 -0.7125  0.5317  0.9050
 9968TIP3   OH251318   6.362   1.637   5.028  0.0809 -0.1255  0.8553
 9968TIP3    H151319   6.453   1.609   5.017 -0.2438 -1.1246  0.5844
 9968TIP3    H251320   6.322   1.566   5.078 -0.9245 -0.4427 -0.3502
 9969TIP3   OH251321   1.576   2.635   2.880 -0.4002  0.2931 -0.5397
 9969TIP3    H151322   1.516   2.562   2.897 -0.2075  0.5218  1.4359
 9969TIP3    H251323   1.569   2.690   2.959  1.5308  0.9379 -0.7654
 9970TIP3   OH251324   0.048   5.710   5.044  0.3011 -0.1069 -0.0812
 9970TIP3    H151325  -0.009   5.635   5.060  0.7074 -0.6850 -1.2569
 9970TIP3    H251326   0.137   5.674   5.043  0.5931  0.5808  0.5015
 9971TIP3   OH251327   6.741   4.937   0.356  0.0864 -1.0572 -0.2585
 9971TIP3    H151328   6.732   4.960   0.264 -1.4273 -0.6584 -0.0492
 9971TIP3    H251329   6.835   4.929   0.371  0.5249  1.4273 -1.2363
 9972TIP3   OH251330   0.354   6.111   3.633  0.5779  0.2219 -0.0502
 9972TIP3    H151331   0.276   6.154   3.597 -0.2574  0.7831  2.2429
 9972TIP3    H251332   0.320   6.030   3.672  0.9302  0.9272  1.8058
 9973TIP3   OH251333   3.676   4.557   2.026  0.0277 -0.1869  1.0459
 9973TIP3    H151334   3.666   4.463   2.042 -2.2442 -0.2269 -0.1887
 9973TIP3    H251335   3.746   4.563   1.962 -2.2753 -1.4860 -1.8353
 9974TIP3   OH251336   5.406   4.690  15.604 -0.4586  0.2632 -0.2739
 9974TIP3    H151337   5.327   4.638  15.618 -1.1680  1.2622 -0.5227
 9974TIP3    H251338   5.403   4.757  15.672  0.2033  0.2773 -0.2524
 9975TIP3   OH251339   1.410   3.335  12.937  0.1019  0.6656 -0.1430
 9975TIP3    H151340   1.353   3.262  12.914 -0.7246  0.9576  0.9220
 9975TIP3    H251341   1.497   3.308  12.906 -0.3279 -0.4350 -0.4368
 9976TIP3   OH251342   1.708   6.399   1.669  0.8585  0.1398 -0.0055
 9976TIP3    H151343   1.711   6.363   1.580  1.2399  2.7849 -1.1878
 9976TIP3    H251344   1.798   6.429   1.685  1.4490 -2.5385  2.3941
 9977TIP3   OH251345   3.918   2.186  13.528  0.2633  0.2367  0.4223
 9977TIP3    H151346   3.961   2.191  13.443  2.6717 -0.3956  1.5197
 9977TIP3    H251347   3.912   2.277  13.557  0.5302  0.3684  0.0769
 9978TIP3   OH251348   4.337   4.064   2.553  0.1423 -0.0508 -0.4616
 9978TIP3    H151349   4.255   4.057   2.503 -0.0335 -0.2953 -0.1463
 9978TIP3    H251350   4.329   4.145   2.602 -0.3686 -0.5803  0.3614
 9979TIP3   OH251351   0.913   6.767  16.793  0.2603  0.3154 -0.8050
 9979TIP3    H151352   0.861   6.689  16.777  1.3094 -0.5891 -0.0070
 9979TIP3    H251353   0.901   6.786  16.886 -2.3405  2.9244 -1.5233
 9980TIP3   OH251354   4.422   1.793  11.514  0.0238  0.2123  0.8607
 9980TIP3    H151355   4.369   1.820  11.439  0.0005 -0.9520  0.4281
 9980TIP3    H251356   4.409   1.862  11.578 -1.1535  0.5054  0.3516
 9981TIP3   OH251357   5.490   2.671  16.746 -0.0619 -0.6260  0.6949
 9981TIP3    H151358   5.524   2.582  16.754  0.5973 -0.6010 -1.2908
 9981TIP3    H251359   5.415   2.663  16.687  0.5166  0.2254 -0.1882
 9982TIP3   OH251360   3.359   1.120  15.550 -0.0323  0.5985  0.1896
 9982TIP3    H151361   3.269   1.132  15.521  0.1891  0.2089 -0.6958
 9982TIP3    H251362   3.352   1.071  15.632 -0.6395  1.0108  0.3880
 9983TIP3   OH251363   1.202   1.879   1.359  0.4312  0.1832 -0.4900
 9983TIP3    H151364   1.120   1.864   1.311  0.9924 -0.9220 -1.1397
 9983TIP3    H251365   1.180   1.947   1.423 -1.8243 -2.1260  1.3892
 9984TIP3   OH251366   1.631   5.647  13.357  0.1430  0.0480  0.6514
 9984TIP3    H151367   1.641   5.693  13.440 -1.3973 -0.2113  1.0024
 9984TIP3    H251368   1.547   5.602  13.364  0.3555 -0.6216 -0.7456
 9985TIP3   OH251369   0.853   2.421  15.093  0.1869 -0.2138  0.2569
 9985TIP3    H151370   0.779   2.411  15.032  1.0756 -2.5734 -0.5395
 9985TIP3    H251371   0.903   2.495  15.057 -1.1032  0.6285  0.1101
 9986TIP3   OH251372   6.695   3.119   5.098  0.0653  0.1559  0.1367
 9986TIP3    H151373   6.748   3.125   5.177  0.5984 -1.5903 -0.0412
 9986TIP3    H251374   6.756   3.138   5.027 -0.1193  0.5100  0.0725
 9987TIP3   OH251375   5.693   1.011  11.584  0.6926  0.0812 -0.2333
 9987TIP3    H151376   5.705   1.001  11.490  3.4735 -0.5556  0.0800
 9987TIP3    H251377   5.749   1.085  11.608 -0.8714  0.9893  0.8041
 9988TIP3   OH251378   6.553   1.959  15.772 -0.4691 -0.7171  0.3302
 9988TIP3    H151379   6.604   1.953  15.691 -1.0044 -0.7432 -0.0127
 9988TIP3    H251380   6.586   1.887  15.826 -0.3326 -0.9042  0.0034
 9989TIP3   OH251381   5.359   3.866  13.662  0.1046  0.3407 -0.0075
 9989TIP3    H151382   5.391   3.926  13.594 -1.0782  0.1259 -0.7805
 9989TIP3    H251383   5.395   3.901  13.743  0.2569  1.5219 -0.5586
 9990TIP3   OH251384   0.566   0.862   1.249 -0.1955  0.4179 -0.2538
 9990TIP3    H151385   0.494   0.838   1.308 -0.2798 -0.5546 -0.7292
 9990TIP3    H251386   0.552   0.808   1.171  0.8718  0.4472 -0.4820
 9991TIP3   OH251387   1.846   6.184   5.737  0.0414 -0.3462  0.0820
 9991TIP3    H151388   1.792   6.109   5.762  0.9803 -1.2534 -0.5551
 9991TIP3    H251389   1.801   6.224   5.663  0.3743 -1.2580 -0.6171
 9992TIP3   OH251390   0.808   5.198   2.029  0.4967 -0.1254 -0.0853
 9992TIP3    H151391   0.715   5.212   2.044  0.6395  0.7245  0.0586
 9992TIP3    H251392   0.812   5.148   1.947 -0.0333  1.5669 -1.1937
 9993TIP3   OH251393   4.023   1.657   6.287 -0.3505  0.0891  0.4010
 9993TIP3    H151394   3.934   1.644   6.318  0.0046 -2.5757  0.5512
 9993TIP3    H251395   4.077   1.649   6.366  0.0863  0.8075  0.1843
 9994TIP3   OH251396   0.642   5.825   1.536 -0.4701  0.0180 -0.0983
 9994TIP3    H151397   0.567   5.780   1.573 -0.1968  1.0549  1.8643
 9994TIP3    H251398   0.614   5.850   1.447 -2.2942  0.0343  0.4397
 9995TIP3   OH251399   6.071   4.421  11.634 -0.4362  0.0518  0.0676
 9995TIP3    H151400   6.046   4.396  11.723  1.4244 -0.8734  0.3944
 9995TIP3    H251401   6.126   4.498  11.645 -1.1909  0.6668 -0.4029
 9996TIP3   OH251402   4.091   0.719  11.946  0.0403 -0.0816  0.1702
 9996TIP3    H151403   4.060   0.720  11.855  1.3818  1.0424 -0.3119
 9996TIP3    H251404   4.133   0.805  11.958  0.8439 -0.6291  1.5084
 9997TIP3   OH251405   2.032   4.599   0.796 -0.1131 -0.6386  0.6621
 9997TIP3    H151406   2.128   4.598   0.799 -0.0960 -0.1150  3.2237
 9997TIP3    H251407   2.008   4.684   0.832 -1.5389 -0.8987  0.3825
 9998TIP3   OH251408   5.761   5.518   2.685  0.3294 -0.3434 -0.4207
 9998TIP3    H151409   5.696   5.550   2.622  1.2394 -0.9351 -1.7253
 9998TIP3    H251410   5.738   5.426   2.697  0.0195 -0.1725  0.3055
 9999TIP3   OH251411   1.012   1.246   6.226 -0.1109 -0.2452 -0.1465
 9999TIP3    H151412   1.082   1.184   6.203  0.4219 -0.1496  1.1240
 9999TIP3    H251413   1.047   1.331   6.203  0.3008 -0.1765  0.6995
10000TIP3   OH251414   1.589   4.267  15.843 -0.1938  0.2823  0.1699
10000TIP3    H151415   1.597   4.261  15.748 -0.9257 -1.4086  0.1786
10000TIP3    H251416   1.657   4.329  15.869  1.8970 -1.3112 -1.1957
10001TIP3   OH251417   1.918   0.331   4.870  0.0122  0.4917 -0.2451
10001TIP3    H151418   1.987   0.305   4.932 -1.3238  0.0095  1.0968
10001TIP3    H251419   1.954   0.408   4.825  1.3874  0.2969  0.4662
10002TIP3   OH251420   2.241   4.810  11.493 -0.3526  0.7651  0.3978
10002TIP3    H151421   2.223   4.897  11.457 -2.5514  0.8221  1.4941
10002TIP3    H251422   2.255   4.755  11.416 -0.7512  1.7199 -0.3857
10003TIP3   OH251423   2.118   2.787   0.661  0.2403  0.2971  0.0143
10003TIP3    H151424   2.119   2.826   0.574  1.4013  3.1888  1.1933
10003TIP3    H251425   2.149   2.698   0.648  0.3828  0.6564 -2.5200
10004TIP3   OH251426   0.769   3.159  14.805  0.4087  1.0414 -0.4093
10004TIP3    H151427   0.809   3.197  14.883 -0.8820 -0.7143  1.1844
10004TIP3    H251428   0.842   3.147  14.744  2.1400 -0.7412  1.8335
10005TIP3   OH251429   6.174   0.968  14.344 -0.5769 -0.0774  0.0261
10005TIP3    H151430   6.165   1.063  14.344 -1.4129 -0.1254 -1.4916
10005TIP3    H251431   6.153   0.941  14.433 -2.4353  1.0019 -0.0466
10006TIP3   OH251432   5.486   6.601   2.541 -0.2627  0.3728 -0.1343
10006TIP3    H151433   5.412   6.543   2.561  0.3149  0.0433  1.1117
10006TIP3    H251434   5.548   6.587   2.612  1.6725 -0.4145 -1.8870
10007TIP3   OH251435   5.535   2.506  11.077  0.2644  0.3149  0.8383
10007TIP3    H151436   5.586   2.430  11.105  1.7607  0.9755  0.0416
10007TIP3    H251437   5.468   2.471  11.019  1.2871 -0.3526  0.0354
10008TIP3   OH251438   6.079   3.717   3.495  0.1346  0.7427  0.0628
10008TIP3    H151439   6.049   3.647   3.437 -0.4704  0.6130  0.5235
10008TIP3    H251440   6.062   3.797   3.446  0.4374  0.5890 -0.2953
10009TIP3   OH251441   6.210   6.487   1.699  0.3240  0.0732  0.2707
10009TIP3    H151442   6.272   6.561   1.697  0.0724  0.2740 -0.1637
10009TIP3    H251443   6.124   6.528   1.697  0.1843 -0.2441 -0.4337
10010TIP3   OH251444   5.206   0.828   4.727 -0.2684 -0.0141  0.2573
10010TIP3    H151445   5.244   0.805   4.642  0.1142 -1.6680  0.8559
10010TIP3    H251446   5.185   0.745   4.768 -1.9521  0.7963  1.1415
10011TIP3   OH251447   3.924   6.172  16.077  0.0464  0.0228 -0.0631
10011TIP3    H151448   3.908   6.243  16.015  2.8190  0.3648 -0.5484
10011TIP3    H251449   4.016   6.148  16.062 -0.3351 -2.5864  1.2118
10012TIP3   OH251450   2.179   6.020   0.287 -0.3585 -0.0126  0.0568
10012TIP3    H151451   2.096   6.014   0.334 -0.3355 -0.9070 -0.0037
10012TIP3    H251452   2.161   6.076   0.212 -0.2840  1.8264  1.3582
10013TIP3   OH251453   4.389   0.194   1.797  0.3165  0.1288  0.2221
10013TIP3    H151454   4.401   0.100   1.795  0.7169  0.1306 -2.8539
10013TIP3    H251455   4.297   0.207   1.819  0.2904 -0.9537  0.7814
10014TIP3   OH251456   6.437   3.604  13.875  0.0511 -0.6827  0.1121
10014TIP3    H151457   6.494   3.674  13.844  0.0955  0.0571  1.7761
10014TIP3    H251458   6.491   3.554  13.935 -0.3661 -1.4125 -0.1026
10015TIP3   OH251459   4.489   0.899   5.591 -0.2984  0.1806  0.0440
10015TIP3    H151460   4.552   0.916   5.661  1.4766 -0.7259 -1.2544
10015TIP3    H251461   4.419   0.962   5.605  2.0098  2.8773  0.2091
10016TIP3   OH251462   1.780   4.991  12.296  0.0766 -0.2320 -0.2918
10016TIP3    H151463   1.793   5.068  12.240 -0.6029 -0.3795 -0.6634
10016TIP3    H251464   1.860   4.941  12.287 -0.3755 -0.7242 -1.8769
10017TIP3   OH251465   2.616   5.621   3.393 -0.3063 -0.5038 -0.1700
10017TIP3    H151466   2.703   5.621   3.432  0.9561 -2.7397 -2.6974
10017TIP3    H251467   2.556   5.627   3.468  1.9599  0.2121  1.6904
10018TIP3   OH251468   0.467   2.093   0.710 -0.6659 -0.0162 -0.8422
10018TIP3    H151469   0.488   2.183   0.733  1.6650 -0.6252 -0.2980
10018TIP3    H251470   0.371   2.088   0.715 -1.0114  2.8236 -2.5232
10019TIP3   OH251471   5.020   1.767   1.916  0.0914  0.0708  0.0621
10019TIP3    H151472   5.068   1.693   1.881  0.9279  1.0337 -0.8832
10019TIP3    H251473   4.933   1.760   1.878 -0.9186 -2.1787  2.4617
10020TIP3   OH251474   2.289   2.011  11.443  0.9228  0.0339 -0.2227
10020TIP3    H151475   2.369   2.015  11.494  1.5459  0.2282 -1.1989
10020TIP3    H251476   2.221   1.991  11.508  1.9836 -1.9161  0.3908
10021TIP3   OH251477   2.486   1.250  12.285  0.3088  0.3287  0.4244
10021TIP3    H151478   2.437   1.185  12.334 -0.3345  0.2050 -0.3635
10021TIP3    H251479   2.548   1.287  12.349  1.1867 -1.5394  0.7129
10022TIP3   OH251480   5.704   0.233   4.532 -0.0523 -0.2308 -0.0565
10022TIP3    H151481   5.754   0.311   4.556  0.6807 -0.2628 -1.4031
10022TIP3    H251482   5.675   0.249   4.443 -1.1002 -0.9039  0.1474
10023TIP3   OH251483   4.048   4.740  15.030  0.5397  0.5016 -0.3975
10023TIP3    H151484   4.043   4.665  14.971 -1.4043  0.3305 -0.0853
10023TIP3    H251485   4.032   4.703  15.117  1.2184  1.0571 -0.0255
10024TIP3   OH251486   1.663   1.645  14.340 -0.0957  0.2984 -0.9378
10024TIP3    H151487   1.677   1.734  14.375  0.8240 -0.7967  1.7634
10024TIP3    H251488   1.748   1.621  14.303 -0.6916  0.9438 -2.8333
10025TIP3   OH251489   3.909   4.859   1.379 -0.2034 -0.3712  0.2980
10025TIP3    H151490   3.858   4.807   1.442  0.2759 -0.8623  0.2936
10025TIP3    H251491   3.936   4.795   1.313  0.8691 -0.2307  0.5884
10026TIP3   OH251492   4.711   2.772   3.979 -0.1680  0.1883 -0.0298
10026TIP3    H151493   4.649   2.785   4.051  0.1449 -0.5237  0.3877
10026TIP3    H251494   4.666   2.713   3.919  0.1202 -0.3899  0.3107
10027TIP3   OH251495   5.417   3.493  16.797  0.2359 -0.4235  0.0800
10027TIP3    H151496   5.338   3.443  16.782 -0.2953  0.2924  0.4017
10027TIP3    H251497   5.430   3.489  16.892  0.4565 -0.3544  0.0539
10028TIP3   OH251498   5.255   5.193  16.432 -0.1165 -0.1278 -0.1254
10028TIP3    H151499   5.216   5.131  16.492  0.5802  0.5922  1.1066
10028TIP3    H251500   5.325   5.144  16.388 -1.3028 -0.9514 -1.1605
10029TIP3   OH251501   3.783   1.279  10.925  0.0991 -0.3017 -0.0491
10029TIP3    H151502   3.779   1.329  10.844  0.1661 -2.4929 -1.4772
10029TIP3    H251503   3.862   1.310  10.969  1.1530 -0.4436 -1.7736
10030TIP3   OH251504   4.779   1.723  17.125  0.0828 -0.3615  0.1697
10030TIP3    H151505   4.832   1.644  17.138 -2.1523 -2.7808 -3.5221
10030TIP3    H251506   4.698   1.705  17.173 -1.1141 -1.2809 -2.0250
10031TIP3   OH251507   1.626   6.625   0.718  0.3141 -0.0158 -0.0376
10031TIP3    H151508   1.554   6.684   0.739  0.4074 -0.6141  2.3442
10031TIP3    H251509   1.702   6.664   0.762  1.2427  0.0709 -1.6565
10032TIP3   OH251510   4.561   1.348   2.070  0.3827  0.4003  0.3956
10032TIP3    H151511   4.564   1.330   1.976  0.0464 -1.0190  0.6375
10032TIP3    H251512   4.566   1.443   2.077 -1.0295  0.6064 -1.1146
10033TIP3   OH251513   5.151   0.165   1.017  0.0152  0.0903  0.0614
10033TIP3    H151514   5.120   0.076   1.005 -0.3731  0.3753 -1.2156
10033TIP3    H251515   5.147   0.180   1.112 -0.1894 -1.1362  0.2536
10034TIP3   OH251516   4.593   4.556   2.631 -0.1161 -0.1241  0.2325
10034TIP3    H151517   4.635   4.600   2.557  0.5282  0.2833  0.8278
10034TIP3    H251518   4.501   4.578   2.623  0.2926  2.0657  0.9759
10035TIP3   OH251519   4.817   4.504   6.808 -0.8749 -0.1114 -0.2468
10035TIP3    H151520   4.870   4.582   6.825 -1.0532 -0.4644  2.1951
10035TIP3    H251521   4.736   4.539   6.770 -1.2306  0.9908  1.4285
10036TIP3   OH251522   4.117   3.169  12.056 -0.1998  0.3315 -0.2343
10036TIP3    H151523   4.071   3.242  12.098  0.6466  0.8024 -0.0969
10036TIP3    H251524   4.180   3.211  11.997  0.6963 -0.2714  0.2681
10037TIP3   OH251525   6.362   0.275   5.159 -0.3321 -0.0742 -0.3537
10037TIP3    H151526   6.417   0.208   5.119  0.3510  0.2938 -0.0578
10037TIP3    H251527   6.334   0.330   5.085  1.3616  0.9189 -0.3098
10038TIP3   OH251528   0.049   3.617  11.885 -0.5569  0.0783 -0.6119
10038TIP3    H151529   0.058   3.649  11.795  1.0698 -0.6834 -0.7611
10038TIP3    H251530   0.120   3.659  11.932 -0.6702 -0.4491  0.0382
10039TIP3   OH251531   4.543   3.384  12.177 -0.6972 -0.0387  0.8598
10039TIP3    H151532   4.469   3.391  12.237  0.7958 -1.8278  3.0836
10039TIP3    H251533   4.564   3.290  12.175  0.3325  0.1683 -1.2231
10040TIP3   OH251534   4.709   6.103   6.539 -0.3115 -0.1425  0.1325
10040TIP3    H151535   4.661   6.185   6.526 -0.6287  0.1744  2.7177
10040TIP3    H251536   4.801   6.127   6.528 -0.5166  0.0624 -1.2414
10041TIP3   OH251537   6.721   4.990  11.633  0.2451  0.4453 -0.8776
10041TIP3    H151538   6.630   5.007  11.657 -0.3680 -1.6982 -1.4740
10041TIP3    H251539   6.767   4.981  11.717 -0.9255 -2.2916 -0.4187
10042TIP3   OH251540   1.848   6.727  17.241 -0.2623 -0.0425  0.2749
10042TIP3    H151541   1.824   6.688  17.325 -0.7682 -0.0327  0.1334
10042TIP3    H251542   1.902   6.661  17.198 -1.9068 -1.0077 -0.3753
10043TIP3   OH251543   3.772   5.216  13.308 -0.7784 -0.5714 -0.1591
10043TIP3    H151544   3.857   5.236  13.347 -0.7560  1.4169 -1.1253
10043TIP3    H251545   3.778   5.124  13.285  1.8015 -0.0876 -1.8225
10044TIP3   OH251546   1.863   0.241  13.301  0.0979  0.7005 -0.2075
10044TIP3    H151547   1.792   0.220  13.362  0.9061  0.3738  0.6413
10044TIP3    H251548   1.821   0.292  13.232 -0.9242  0.7045  0.3979
10045TIP3   OH251549   6.118   0.098   0.013 -0.0235 -0.0745 -0.6112
10045TIP3    H151550   6.213   0.089   0.001 -0.0692 -0.6478 -0.5907
10045TIP3    H251551   6.082   0.083  -0.074 -0.0605  0.8568 -0.7664
10046TIP3   OH251552   0.116   6.510   3.844 -0.4597 -0.4662  0.2852
10046TIP3    H151553   0.169   6.435   3.819 -1.2881 -0.2743 -2.3770
10046TIP3    H251554   0.151   6.537   3.929 -0.1624 -3.8278  1.3994
10047TIP3   OH251555   3.352   3.343  16.429  0.4275 -0.4417  0.1894
10047TIP3    H151556   3.345   3.435  16.404 -0.9069 -0.7296 -0.5800
10047TIP3    H251557   3.271   3.324  16.476  1.7825 -0.5963  2.6245
10048TIP3   OH251558   0.058   2.859   2.660 -0.2721  0.3982 -0.0814
10048TIP3    H151559  -0.009   2.885   2.596 -0.6679  0.9943  0.5614
10048TIP3    H251560   0.092   2.942   2.694 -1.4400  0.1253  1.8937
10049TIP3   OH251561   0.555   0.155   3.278 -0.0208 -0.1959  0.3760
10049TIP3    H151562   0.460   0.158   3.288  0.0232  1.4016  0.5374
10049TIP3    H251563   0.577   0.062   3.289 -1.4830 -0.5069  0.9370
10050TIP3   OH251564   5.130   3.815  14.296 -0.4599  0.4293  0.2290
10050TIP3    H151565   5.217   3.845  14.324 -0.2842 -1.5342  2.0091
10050TIP3    H251566   5.079   3.809  14.377 -1.8744  0.3089 -0.6338
10051TIP3   OH251567   1.434   1.273   2.731 -0.6303  0.3059  0.3541
10051TIP3    H151568   1.442   1.202   2.667 -1.0158  1.4328 -0.9885
10051TIP3    H251569   1.377   1.237   2.799 -1.7780 -0.3117 -0.8836
10052TIP3   OH251570   4.439   0.156   2.319  0.6001  0.0338  0.7729
10052TIP3    H151571   4.469   0.102   2.392  1.5660 -0.6487 -0.0911
10052TIP3    H251572   4.511   0.216   2.301  0.2743  0.3628  0.5315
10053TIP3   OH251573   0.821   4.523   4.436 -0.3873 -0.5527  0.3197
10053TIP3    H151574   0.874   4.493   4.510 -1.0492 -0.5990  0.7804
10053TIP3    H251575   0.875   4.590   4.394 -0.1064 -0.3486  0.9855
10054TIP3   OH251576   4.044   0.384   1.768 -0.0432  0.5325  0.6641
10054TIP3    H151577   4.116   0.410   1.710  0.5915 -0.9705  0.7131
10054TIP3    H251578   3.986   0.332   1.712 -2.2212  3.3328  0.1063
10055TIP3   OH251579   5.035   0.127  12.006 -0.2370  0.0305 -0.4743
10055TIP3    H151580   4.952   0.125  12.054  0.4307 -1.6585  0.6492
10055TIP3    H251581   5.009   0.149  11.916 -1.4910  3.3459  0.5312
10056TIP3   OH251582   1.278   4.310  15.325  0.1835 -0.4264 -0.3269
10056TIP3    H151583   1.363   4.345  15.353 -0.2471 -0.6162  1.3181
10056TIP3    H251584   1.214   4.369  15.365 -0.4809 -0.6646 -1.0249
10057TIP3   OH251585   2.007   4.495   2.725 -0.4359 -0.0478 -0.3794
10057TIP3    H151586   1.991   4.563   2.660  2.2094  1.8647  0.8003
10057TIP3    H251587   2.051   4.425   2.676 -2.4798 -0.6932 -1.4372
10058TIP3   OH251588   1.465   2.245  11.326  0.6425 -0.3547  0.1044
10058TIP3    H151589   1.484   2.152  11.318  2.0567 -0.1770  0.9666
10058TIP3    H251590   1.484   2.282  11.240 -1.3126 -1.0535 -0.6659
10059TIP3   OH251591   6.192   6.326   5.564  0.0737  0.1900  0.0623
10059TIP3    H151592   6.209   6.409   5.609  2.7092 -0.6799  0.8438
10059TIP3    H251593   6.099   6.310   5.578 -0.4953  2.9420 -0.0361
10060TIP3   OH251594   6.276   0.440   2.084  0.2962  0.1006  0.0859
10060TIP3    H151595   6.214   0.410   2.151  0.6160 -1.2062 -0.1758
10060TIP3    H251596   6.331   0.364   2.067  0.1198  0.3397 -1.7894
10061TIP3   OH251597   2.629   6.479  15.082 -0.9539 -0.0401  0.0743
10061TIP3    H151598   2.663   6.508  14.997  0.7770 -0.7274  0.4811
10061TIP3    H251599   2.654   6.547  15.143  0.7871 -1.0601  0.5715
10062TIP3   OH251600   2.445   2.832   2.836  0.1033  0.4930  0.2849
10062TIP3    H151601   2.434   2.904   2.898  0.8863  0.9286 -0.0704
10062TIP3    H251602   2.404   2.757   2.879 -2.0485  1.4602  0.0353
10063TIP3   OH251603   1.461   3.456  12.274  0.2890  0.3482  0.0806
10063TIP3    H151604   1.430   3.538  12.313  1.3604  1.0103 -0.4312
10063TIP3    H251605   1.533   3.428  12.331  0.5581  0.2802 -0.2887
10064TIP3   OH251606   0.489   6.125   1.047 -0.3343  0.3723 -0.0292
10064TIP3    H151607   0.400   6.139   1.015  0.6487  2.7765 -2.1040
10064TIP3    H251608   0.527   6.213   1.049  2.6814 -0.7553 -1.5040
10065TIP3   OH251609   3.321   4.390   5.492  0.0837 -0.2745 -0.1310
10065TIP3    H151610   3.371   4.471   5.484 -0.9653  0.2703 -1.6431
10065TIP3    H251611   3.374   4.335   5.549  0.4796  1.7311  1.5569
10066TIP3   OH251612   1.133   5.151   1.002  0.0820 -0.1044 -0.5591
10066TIP3    H151613   1.177   5.236   0.995  1.5585 -0.2454  4.0465
10066TIP3    H251614   1.041   5.172   1.017  0.3865  0.7061  0.2635
10067TIP3   OH251615   6.156   4.832  15.103  0.0490  0.6381 -0.5334
10067TIP3    H151616   6.112   4.890  15.165  1.6842  2.4006 -0.9372
10067TIP3    H251617   6.095   4.827  15.029 -1.2162 -0.2152  0.5266
10068TIP3   OH251618   3.881   0.643  14.975 -0.0731  0.3064  0.2750
10068TIP3    H151619   3.948   0.663  14.909 -1.4648 -1.4219 -1.8142
10068TIP3    H251620   3.915   0.567  15.022 -1.0883 -1.5320 -1.7965
10069TIP3   OH251621   0.958   5.286   4.897 -0.2598  0.7370 -0.0979
10069TIP3    H151622   0.946   5.288   4.992 -0.9141 -0.1678 -0.1472
10069TIP3    H251623   1.053   5.284   4.884 -0.1768  0.3808  0.5569
10070TIP3   OH251624   4.440   6.636   4.003 -0.1356  0.0893  0.1898
10070TIP3    H151625   4.523   6.679   3.984 -0.9590  2.5052  1.5064
10070TIP3    H251626   4.446   6.550   3.961  3.1463  0.0116  0.6031
10071TIP3   OH251627   5.460   1.952   2.543 -0.0635 -0.0685 -0.3389
10071TIP3    H151628   5.444   1.859   2.529 -0.2720 -0.0726 -0.0877
10071TIP3    H251629   5.380   1.995   2.512 -0.2898 -0.0361  0.2669
10072TIP3   OH251630   3.116   2.637   4.775 -0.4873  0.3394  0.3622
10072TIP3    H151631   3.073   2.718   4.748  0.0565  0.0056 -1.6689
10072TIP3    H251632   3.043   2.576   4.791 -0.8510  0.4492 -0.7891
10073TIP3   OH251633   2.123   4.456  15.086  0.4620 -0.3506  0.1378
10073TIP3    H151634   2.183   4.382  15.097  1.2086 -0.4259 -3.2691
10073TIP3    H251635   2.155   4.501  15.008 -0.8695  2.7553  1.2548
10074TIP3   OH251636   6.006   0.475  17.193  0.0554 -0.2705 -0.2990
10074TIP3    H151637   6.051   0.470  17.277 -0.4727 -0.3124 -0.0100
10074TIP3    H251638   6.002   0.568  17.173  0.5609 -0.2865 -0.4946
10075TIP3   OH251639   2.269   3.392  16.330 -0.4984  0.4276  0.2851
10075TIP3    H151640   2.263   3.450  16.254 -2.0434  0.5499  0.4633
10075TIP3    H251641   2.193   3.415  16.384  0.1541 -0.1703  1.5058
10076TIP3   OH251642   1.932   5.684  16.888 -0.2178  0.1192 -0.1753
10076TIP3    H151643   1.996   5.634  16.837 -0.2447 -1.5175  1.2898
10076TIP3    H251644   1.968   5.685  16.977 -1.7647 -0.0275  0.4831
10077TIP3   OH251645   6.011   0.215   4.019  0.3020 -0.1887  0.3222
10077TIP3    H151646   6.065   0.166   4.082 -0.6712 -1.5434  0.1328
10077TIP3    H251647   5.950   0.151   3.984  0.9313  0.4592 -2.2037
10078TIP3   OH251648   5.701   4.998  13.097 -0.0273  0.4300  0.1566
10078TIP3    H151649   5.672   4.937  13.165 -0.6589  1.7081  1.0825
10078TIP3    H251650   5.641   4.981  13.024 -0.1844 -0.0552  0.3888
10079TIP3   OH251651   4.525   0.315   1.572  0.0312  0.5484 -0.0791
10079TIP3    H151652   4.592   0.247   1.578  0.4351  1.0043  0.7401
10079TIP3    H251653   4.460   0.291   1.639  0.9909  1.8206  1.3834
10080TIP3   OH251654   1.847   5.725   1.915  0.4532  0.6476 -0.3246
10080TIP3    H151655   1.761   5.732   1.874  1.2199  2.1700 -1.7930
10080TIP3    H251656   1.871   5.815   1.936  0.5412  0.0402  2.6992
10081TIP3   OH251657   6.526   3.666   5.923  0.0163 -0.0270 -0.2550
10081TIP3    H151658   6.604   3.629   5.966 -1.6454 -1.1937  1.9796
10081TIP3    H251659   6.522   3.756   5.956 -0.2388 -0.3526  0.6351
10082TIP3   OH251660   1.853   2.957   1.839 -0.4534  0.1209  0.2821
10082TIP3    H151661   1.771   2.977   1.884 -0.4340 -0.3174  0.5173
10082TIP3    H251662   1.913   3.027   1.864 -0.2602 -0.4377  1.4126
10083TIP3   OH251663   3.945   3.305  11.036  0.3701  0.5405  0.5150
10083TIP3    H151664   3.985   3.354  10.964  0.1379 -0.1536 -0.1031
10083TIP3    H251665   3.858   3.344  11.047 -0.6446 -0.9902 -1.3628
10084TIP3   OH251666   4.251   6.712   1.626 -0.3495  0.2144  0.2554
10084TIP3    H151667   4.284   6.758   1.548 -2.1042  1.8548  0.4144
10084TIP3    H251668   4.329   6.699   1.680  0.4730  1.5524 -0.5397
10085TIP3   OH251669   3.234   3.959   2.706  0.0364 -0.4628 -0.3317
10085TIP3    H151670   3.188   3.964   2.622  0.5192  3.9266 -0.5547
10085TIP3    H251671   3.325   3.942   2.682  0.0773  0.2173 -0.6870
10086TIP3   OH251672   2.122   4.131  11.819 -0.8133 -0.0623 -0.1636
10086TIP3    H151673   2.143   4.094  11.733  1.0379  2.5104 -0.9790
10086TIP3    H251674   2.199   4.110  11.873 -0.5786  0.9088 -0.0972
10087TIP3   OH251675   3.845   0.590  12.797 -0.3239 -0.0936 -0.2635
10087TIP3    H151676   3.867   0.650  12.726  0.6495  0.0902  0.1791
10087TIP3    H251677   3.924   0.539  12.811 -0.5033 -0.1210  0.6951
10088TIP3   OH251678   5.272   0.225  12.411 -0.3510 -0.3708 -0.6066
10088TIP3    H151679   5.365   0.225  12.387 -0.3252 -3.8632 -1.0360
10088TIP3    H251680   5.257   0.312  12.448  2.9452  0.4898 -0.9552
10089TIP3   OH251681   0.415   3.197   2.072  0.5962 -0.4960 -0.0969
10089TIP3    H151682   0.501   3.239   2.081  0.7223 -0.9368  0.8706
10089TIP3    H251683   0.356   3.250   2.125  0.2679 -0.2214 -0.7218
10090TIP3   OH251684   2.482   6.260   0.059 -0.1647 -0.3639  0.2649
10090TIP3    H151685   2.507   6.168   0.067  0.0108 -0.2396  1.3744
10090TIP3    H251686   2.546   6.307   0.112 -0.0267  0.4469 -0.6027
10091TIP3   OH251687   0.372   6.755   4.708  0.1571  0.4022 -0.0045
10091TIP3    H151688   0.352   6.682   4.649  1.8446  0.6463 -0.9373
10091TIP3    H251689   0.406   6.824   4.651  2.0196  0.5812  1.2278
10092TIP3   OH251690   4.657   1.450  16.063  0.1541 -0.3882 -0.2993
10092TIP3    H151691   4.618   1.420  15.981 -3.3036  2.4505  0.0251
10092TIP3    H251692   4.600   1.415  16.131  1.5161 -0.6677  0.7480
10093TIP3   OH251693   3.334   2.622  13.969  0.0830  0.0909 -0.2790
10093TIP3    H151694   3.422   2.585  13.981 -0.3415 -0.5294  1.1428
10093TIP3    H251695   3.304   2.586  13.885  0.6671 -0.7875 -0.1313
10094TIP3   OH251696   6.752   4.460   6.349  0.0914  0.1502  0.6752
10094TIP3    H151697   6.735   4.538   6.400  0.0052 -0.7609  2.0823
10094TIP3    H251698   6.672   4.408   6.355 -0.0077  0.1243 -0.5844
10095TIP3   OH251699   6.726   2.469   6.249  0.3433  0.1462 -0.0941
10095TIP3    H151700   6.651   2.437   6.198 -0.4059  1.3978  0.1667
10095TIP3    H251701   6.749   2.552   6.207  0.3372  0.7136  0.9898
10096TIP3   OH251702   0.918   0.795   0.122  0.1166 -0.4086 -0.1990
10096TIP3    H151703   0.993   0.738   0.103  0.2008 -0.1214 -0.7320
10096TIP3    H251704   0.956   0.872   0.164  0.2716  0.2659 -1.5184
10097TIP3   OH251705   0.547   0.679  16.092 -0.6012  0.9539  0.4462
10097TIP3    H151706   0.638   0.692  16.116 -0.6064 -0.6132  1.4284
10097TIP3    H251707   0.498   0.725  16.160 -0.5480  0.5242  0.7811
10098TIP3   OH251708   4.517   0.675   5.817  0.5395 -0.2243  0.0051
10098TIP3    H151709   4.489   0.714   5.900  0.8025  0.2960 -0.1412
10098TIP3    H251710   4.503   0.745   5.753  0.0690 -0.7236 -0.4355
10099TIP3   OH251711   4.286   1.083   5.657  0.6876  0.1373 -0.6054
10099TIP3    H151712   4.338   1.161   5.639  0.9019  0.6363  1.8566
10099TIP3    H251713   4.313   1.056   5.745  0.1407 -2.3480 -1.1085
10100TIP3   OH251714   5.362   1.690   1.037  0.1279  0.2784 -0.1644
10100TIP3    H151715   5.452   1.675   1.011  0.0460 -1.2779  0.3474
10100TIP3    H251716   5.339   1.614   1.090 -0.9276  1.4931  1.2125
10101TIP3   OH251717   1.425   6.776   2.717 -0.6452 -0.5147 -0.0666
10101TIP3    H151718   1.350   6.751   2.772 -0.7616 -0.7921 -0.3458
10101TIP3    H251719   1.479   6.697   2.712  1.0576  0.3978  2.3000
10102TIP3   OH251720   2.921   1.109  12.202 -0.4762  0.3917 -0.2062
10102TIP3    H151721   2.900   1.018  12.220 -1.2011  0.3317 -1.2290
10102TIP3    H251722   2.873   1.159  12.268  1.0467  0.0012  1.2539
10103TIP3   OH251723   5.370   6.371   2.169 -0.0436  0.1545 -0.2765
10103TIP3    H151724   5.430   6.303   2.200 -0.3456  0.4329  1.0161
10103TIP3    H251725   5.403   6.452   2.210 -0.4850  0.5408 -0.6800
10104TIP3   OH251726   3.854   3.585  17.131  0.4441 -0.1356  0.9703
10104TIP3    H151727   3.791   3.587  17.203  1.3012 -0.8869  1.7856
10104TIP3    H251728   3.930   3.539  17.168  1.0317 -0.2463 -0.3264
10105TIP3   OH251729   2.297   5.445   1.422  0.2098 -0.3739 -0.4024
10105TIP3    H151730   2.207   5.473   1.438 -0.1272 -1.7192  0.2642
10105TIP3    H251731   2.305   5.363   1.471  1.2680 -1.1814 -1.8360
10106TIP3   OH251732   4.094   4.838  17.236  0.1394  0.0836  0.2589
10106TIP3    H151733   4.018   4.858  17.290  0.2175 -0.2999  0.5109
10106TIP3    H251734   4.156   4.795  17.295  1.1837  1.7441  0.4395
10107TIP3   OH251735   0.116   3.118  17.230 -0.7709 -0.0970 -0.5620
10107TIP3    H151736   0.096   3.190  17.290  0.0075 -1.4655  1.4496
10107TIP3    H251737   0.156   3.051  17.286  0.2018 -1.3718 -2.6733
10108TIP3   OH251738   3.175   5.063  16.362  0.5967  0.3868 -0.6019
10108TIP3    H151739   3.168   4.968  16.356 -0.1871  0.3665  0.3150
10108TIP3    H251740   3.261   5.078  16.401  0.8838  0.0764 -1.1080
10109TIP3   OH251741   3.309   5.866  10.650  0.6250  0.5729  0.3610
10109TIP3    H151742   3.280   5.820  10.728  0.7580  0.1572  0.1678
10109TIP3    H251743   3.384   5.816  10.619 -0.8162 -0.6825 -1.3653
10110TIP3   OH251744   2.503   0.908   4.309  0.2567 -0.5115  0.0477
10110TIP3    H151745   2.550   0.977   4.262 -1.5583  1.5300  1.0205
10110TIP3    H251746   2.526   0.922   4.401 -1.4328 -0.0776  0.4319
10111TIP3   OH251747   4.587   0.520   5.075  0.7036  0.0994  0.2031
10111TIP3    H151748   4.515   0.464   5.104 -1.8105  3.3302  0.6490
10111TIP3    H251749   4.633   0.543   5.155 -0.8472  1.9396  0.6190
10112TIP3   OH251750   4.985   3.451  13.264  0.6289 -0.0475 -0.3279
10112TIP3    H151751   5.004   3.359  13.280 -0.7468 -0.0018  2.1248
10112TIP3    H251752   5.051   3.499  13.315  1.1261  0.3388 -1.3128
10113TIP3   OH251753   6.138   6.324  12.750 -0.3061 -0.2395  0.0329
10113TIP3    H151754   6.058   6.271  12.754 -1.4808  0.9776 -3.3450
10113TIP3    H251755   6.206   6.267  12.787 -2.2770 -2.2873  0.7633
10114TIP3   OH251756   2.476   3.344   1.600 -0.2580  0.4127  0.0148
10114TIP3    H151757   2.510   3.416   1.654 -1.5694 -0.3860  2.0258
10114TIP3    H251758   2.554   3.294   1.575  0.4012  0.6220  1.5251
10115TIP3   OH251759   2.692   0.783  14.053  0.2512  0.1851 -0.4151
10115TIP3    H151760   2.680   0.817  13.964 -0.3696  0.5693 -0.1900
10115TIP3    H251761   2.648   0.847  14.109 -1.4528 -1.2885 -0.0107
10116TIP3   OH251762   0.805   4.238   3.727  0.0847  0.3021  0.7579
10116TIP3    H151763   0.745   4.188   3.671  1.9907  0.0416 -1.1975
10116TIP3    H251764   0.768   4.231   3.815 -2.5620 -0.0642 -0.2948
10117TIP3   OH251765   1.408   0.399   2.233  0.2686 -0.5274  0.6066
10117TIP3    H151766   1.423   0.424   2.324 -2.3700  0.0525  0.9708
10117TIP3    H251767   1.415   0.303   2.233  1.3714 -0.4710  1.1418
10118TIP3   OH251768   5.315   0.548   0.356  1.3450 -0.4674  0.0872
10118TIP3    H151769   5.398   0.502   0.368  1.1513 -0.4028  1.9541
10118TIP3    H251770   5.337   0.641   0.368  0.8559 -0.5294  1.6347
10119TIP3   OH251771   3.089   5.345   1.558  0.2134  0.4765  0.4199
10119TIP3    H151772   3.175   5.343   1.600  0.2477 -3.0873  0.4698
10119TIP3    H251773   3.107   5.326   1.466 -0.5319 -1.6129  0.6563
10120TIP3   OH251774   6.312   2.671   4.386  0.3905 -0.1889 -0.3938
10120TIP3    H151775   6.270   2.722   4.456 -0.8254 -0.4174 -0.9333
10120TIP3    H251776   6.241   2.650   4.326  1.0481 -1.7278 -0.6651
10121TIP3   OH251777   1.369   0.259  16.779  0.4209 -0.1248 -0.6495
10121TIP3    H151778   1.288   0.219  16.746 -0.5404  0.5549  0.7481
10121TIP3    H251779   1.340   0.342  16.818  1.4834 -0.6714  1.4620
10122TIP3   OH251780   0.743   0.556   4.857  0.1029  0.1461 -1.1149
10122TIP3    H151781   0.765   0.465   4.878  0.9027  0.1421 -1.9182
10122TIP3    H251782   0.662   0.572   4.905  0.9070 -0.4131  0.5087
10123TIP3   OH251783   1.650   4.781   5.096  0.1190  0.3585  0.5287
10123TIP3    H151784   1.701   4.860   5.078 -0.4819  0.2626 -1.9936
10123TIP3    H251785   1.622   4.750   5.009 -1.3496 -1.4987  1.5838
10124TIP3   OH251786   0.661   5.377  14.299 -0.0634  0.1534 -0.1979
10124TIP3    H151787   0.617   5.460  14.318  1.8234  1.0317  0.5806
10124TIP3    H251788   0.654   5.327  14.380 -1.3485 -0.5634 -0.7199
10125TIP3   OH251789   0.371   6.270   4.826 -0.6319  0.0504  0.0751
10125TIP3    H151790   0.425   6.326   4.882 -2.4111  0.4129  1.5200
10125TIP3    H251791   0.426   6.253   4.749  1.0423  1.3968  0.9029
10126TIP3   OH251792   3.193   0.557   3.029 -0.0392 -0.6173 -0.2031
10126TIP3    H151793   3.269   0.589   3.077 -1.4358  1.9590  0.5023
10126TIP3    H251794   3.208   0.585   2.938 -1.0690  2.0752  0.3371
10127TIP3   OH251795   6.391   6.306   6.775  0.0358  0.0303 -0.0682
10127TIP3    H151796   6.463   6.350   6.820 -0.3831  0.8073 -0.1440
10127TIP3    H251797   6.313   6.334   6.821 -0.2346 -0.7494 -0.0362
10128TIP3   OH251798   5.020   0.299  16.141 -0.0244  0.2507 -0.2145
10128TIP3    H151799   5.098   0.261  16.183 -0.1418  0.4726  0.2036
10128TIP3    H251800   4.990   0.367  16.201  0.4017  1.2798 -1.1256
10129TIP3   OH251801   3.781   4.615  12.406 -0.4591  0.0398 -0.4818
10129TIP3    H151802   3.717   4.547  12.427  0.0329 -0.1814  0.3417
10129TIP3    H251803   3.790   4.666  12.486 -1.7317  1.8799 -1.4376
10130TIP3   OH251804   3.314   5.738  10.896  0.1183 -0.0821  0.2491
10130TIP3    H151805   3.325   5.653  10.939  0.1806 -0.3051 -0.1980
10130TIP3    H251806   3.243   5.781  10.944 -0.1905 -0.5551  0.2183
10131TIP3   OH251807   1.486   1.808   0.597  0.0257 -0.1459  0.1016
10131TIP3    H151808   1.478   1.737   0.534 -0.0363 -0.0528  0.0038
10131TIP3    H251809   1.574   1.843   0.583  0.3802 -0.7555  0.7384
10132TIP3   OH251810   2.374   5.180   1.175  0.5232 -0.0242  0.0354
10132TIP3    H151811   2.297   5.126   1.159 -0.2434  1.1635 -0.4088
10132TIP3    H251812   2.383   5.181   1.271  1.0062 -1.5335  0.0214
10133TIP3   OH251813   4.769   5.842   6.646 -0.1171  0.0943  0.0392
10133TIP3    H151814   4.853   5.815   6.610 -0.9752 -1.2501 -1.0993
10133TIP3    H251815   4.751   5.926   6.604  0.8003  0.5776  0.5802
10134TIP3   OH251816   2.258   6.115  13.905  0.2478 -0.2400  0.3665
10134TIP3    H151817   2.298   6.094  13.989  1.2152 -0.1350 -0.0572
10134TIP3    H251818   2.292   6.048  13.845  0.8929  0.6679 -0.3091
10135TIP3   OH251819   2.847   5.002   3.045 -0.3151 -0.3437 -0.4088
10135TIP3    H151820   2.922   5.061   3.052  0.9548 -2.0304  0.7199
10135TIP3    H251821   2.796   5.038   2.972  1.9214  0.4764 -1.6791
10136TIP3   OH251822   1.351   0.775   4.172 -0.1211  0.1771 -0.2065
10136TIP3    H151823   1.279   0.831   4.202  0.2079  0.4016  0.1761
10136TIP3    H251824   1.429   0.810   4.216  0.2426  0.0049 -0.6986
10137TIP3   OH251825   6.280   2.662  16.846 -0.5604  0.2459 -0.0887
10137TIP3    H151826   6.291   2.756  16.859 -0.6772  0.2141  0.2529
10137TIP3    H251827   6.314   2.645  16.758 -0.4900  0.5979 -0.1286
10138TIP3   OH251828   5.583   3.725  15.528  0.2702  0.0102  0.1409
10138TIP3    H151829   5.612   3.807  15.567 -0.2819  0.8232 -1.0839
10138TIP3    H251830   5.566   3.667  15.602  1.9185  0.5591  0.9812
10139TIP3   OH251831   0.512   5.240   0.852  0.0021 -1.0408 -0.6528
10139TIP3    H151832   0.487   5.323   0.810 -0.5351 -0.9306 -0.1225
10139TIP3    H251833   0.531   5.181   0.779 -2.0799 -1.2157 -1.1080
10140TIP3   OH251834   6.138   3.370   5.013  0.1962  0.3310 -0.7994
10140TIP3    H151835   6.229   3.343   5.028  0.2753  0.1580 -1.5379
10140TIP3    H251836   6.118   3.429   5.086  0.9488  0.4855 -0.7093
10141TIP3   OH251837   1.963   0.005   2.251 -0.4850 -0.3082 -0.3033
10141TIP3    H151838   1.934  -0.026   2.337 -1.4234 -0.1862 -0.5680
10141TIP3    H251839   1.884   0.008   2.198  0.0321 -0.0719 -1.0875
10142TIP3   OH251840   2.769   4.070  11.990  0.4602 -0.3464  0.5932
10142TIP3    H151841   2.739   4.060  12.080 -0.2845  0.8439  0.4906
10142TIP3    H251842   2.770   4.164  11.975 -1.8716 -0.5616 -1.4311
10143TIP3   OH251843   5.567   0.924   5.350 -0.0475  0.3336  0.1685
10143TIP3    H151844   5.599   1.013   5.362  0.8077  0.0081  0.3482
10143TIP3    H251845   5.497   0.915   5.414 -0.5424  1.0594 -0.2435
10144TIP3   OH251846   3.600   4.908   0.057  0.1588  0.1045 -0.2212
10144TIP3    H151847   3.631   4.981   0.111  1.2023  0.6402 -1.4911
10144TIP3    H251848   3.520   4.941   0.016 -0.0964  0.0502  0.2297
10145TIP3   OH251849   0.415   5.917  15.813  0.0349  0.3022  0.2686
10145TIP3    H151850   0.475   5.852  15.776 -1.5345 -1.3627  0.5140
10145TIP3    H251851   0.382   5.964  15.736  1.6631  1.3131  0.1366
10146TIP3   OH251852   3.633   5.643  12.484 -0.1307  0.1601 -0.1574
10146TIP3    H151853   3.606   5.583  12.415  1.2145 -1.5103  0.7117
10146TIP3    H251854   3.642   5.728  12.440 -1.5187 -0.3518 -1.5226
10147TIP3   OH251855   4.289   1.901   2.523  0.3569 -0.0527 -0.4613
10147TIP3    H151856   4.364   1.888   2.581 -0.2928 -0.9577  0.2043
10147TIP3    H251857   4.303   1.840   2.450  0.5222  0.1491 -0.5992
10148TIP3   OH251858   5.171   3.831  17.079  0.2453 -0.2304  0.2573
10148TIP3    H151859   5.090   3.786  17.100 -0.1949 -1.4094 -3.2286
10148TIP3    H251860   5.144   3.919  17.052  0.8167  1.3397  4.1258
10149TIP3   OH251861   3.051   1.112  13.964  0.1942  0.0518 -0.0131
10149TIP3    H151862   3.123   1.134  13.905  1.9935 -0.4688  1.8681
10149TIP3    H251863   3.029   1.022  13.942 -0.0030  0.2649 -0.7052
10150TIP3   OH251864   4.991   2.147   5.500 -0.1068 -0.7095 -0.4395
10150TIP3    H151865   4.972   2.238   5.525 -1.6071 -1.1192 -0.0130
10150TIP3    H251866   5.087   2.142   5.499  0.0948  1.4325 -2.4993
10151TIP3   OH251867   6.635   3.386  15.555  0.4328 -0.0732  0.0605
10151TIP3    H151868   6.569   3.453  15.534  1.2299  0.7351  0.0746
10151TIP3    H251869   6.648   3.394  15.650  0.6712 -0.1076  0.0317
10152TIP3   OH251870   2.775   2.271  14.591  0.1134 -0.3962  0.3849
10152TIP3    H151871   2.794   2.355  14.633  0.9330 -0.7926  0.8252
10152TIP3    H251872   2.691   2.285  14.547  0.2667  0.6690  0.4056
10153TIP3   OH251873   0.674   5.003  17.209 -0.0233 -0.2780 -0.3240
10153TIP3    H151874   0.592   5.046  17.185  0.9118  1.4481 -0.5571
10153TIP3    H251875   0.649   4.913  17.229 -2.1891  0.5366  0.9039
10154TIP3   OH251876   0.708   4.166   0.168 -0.1103  0.0228 -0.3199
10154TIP3    H151877   0.727   4.082   0.210 -1.0764  0.2331  0.6049
10154TIP3    H251878   0.693   4.226   0.242  1.1409  1.1665 -0.9516
10155TIP3   OH251879   2.307   6.205   1.118 -0.8583 -0.1620  0.3866
10155TIP3    H151880   2.314   6.110   1.113  2.6919 -0.1873  2.4709
10155TIP3    H251881   2.216   6.221   1.143 -1.4677 -3.0036  0.3326
10156TIP3   OH251882   2.386   6.265  14.540 -0.0074 -0.8337  0.1357
10156TIP3    H151883   2.368   6.202  14.609 -0.6945 -1.3270 -0.4782
10156TIP3    H251884   2.309   6.322  14.539 -1.7545 -3.0108 -2.5720
10157TIP3   OH251885   3.474   0.580   5.686  0.5078  0.6162  0.4810
10157TIP3    H151886   3.513   0.667   5.682  0.4630  0.6281  0.2957
10157TIP3    H251887   3.463   0.562   5.780  0.5775  0.7821  0.5201
10158TIP3   OH251888   5.594   4.284   3.963 -0.5490  0.1862 -0.2010
10158TIP3    H151889   5.568   4.226   3.891 -0.4008  1.3320 -1.2075
10158TIP3    H251890   5.645   4.353   3.921 -0.1289  0.6817  1.0692
10159TIP3   OH251891   3.906   2.194  11.341  0.0243  0.0355  0.5620
10159TIP3    H151892   3.886   2.177  11.249  1.2017  0.5819  0.1860
10159TIP3    H251893   3.859   2.275  11.360  0.5256  0.4300  0.1576
10160TIP3   OH251894   5.580   4.043   2.142  0.0379 -0.2775 -0.1070
10160TIP3    H151895   5.661   4.046   2.091  0.5769 -1.4391  0.6397
10160TIP3    H251896   5.561   3.950   2.151 -0.7314 -0.0545  0.7441
10161TIP3   OH251897   3.287   2.109  11.197 -0.7336 -0.2210  0.7855
10161TIP3    H151898   3.191   2.103  11.195 -0.7773  0.4099 -1.4037
10161TIP3    H251899   3.306   2.197  11.165  0.5966 -1.2284 -1.3848
10162TIP3   OH251900   4.608   4.131  17.032 -0.1416  0.1848 -0.3937
10162TIP3    H151901   4.562   4.094  16.956  0.6687 -0.7082 -0.4685
10162TIP3    H251902   4.544   4.127  17.103  0.3292 -2.7830 -0.0243
10163TIP3   OH251903   5.369   5.751   6.880  0.4436  0.7051 -0.2200
10163TIP3    H151904   5.290   5.801   6.862  0.6060  1.1439  0.2376
10163TIP3    H251905   5.441   5.811   6.860  0.6977 -0.0652 -1.7155
10164TIP3   OH251906   1.391   0.254   3.595 -0.5059 -0.2764  0.1727
10164TIP3    H151907   1.367   0.161   3.597 -0.3232 -0.3321 -0.0204
10164TIP3    H251908   1.376   0.285   3.684  1.8526 -1.1321  0.9629
10165TIP3   OH251909   3.681   0.544   4.628 -0.0000 -0.5404  0.4461
10165TIP3    H151910   3.754   0.604   4.611  0.2707 -0.8573  0.4837
10165TIP3    H251911   3.604   0.601   4.633  0.5767  0.1251  2.9490
10166TIP3   OH251912   4.078   6.697  11.934 -0.2735  0.0684  0.2470
10166TIP3    H151913   4.014   6.760  11.968  0.9714  1.1681  0.6168
10166TIP3    H251914   4.036   6.663  11.855 -2.0629 -0.5640  1.3996
10167TIP3   OH251915   1.311   1.130   0.528  0.5531 -0.4221  0.3780
10167TIP3    H151916   1.278   1.122   0.438 -0.7345  0.5151  0.7359
10167TIP3    H251917   1.284   1.049   0.571 -0.9043  0.1001  0.5192
10168TIP3   OH251918   0.506   1.841  14.273  0.3683 -0.0476 -0.4511
10168TIP3    H151919   0.470   1.807  14.355  0.1312  1.3851  0.0806
10168TIP3    H251920   0.502   1.936  14.283  2.1211  0.1665 -1.3507
10169TIP3   OH251921   1.296   5.590  11.654  0.0401  0.4914 -0.7552
10169TIP3    H151922   1.381   5.599  11.611 -0.5526 -1.5228 -2.5129
10169TIP3    H251923   1.317   5.581  11.747  2.1570 -3.5321 -1.4196
10170TIP3   OH251924   3.076   4.270   1.147  0.3687  0.2990 -0.1222
10170TIP3    H151925   3.031   4.311   1.221  1.6022 -0.0833  0.8727
10170TIP3    H251926   3.037   4.311   1.070 -1.1560  0.5072  0.7089
10171TIP3   OH251927   4.945   1.626  12.680  0.1148  0.2707 -0.4822
10171TIP3    H151928   4.858   1.649  12.647 -0.1894  2.3596  1.4999
10171TIP3    H251929   4.929   1.563  12.750  0.1141  0.9849  0.1790
10172TIP3   OH251930   4.391   6.495  14.874  0.0769 -0.3740 -0.1315
10172TIP3    H151931   4.415   6.579  14.913 -0.6333 -0.5771  0.7671
10172TIP3    H251932   4.442   6.430  14.922 -0.1707 -0.5543 -0.1125
10173TIP3   OH251933   5.693   1.924   1.284 -0.0838 -0.1539  0.4094
10173TIP3    H151934   5.619   1.985   1.281  0.4431  0.4589 -0.7418
10173TIP3    H251935   5.736   1.935   1.200  0.6213 -1.3890  0.5931
10174TIP3   OH251936   2.024   0.936  10.690 -0.3099 -0.2162 -0.6404
10174TIP3    H151937   1.998   1.022  10.724  1.0653  0.1087 -0.3357
10174TIP3    H251938   2.032   0.949  10.595  0.3479  0.1481 -0.5482
10175TIP3   OH251939   3.745   0.395   0.633 -0.3028  0.1756 -0.3049
10175TIP3    H151940   3.734   0.455   0.706  0.8864  1.0012 -0.7600
10175TIP3    H251941   3.759   0.452   0.557 -1.1541 -0.6601 -1.1232
10176TIP3   OH251942   5.348   1.199  15.086  0.0535  0.1538 -0.5890
10176TIP3    H151943   5.287   1.147  15.139 -0.7357 -0.0290 -1.6400
10176TIP3    H251944   5.395   1.252  15.149 -1.0580  0.1501  0.2810
10177TIP3   OH251945   3.548   6.747  15.205  0.3466  0.6007 -0.1586
10177TIP3    H151946   3.499   6.781  15.130  1.3033  1.9362 -0.1996
10177TIP3    H251947   3.486   6.689  15.249 -0.4701  0.3651 -1.5605
10178TIP3   OH251948   4.665   6.734  14.414 -0.1958 -0.1744 -0.2215
10178TIP3    H151949   4.750   6.751  14.454 -1.5663 -1.3093  3.5753
10178TIP3    H251950   4.667   6.640  14.395 -0.0680  0.1032 -1.6871
10179TIP3   OH251951   3.102   5.741   2.461  0.0084  0.4756  0.1954
10179TIP3    H151952   3.194   5.714   2.460  0.0684  0.6778  0.4525
10179TIP3    H251953   3.087   5.774   2.549 -0.5377 -0.3306  0.4219
10180TIP3   OH251954   6.385   5.937   1.663 -0.5864  0.0574  0.0677
10180TIP3    H151955   6.356   5.946   1.753 -2.0516 -1.6058 -0.1747
10180TIP3    H251956   6.440   6.013   1.647  2.0932 -0.9771  3.2271
10181TIP3   OH251957   3.138   4.709  13.723 -0.0558 -0.1409  0.2977
10181TIP3    H151958   3.102   4.639  13.668 -1.3044 -0.1299  1.0607
10181TIP3    H251959   3.090   4.700  13.806  1.3774  0.1924  1.1918
10182TIP3   OH251960   3.839   5.160  11.692 -0.0199  0.2981  0.3171
10182TIP3    H151961   3.852   5.254  11.687 -0.8072  0.4117  0.3000
10182TIP3    H251962   3.746   5.149  11.716 -0.0171 -0.4704  0.0225
10183TIP3   OH251963   4.341   5.496  12.817 -0.9135 -0.7443 -0.0605
10183TIP3    H151964   4.419   5.448  12.789  0.3211  0.2252  1.5032
10183TIP3    H251965   4.345   5.495  12.913 -3.2369 -1.2707  0.0954
10184TIP3   OH251966   5.808   1.247  13.861 -0.9459  0.0633 -0.2252
10184TIP3    H151967   5.858   1.328  13.869 -1.5964  0.3240  2.2775
10184TIP3    H251968   5.859   1.183  13.911  0.4616 -1.6726 -3.5617
10185TIP3   OH251969   5.788   5.713  15.923  0.0964  0.5151  0.0805
10185TIP3    H151970   5.811   5.729  15.831  0.7893 -0.1517  0.1272
10185TIP3    H251971   5.863   5.745  15.972  0.5417 -0.7746  0.2961
10186TIP3   OH251972   4.145   0.591  15.615 -0.4667  0.4864 -0.8660
10186TIP3    H151973   4.136   0.517  15.674 -1.1889  0.0992 -1.4514
10186TIP3    H251974   4.240   0.606  15.609 -0.3969  0.7614  0.6462
10187TIP3   OH251975   2.564   2.464   0.064 -0.1466 -0.1997 -0.4161
10187TIP3    H151976   2.581   2.451  -0.029  0.2655 -0.4429 -0.3122
10187TIP3    H251977   2.597   2.384   0.106  1.2291  0.6006  0.1087
10188TIP3   OH251978   5.909   0.161   3.545  0.1625 -0.1700 -0.7004
10188TIP3    H151979   5.878   0.136   3.458 -0.6653 -1.3284 -0.1031
10188TIP3    H251980   5.841   0.218   3.580 -0.5684 -1.3996 -0.0259
10189TIP3   OH251981   5.063   3.453  14.799  0.5854 -0.0730  0.1242
10189TIP3    H151982   5.092   3.419  14.884 -0.0452 -2.3929 -0.5137
10189TIP3    H251983   5.144   3.473  14.753  0.9396  1.0804  1.1958
10190TIP3   OH251984   2.068   0.611  15.429 -0.4988 -0.4844  0.1957
10190TIP3    H151985   1.998   0.653  15.379  1.0525 -0.3904 -2.0140
10190TIP3    H251986   2.050   0.517  15.423 -1.0092 -0.4158  0.5702
10191TIP3   OH251987   2.407   4.760   2.027  0.7271  0.0534 -0.0943
10191TIP3    H151988   2.381   4.681   1.980  2.4309 -0.3708 -0.3917
10191TIP3    H251989   2.365   4.831   1.979 -1.3876 -0.6540  0.5633
10192TIP3   OH251990   5.290   1.576  16.927 -0.4093  0.1117  0.4955
10192TIP3    H151991   5.275   1.670  16.930  0.7072  0.4428 -1.7007
10192TIP3    H251992   5.214   1.541  16.879  0.6160  0.3863 -1.4512
10193TIP3   OH251993   6.615   0.360  16.511 -0.4867  0.1683 -0.2653
10193TIP3    H151994   6.589   0.268  16.517  0.8440 -0.1190  3.0689
10193TIP3    H251995   6.559   0.396  16.442 -1.1390 -3.0598 -1.6221
10194TIP3   OH251996   4.330   6.395  16.885  0.4560  0.0909 -0.3761
10194TIP3    H151997   4.299   6.353  16.966  2.7348  1.0711  1.1265
10194TIP3    H251998   4.367   6.323  16.834 -0.4558 -0.4557 -0.2920
10195TIP3   OH251999   2.603   3.944   1.774  0.5400 -0.3745  0.4394
10195TIP3    H152000   2.694   3.964   1.750 -0.2398  1.2028 -1.4045
10195TIP3    H252001   2.577   4.017   1.831  0.1013 -0.2582  0.0908
10196TIP3   OH252002   2.720   2.744   3.921  0.1052  0.0140 -0.2205
10196TIP3    H152003   2.677   2.821   3.883 -2.6209 -0.1243  2.2012
10196TIP3    H252004   2.667   2.670   3.890 -0.3762 -0.3491  1.3510
10197TIP3   OH252005   0.478   2.397  13.020  0.4932 -0.4933  0.1594
10197TIP3    H152006   0.483   2.480  12.971  0.2312 -1.1475 -1.0295
10197TIP3    H252007   0.569   2.371  13.033  0.5987  0.3372  1.1976
10198TIP3   OH252008   0.848   4.970   0.582  0.1765 -0.0585 -0.0889
10198TIP3    H152009   0.928   4.964   0.635  0.5214 -1.4904 -0.7070
10198TIP3    H252010   0.859   4.901   0.516 -1.0050  0.5742 -0.9676
10199TIP3   OH252011   2.965   2.809   4.580  0.4287 -0.1324 -0.1139
10199TIP3    H152012   2.893   2.824   4.518 -0.8489 -0.5417  1.2233
10199TIP3    H252013   2.958   2.881   4.643  2.2065  0.7291 -0.8135
10200TIP3   OH252014   4.336   5.358  16.803  0.1311  0.1945 -0.5793
10200TIP3    H152015   4.311   5.393  16.888  2.0610 -1.3720  0.7158
10200TIP3    H252016   4.285   5.278  16.794  1.0537 -0.4598 -0.1447
10201TIP3   OH252017   1.597   6.145   1.301  0.1451 -0.3216 -0.4289
10201TIP3    H152018   1.592   6.240   1.314 -0.3361 -0.3121 -0.6501
10201TIP3    H252019   1.527   6.110   1.356  0.0444 -0.5133 -0.6779
10202TIP3   OH252020   3.261   1.309   2.354  0.0118  0.4599  0.2760
10202TIP3    H152021   3.237   1.383   2.299 -0.4846  0.7383  0.8610
10202TIP3    H252022   3.228   1.331   2.441 -0.9328 -0.8190  0.2815
10203TIP3   OH252023   3.999   3.354  13.465  0.2661  0.3363  0.4838
10203TIP3    H152024   3.922   3.305  13.435  0.4014 -0.0715  0.7986
10203TIP3    H252025   3.963   3.437  13.498 -0.1784 -0.3205  1.7214
10204TIP3   OH252026   5.394   2.035  15.904 -0.3191  0.3868 -0.0577
10204TIP3    H152027   5.339   1.956  15.907 -0.9282  0.8219  1.1787
10204TIP3    H252028   5.413   2.054  15.996 -0.0129  1.5563 -0.3453
10205TIP3   OH252029   4.366   4.144  12.517  0.6951 -0.5874 -0.5189
10205TIP3    H152030   4.460   4.134  12.502  1.3699 -0.1302  2.6245
10205TIP3    H252031   4.356   4.236  12.544 -0.3957 -0.9620  0.4628
10206TIP3   OH252032   4.667   2.525  10.855  0.0967  0.2862 -0.3601
10206TIP3    H152033   4.594   2.500  10.798  0.5839 -0.1438 -0.8104
10206TIP3    H252034   4.632   2.516  10.944 -0.1885 -0.6159 -0.5540
10207TIP3   OH252035   3.157   3.439  11.547 -0.1112  0.3250 -0.0886
10207TIP3    H152036   3.140   3.374  11.479  0.2107  0.2565 -0.1050
10207TIP3    H252037   3.138   3.523  11.505 -2.9628  0.1629  0.6403
10208TIP3   OH252038   0.198   2.155   1.778 -0.4931 -0.0205 -0.2395
10208TIP3    H152039   0.253   2.126   1.705 -0.2671 -1.0247  0.3159
10208TIP3    H252040   0.158   2.237   1.747 -0.7731 -0.6720 -1.6636
10209TIP3   OH252041   0.057   4.745   2.757 -0.1123 -0.1880 -0.1680
10209TIP3    H152042  -0.011   4.803   2.722  0.2324  0.3718  0.0814
10209TIP3    H252043   0.010   4.665   2.781 -0.5278 -0.1828 -0.9125
10210TIP3   OH252044   4.828   4.258  10.553  0.1200  0.0679  0.0738
10210TIP3    H152045   4.908   4.296  10.587 -0.3725  0.0073  1.3520
10210TIP3    H252046   4.833   4.165  10.576 -0.6280  0.1949  0.8215
10211TIP3   OH252047   5.455   5.104  15.465  0.2139  0.2357 -0.0581
10211TIP3    H152048   5.402   5.051  15.406 -0.2952  0.4519  0.1956
10211TIP3    H252049   5.398   5.177  15.489  1.5378  2.0117 -1.9448
10212TIP3   OH252050   3.638   2.877  10.896  1.0104  0.0268 -0.1897
10212TIP3    H152051   3.551   2.838  10.905  0.3330  1.2214 -1.2606
10212TIP3    H252052   3.637   2.952  10.955  0.3631  1.5348 -2.0101
10213TIP3   OH252053   6.578   1.382  11.896  0.0634  0.2539  0.2825
10213TIP3    H152054   6.513   1.399  11.827  0.3645  0.8916  0.1470
10213TIP3    H252055   6.547   1.433  11.971  0.6870  1.0087  0.0445
10214TIP3   OH252056   5.949   3.563   2.452 -0.0174  0.2331 -0.1314
10214TIP3    H152057   5.975   3.643   2.407  0.2527  0.6126  0.6946
10214TIP3    H252058   5.857   3.552   2.429 -0.2693  1.2027  0.3702
10215TIP3   OH252059   5.478   5.661  14.409 -0.5735  0.2702  0.3843
10215TIP3    H152060   5.382   5.660  14.411 -0.6084 -1.9805  0.8450
10215TIP3    H252061   5.501   5.751  14.389 -2.8047  0.6418 -0.7957
10216TIP3   OH252062   0.886   2.628  13.519 -0.3194 -0.2502 -0.2726
10216TIP3    H152063   0.968   2.676  13.513 -0.2352 -0.4653 -0.9852
10216TIP3    H252064   0.907   2.542  13.483 -1.0020 -0.1113 -1.0235
10217TIP3   OH252065   5.914   3.056  15.866  0.6924 -0.1896  0.1460
10217TIP3    H152066   5.900   3.101  15.783  0.6161  0.0857  0.3089
10217TIP3    H252067   6.004   3.076  15.890  0.0602  1.5189  1.2094
10218TIP3   OH252068   2.278   4.480  16.985  0.1907 -0.0439 -0.1565
10218TIP3    H152069   2.360   4.521  17.015 -1.3921  1.7214  2.1038
10218TIP3    H252070   2.232   4.550  16.939  0.0158 -1.1185 -1.6994
10219TIP3   OH252071   2.074   0.459  13.745  0.5180 -0.2066  0.5484
10219TIP3    H152072   2.107   0.412  13.669  0.1928  0.6114 -0.1201
10219TIP3    H252073   2.039   0.541  13.709  2.1112  1.0866  1.7698
10220TIP3   OH252074   4.204   0.653   5.439 -0.7957 -0.6633 -0.1005
10220TIP3    H152075   4.284   0.600   5.447 -0.1862  0.0275 -1.3681
10220TIP3    H252076   4.153   0.609   5.371 -1.4963 -1.0612  0.6579
10221TIP3   OH252077   4.937   6.509  13.620  0.0967 -0.0890 -0.0959
10221TIP3    H152078   4.873   6.438  13.626 -0.0208 -0.1750 -2.0383
10221TIP3    H252079   4.914   6.556  13.540  0.9804  1.3618  0.4709
10222TIP3   OH252080   5.883   3.721   5.174 -0.3718 -0.2379 -0.0414
10222TIP3    H152081   5.788   3.729   5.163 -0.6368 -3.0386 -0.5007
10222TIP3    H252082   5.896   3.710   5.268 -0.6658 -1.0367 -0.0832
10223TIP3   OH252083   0.829   1.103   1.097 -0.4989  0.0488  0.6133
10223TIP3    H152084   0.829   1.024   1.152 -1.8340  0.7518  1.6611
10223TIP3    H252085   0.834   1.176   1.159 -1.9351  0.8616 -0.1740
10224TIP3   OH252086   1.915   4.009  15.482  0.2485  0.0038  0.4668
10224TIP3    H152087   1.967   4.035  15.558  2.4352 -3.7026  0.4541
10224TIP3    H252088   1.959   4.050  15.408 -0.1921  1.3104  0.8974
10225TIP3   OH252089   5.338   2.650   0.214 -0.4459 -0.1551 -0.0221
10225TIP3    H152090   5.359   2.674   0.124 -0.0348  0.1559  0.1544
10225TIP3    H252091   5.259   2.699   0.235  0.3969  1.0843  0.3444
10226TIP3   OH252092   4.259   4.643  15.624  0.7349  0.9974 -0.2807
10226TIP3    H152093   4.316   4.592  15.681  0.7552  0.6176 -0.6338
10226TIP3    H252094   4.187   4.672  15.680  0.3590 -0.0105 -0.2253
10227TIP3   OH252095   1.341   0.319   5.651  0.3697  0.0816 -0.0350
10227TIP3    H152096   1.418   0.263   5.645  0.4692  0.1817  0.2710
10227TIP3    H252097   1.270   0.260   5.673  0.2333 -0.1059 -0.9375
10228TIP3   OH252098   1.559   6.513  14.211 -0.3495 -0.2273 -0.2498
10228TIP3    H152099   1.644   6.471  14.222 -0.3562 -0.3342 -0.5979
10228TIP3    H252100   1.506   6.450  14.162 -1.1386 -0.8136  1.2918
10229TIP3   OH252101   3.364   3.586   1.691  0.1161  0.3903  0.1192
10229TIP3    H152102   3.393   3.671   1.657  1.6708 -0.3155 -0.4329
10229TIP3    H252103   3.361   3.529   1.614 -0.3042 -0.2106  0.5696
10230TIP3   OH252104   2.161   6.654   4.950  0.5528  0.5605  0.2759
10230TIP3    H152105   2.104   6.700   5.012 -0.6346 -0.1996 -0.2116
10230TIP3    H252106   2.102   6.596   4.902  1.9192 -1.0650  0.4919
10231TIP3   OH252107   5.598   2.347   2.772 -0.0125 -0.5741 -0.2554
10231TIP3    H152108   5.668   2.350   2.838 -0.6685  0.1890  0.4352
10231TIP3    H252109   5.525   2.305   2.818 -1.2516  2.0328  0.3108
10232TIP3   OH252110   3.613   1.131   6.404  0.1689 -0.8009  0.1506
10232TIP3    H152111   3.691   1.075   6.400 -0.8180 -2.1908 -0.7530
10232TIP3    H252112   3.628   1.197   6.337  0.4286 -1.2680 -0.2659
10233TIP3   OH252113   0.813   3.552  12.942  0.2413 -0.3554  0.4408
10233TIP3    H152114   0.849   3.465  12.927 -1.6806 -0.7078 -3.0789
10233TIP3    H252115   0.809   3.593  12.856 -2.0943  1.8883  1.4564
10234TIP3   OH252116   3.891   3.657  13.564 -0.0923 -0.3842  0.8242
10234TIP3    H152117   3.903   3.748  13.589 -0.0752  0.8877 -3.1299
10234TIP3    H252118   3.814   3.628  13.613  0.1373  1.5714  2.4572
10235TIP3   OH252119   1.924   5.493   1.613  0.1755 -0.3288  0.0111
10235TIP3    H152120   1.830   5.480   1.604 -0.1268  0.1800  1.9725
10235TIP3    H252121   1.963   5.426   1.557 -1.3506 -1.9513  0.7995
10236TIP3   OH252122   1.854   1.519  15.683  0.4208 -0.2914 -0.3950
10236TIP3    H152123   1.939   1.547  15.649  0.3889 -1.5288 -1.5743
10236TIP3    H252124   1.793   1.584  15.649  0.4299 -1.3288 -2.5790
10237TIP3   OH252125   3.994   4.262   2.078  0.3028 -0.3896 -0.0140
10237TIP3    H152126   4.021   4.351   2.055  2.1777 -0.2384  2.4423
10237TIP3    H252127   4.069   4.225   2.124 -1.7819 -1.9255  2.3942
10238TIP3   OH252128   1.243   2.394  15.791 -0.0177 -0.1502  0.0599
10238TIP3    H152129   1.255   2.439  15.707  1.6771 -1.1189 -0.2634
10238TIP3    H252130   1.253   2.464  15.856 -0.1722  0.4126 -0.5055
10239TIP3   OH252131   0.909   4.905  17.063 -0.7395  0.0782  0.6090
10239TIP3    H152132   0.835   4.957  17.097  0.2856  1.1277  1.3171
10239TIP3    H252133   0.932   4.846  17.135 -0.1967  0.5152  0.7974
10240TIP3   OH252134   6.203   5.572  16.973 -0.3945 -0.1265 -0.1040
10240TIP3    H152135   6.132   5.582  16.910 -0.8640  0.7255  0.5366
10240TIP3    H252136   6.175   5.624  17.049 -0.0577 -1.4682  0.9809
10241TIP3   OH252137   1.161   4.097   1.343 -0.0623  0.1494  0.5769
10241TIP3    H152138   1.243   4.048   1.340 -0.4136 -0.7089  2.8865
10241TIP3    H252139   1.135   4.095   1.435 -1.5943  2.2370  0.2674
10242TIP3   OH252140   6.109   0.970  12.158  0.1968 -0.2088  0.2894
10242TIP3    H152141   6.110   1.006  12.069  0.1833 -0.6609  0.1020
10242TIP3    H252142   6.159   1.032  12.210 -1.0475  0.8415  0.2723
10243TIP3   OH252143   5.017   3.274   3.293 -0.0720 -0.0049  0.1749
10243TIP3    H152144   5.025   3.197   3.237  0.6143 -0.6960  1.1700
10243TIP3    H252145   4.963   3.245   3.366 -1.6276  1.1150 -0.4868
10244TIP3   OH252146   2.408   1.453  16.834 -0.4862 -0.1127  0.3473
10244TIP3    H152147   2.480   1.399  16.867  0.6110  0.6635 -0.6840
10244TIP3    H252148   2.381   1.506  16.909 -0.9448 -1.3756  1.1178
10245TIP3   OH252149   2.665   4.746  12.394 -0.0996  0.2659  0.1744
10245TIP3    H152150   2.750   4.768  12.431 -1.3633  1.0477  2.8679
10245TIP3    H252151   2.644   4.661  12.432  0.2928 -0.9115 -2.0855
10246TIP3   OH252152   5.767   4.093  11.699 -0.3709 -0.1069  0.1695
10246TIP3    H152153   5.854   4.058  11.721 -1.2632 -1.6457  1.4814
10246TIP3    H252154   5.721   4.019  11.658 -0.2124  1.4803 -3.2223
10247TIP3   OH252155   6.291   3.961   0.658 -0.6420 -1.3417  0.5767
10247TIP3    H152156   6.345   3.981   0.734 -0.6568  1.3936 -0.0227
10247TIP3    H252157   6.321   3.875   0.629 -0.0253 -2.0572  3.0973
10248TIP3   OH252158   0.637   2.752   3.809 -0.2199  0.0970 -0.2189
10248TIP3    H152159   0.657   2.680   3.749  0.5657 -0.6894  0.9521
10248TIP3    H252160   0.581   2.713   3.875 -0.4264  0.7642  0.0067
10249TIP3   OH252161   5.150   3.276  11.678  0.4017  0.4501  0.2208
10249TIP3    H152162   5.179   3.333  11.606 -2.0906  2.5643  0.7356
10249TIP3    H252163   5.139   3.336  11.752 -0.9891 -0.9571  1.2050
10250TIP3   OH252164   2.738   4.518  11.724 -0.0472  0.1081  0.5293
10250TIP3    H152165   2.648   4.525  11.692 -0.8948 -1.0504  2.4628
10250TIP3    H252166   2.754   4.601  11.770 -0.2884  0.1429  0.5515
10251TIP3   OH252167   0.299   1.708  15.445 -0.1681 -0.4136  0.4470
10251TIP3    H152168   0.376   1.677  15.493  0.4117  0.4247  0.0952
10251TIP3    H252169   0.277   1.791  15.487 -0.3762 -0.2499  0.0163
10252TIP3   OH252170   1.525   5.974   6.121 -0.6046  0.6701 -1.0978
10252TIP3    H152171   1.439   5.956   6.082 -1.1607  2.9385 -1.0444
10252TIP3    H252172   1.510   6.045   6.183  0.9858 -0.2312  0.4268
10253TIP3   OH252173   3.781   5.390  10.533 -0.7991  0.0196  0.6805
10253TIP3    H152174   3.766   5.322  10.598  1.4780 -2.3038 -0.9896
10253TIP3    H252175   3.710   5.380  10.470 -0.9605 -0.2037  0.8973
10254TIP3   OH252176   5.713   4.480  14.668  0.3941 -0.5036 -0.2890
10254TIP3    H152177   5.632   4.525  14.692  0.3526 -1.0750  0.6976
10254TIP3    H252178   5.755   4.538  14.604 -0.2078  0.3806  0.1014
10255TIP3   OH252179   4.400   6.481  15.271  0.5598  0.2140 -0.7832
10255TIP3    H152180   4.456   6.454  15.198  1.3681 -0.9444  0.2085
10255TIP3    H252181   4.314   6.445  15.250  0.9818 -0.8239 -0.7906
10256TIP3   OH252182   2.009   5.927  12.616  0.1668  0.2113 -0.1528
10256TIP3    H152183   1.921   5.913  12.650  0.5774  1.1357  1.3626
10256TIP3    H252184   2.056   5.847  12.639 -0.4567 -0.6773 -1.7614
10257TIP3   OH252185   4.084   4.792  13.756  1.0864  0.6504 -0.2583
10257TIP3    H152186   4.153   4.731  13.732  1.2048  0.5932  0.2205
10257TIP3    H252187   4.116   4.878  13.729  0.8697  0.4926 -1.0408
10258TIP3   OH252188   0.871   6.538   1.660 -0.2112 -0.1252  0.1356
10258TIP3    H152189   0.837   6.535   1.750 -1.3964 -0.9868 -0.3183
10258TIP3    H252190   0.862   6.449   1.628 -0.5164  0.3360 -1.1050
10259TIP3   OH252191   5.504   5.139  14.436 -0.0154  0.1307 -0.0350
10259TIP3    H152192   5.490   5.232  14.455 -2.7695 -0.2282  0.1639
10259TIP3    H252193   5.586   5.118  14.480  0.6278  2.4379  0.0138
10260TIP3   OH252194   6.148   2.241  12.681  0.0138 -0.4950 -0.2335
10260TIP3    H152195   6.229   2.286  12.705 -0.7353  0.0118  1.4965
10260TIP3    H252196   6.158   2.153  12.719 -0.1028 -0.5357 -0.2997
10261TIP3   OH252197   4.018   6.565   1.573 -0.3487  0.3034  0.6874
10261TIP3    H152198   4.088   6.613   1.616  0.3195  1.3028 -1.3719
10261TIP3    H252199   4.011   6.605   1.486  0.1635 -3.2044 -1.1589
10262TIP3   OH252200   2.077   3.831   2.475 -0.7404 -0.1419  0.5620
10262TIP3    H152201   2.032   3.826   2.390 -1.6611 -1.5506  1.1009
10262TIP3    H252202   2.136   3.906   2.466 -0.5654 -0.4598 -1.4355
10263TIP3   OH252203   3.878   5.993   5.724  0.8216  0.9400  0.2018
10263TIP3    H152204   3.784   5.980   5.722  0.9555 -0.0468 -0.4961
10263TIP3    H252205   3.891   6.085   5.704  0.0167  1.0564  0.2118
10264TIP3   OH252206   5.938   2.284  11.266  0.1941  0.4074  0.2303
10264TIP3    H152207   5.968   2.237  11.188  1.3667  0.2449  0.7708
10264TIP3    H252208   5.985   2.244  11.339  0.6664  1.9134  0.7945
10265TIP3   OH252209   2.367   0.696   4.385  0.0928  0.5484  0.8206
10265TIP3    H152210   2.446   0.726   4.339  0.0353 -0.8437 -0.2413
10265TIP3    H252211   2.371   0.740   4.470  1.6501  1.0493  0.5182
10266TIP3   OH252212   1.480   3.783   3.010  0.0890  0.0322 -0.0655
10266TIP3    H152213   1.528   3.835   3.075 -0.5503 -1.2798  1.5186
10266TIP3    H252214   1.507   3.693   3.027 -0.8925 -0.4427 -0.9576
10267TIP3   OH252215   1.502   4.813  13.293 -0.0088  0.2588 -0.2154
10267TIP3    H152216   1.454   4.731  13.283  0.3990  0.0918 -0.8498
10267TIP3    H252217   1.476   4.846  13.379  0.7943 -1.1619  0.5863
10268TIP3   OH252218   4.855   4.996   2.357  0.6389 -0.0162  0.3886
10268TIP3    H152219   4.781   4.958   2.406  1.1818 -1.4816  0.1348
10268TIP3    H252220   4.851   5.090   2.376 -1.1450 -0.0902  0.5636
10269TIP3   OH252221   3.539   1.073   3.731 -0.3879 -0.0013  0.2988
10269TIP3    H152222   3.620   1.052   3.685  0.1890  0.8943  0.8811
10269TIP3    H252223   3.479   1.100   3.661  0.1641  0.3991 -0.0364
10270TIP3   OH252224   4.695   4.536  16.386  0.0705 -0.6238 -0.8455
10270TIP3    H152225   4.769   4.520  16.328  0.5727  0.8989 -0.6517
10270TIP3    H252226   4.618   4.511  16.334  0.5634 -0.0117 -1.8908
10271TIP3   OH252227   0.387   0.364  13.256  0.1998 -0.3643 -0.5278
10271TIP3    H152228   0.343   0.288  13.295  0.9646 -1.1942 -1.2335
10271TIP3    H252229   0.320   0.432  13.253  0.0534 -0.3314  1.9954
10272TIP3   OH252230   1.489   0.448   3.101  0.0807  0.6443 -0.1960
10272TIP3    H152231   1.582   0.439   3.120 -0.1270 -0.3863  0.3881
10272TIP3    H252232   1.445   0.426   3.183 -0.6737  1.1727 -0.4532
10273TIP3   OH252233   0.021   2.301   2.037  0.6761 -0.2262  0.4569
10273TIP3    H152234   0.009   2.356   1.960 -1.2029 -0.6081  0.4206
10273TIP3    H252235   0.090   2.344   2.088 -0.3550  1.8658  0.1766
10274TIP3   OH252236   6.613   0.098   2.465 -0.2027  0.0068  0.1626
10274TIP3    H152237   6.524   0.108   2.430  0.0412  0.4802 -0.3297
10274TIP3    H252238   6.613   0.148   2.546  0.4052  2.4203 -1.2294
10275TIP3   OH252239   2.066   5.030  11.900 -0.3432 -0.3342 -0.0896
10275TIP3    H152240   2.079   5.046  11.807  1.1933  1.2736  0.3378
10275TIP3    H252241   1.991   5.084  11.924 -0.9104 -0.9588 -0.4255
10276TIP3   OH252242   5.384   5.828   1.391 -0.6128  0.0255  0.0189
10276TIP3    H152243   5.323   5.756   1.404  0.9331 -1.0666  1.5840
10276TIP3    H252244   5.330   5.899   1.355 -2.4924 -1.3386  0.0232
10277TIP3   OH252245   1.737   0.022   0.431 -0.5404 -0.5071  0.4661
10277TIP3    H152246   1.825   0.040   0.399 -0.6023 -0.8880  0.0740
10277TIP3    H252247   1.745   0.027   0.526 -0.1201 -0.4188  0.4273
10278TIP3   OH252248   2.022   1.106  13.694 -0.0038  0.0346  0.0316
10278TIP3    H152249   2.115   1.121  13.707  0.5317 -1.2441 -1.7934
10278TIP3    H252250   1.982   1.192  13.700  1.1598  0.4955  1.6760
10279TIP3   OH252251   1.315   6.410  13.834  0.2358  0.0824 -0.1269
10279TIP3    H152252   1.285   6.406  13.743 -0.7733 -0.1680  0.2068
10279TIP3    H252253   1.270   6.486  13.871  1.8570  1.1582 -0.2412
10280TIP3   OH252254   4.522   2.772   3.064 -0.3073  0.0610  0.4869
10280TIP3    H152255   4.441   2.812   3.034 -0.7421 -0.4065  1.0023
10280TIP3    H252256   4.507   2.678   3.054  0.5808 -0.0002 -0.4233
10281TIP3   OH252257   4.371   3.832   3.659  0.4855 -0.0422 -0.1621
10281TIP3    H152258   4.460   3.808   3.684  0.6134 -2.7439 -2.6485
10281TIP3    H252259   4.316   3.766   3.701 -0.3744  1.3552  1.0056
10282TIP3   OH252260   6.349   2.238   1.169 -0.5272 -0.3969 -0.1857
10282TIP3    H152261   6.404   2.162   1.185  1.5054  0.5927 -1.9027
10282TIP3    H252262   6.375   2.301   1.236  0.7264  0.1530 -1.1288
10283TIP3   OH252263   1.032   1.788  13.207 -0.0392 -0.8012 -0.0314
10283TIP3    H152264   0.950   1.739  13.210 -0.9303  0.6566  2.2296
10283TIP3    H252265   1.007   1.877  13.232  1.9581  0.1311 -1.1512
10284TIP3   OH252266   5.573   4.711  13.139  0.4728 -0.6011 -0.1523
10284TIP3    H152267   5.586   4.641  13.075  3.2884  1.5019 -2.1457
10284TIP3    H252268   5.509   4.769  13.098  0.2179 -0.6008  0.2389
10285TIP3   OH252269   5.796   1.010  17.162 -0.4916 -1.1470  0.2508
10285TIP3    H152270   5.743   1.058  17.227  0.3094 -0.3137  0.3010
10285TIP3    H252271   5.780   1.057  17.080 -0.5013 -1.4234  0.0971
10286TIP3   OH252272   2.672   1.964   3.227 -0.3847  0.0436  0.4930
10286TIP3    H152273   2.627   1.885   3.198  1.0887 -1.4203  1.9587
10286TIP3    H252274   2.716   1.997   3.149 -0.3045 -1.1081  0.0334
10287TIP3   OH252275   6.669   5.382   3.087  0.1647  0.1838 -0.1518
10287TIP3    H152276   6.722   5.329   3.145  0.8931  1.1042  0.0556
10287TIP3    H252277   6.690   5.350   2.999  0.3827 -0.0500 -0.0144
10288TIP3   OH252278   0.926   2.023  12.547  0.2270  0.3636  0.6432
10288TIP3    H152279   0.952   1.968  12.621 -1.5130 -0.0121  1.0159
10288TIP3    H252280   0.916   1.962  12.474  0.6511  0.5550  0.4156
10289TIP3   OH252281   5.683   2.976   4.790  0.4004  0.1729  0.1339
10289TIP3    H152282   5.715   2.902   4.840  1.4979 -0.4296 -1.3899
10289TIP3    H252283   5.759   3.033   4.778  0.2966  0.0684 -1.2073
10290TIP3   OH252284   4.831   4.864   6.022 -0.4792  0.4984  0.8011
10290TIP3    H152285   4.925   4.849   6.029 -0.4234  0.1272 -0.4769
10290TIP3    H252286   4.812   4.930   6.089  0.7037  0.6482  1.0108
10291TIP3   OH252287   3.881   6.689  13.858 -0.0924  0.3008 -0.3808
10291TIP3    H152288   3.802   6.728  13.895  0.1103 -0.3893  0.8435
10291TIP3    H252289   3.912   6.628  13.926  3.1125  2.6289  0.4959
10292TIP3   OH252290   3.657   2.189   3.247  0.0254  0.1313  0.2082
10292TIP3    H152291   3.647   2.095   3.231  0.1893  0.0516  0.5652
10292TIP3    H252292   3.580   2.228   3.206 -0.3391 -0.2156  0.5404
10293TIP3   OH252293   5.512   5.031  13.324 -0.3712 -0.1075 -0.1527
10293TIP3    H152294   5.497   5.105  13.265 -1.0462  0.1393  0.3155
10293TIP3    H252295   5.602   5.041  13.354  0.4893 -1.0115 -2.2187
10294TIP3   OH252296   0.317   1.408   5.420  0.8616 -0.0348 -0.3021
10294TIP3    H152297   0.302   1.502   5.428 -2.2524 -0.4727  0.2040
10294TIP3    H252298   0.353   1.382   5.505  0.5703  0.5127 -0.0061
10295TIP3   OH252299   3.650   6.371   5.581  0.8914  0.1691  0.0380
10295TIP3    H152300   3.640   6.460   5.615  0.0255  0.2813 -0.4755
10295TIP3    H252301   3.647   6.315   5.658  0.0265  0.4919  0.2507
10296TIP3   OH252302   4.659   6.385   2.712  0.0168  0.7330 -0.3525
10296TIP3    H152303   4.612   6.468   2.701  0.2170  0.8726 -0.1539
10296TIP3    H252304   4.697   6.368   2.626 -1.7308 -0.2015 -0.9997
10297TIP3   OH252305   1.772   5.084   2.651  0.3556  0.3200 -0.2643
10297TIP3    H152306   1.849   5.057   2.702 -0.1012 -1.0911 -0.3010
10297TIP3    H252307   1.703   5.024   2.677 -0.5143  1.0141 -0.8920
10298TIP3   OH252308   3.925   4.214  17.019  0.2215  0.3442 -0.0323
10298TIP3    H152309   3.837   4.181  17.035  0.6336  0.2705  2.4035
10298TIP3    H252310   3.963   4.154  16.955 -1.3975  0.2559 -0.9406
10299TIP3   OH252311   0.691   4.067   2.524 -0.4435 -0.3146  0.5755
10299TIP3    H152312   0.763   4.127   2.502  0.0277 -0.8502  0.6415
10299TIP3    H252313   0.720   3.982   2.491  0.3120 -1.1866  3.2194
10300TIP3   OH252314   6.207   0.498  14.817  0.1466 -0.5384  0.3421
10300TIP3    H152315   6.170   0.414  14.843 -0.9739 -0.4342 -0.8031
10300TIP3    H252316   6.231   0.487  14.725  1.1024  0.0406  0.5066
10301TIP3   OH252317   4.635   4.468  13.998  1.0101 -0.0275  0.0698
10301TIP3    H152318   4.618   4.418  13.918 -1.2961  1.8549 -0.7340
10301TIP3    H252319   4.713   4.519  13.979  2.2832 -1.7954  0.2235
10302TIP3   OH252320   2.839   4.468   2.324 -0.8298  0.0117  1.0053
10302TIP3    H152321   2.819   4.375   2.311 -0.3700  0.2117 -1.5919
10302TIP3    H252322   2.814   4.485   2.415 -1.2031 -2.5665  1.4641
10303TIP3   OH252323   3.133   3.088   0.889  0.4950 -0.2473 -0.2012
10303TIP3    H152324   3.054   3.142   0.897  1.4277  0.8287  4.7304
10303TIP3    H252325   3.198   3.148   0.852 -0.0435  0.0246 -0.7345
10304TIP3   OH252326   1.413   0.060  13.644  0.7095  0.1899  0.2790
10304TIP3    H152327   1.417   0.012  13.727 -0.4301 -1.0605 -0.3579
10304TIP3    H252328   1.351   0.131  13.661  1.3774  0.6595  0.8254
10305TIP3   OH252329   6.013   2.835  14.318  0.1551  0.4094 -0.7807
10305TIP3    H152330   6.094   2.850  14.269 -0.6186 -2.3395 -3.1724
10305TIP3    H252331   6.039   2.844  14.410  2.9820  0.4498 -1.4819
10306TIP3   OH252332   4.980   3.088   5.529 -0.6431  0.0495  0.2911
10306TIP3    H152333   4.927   3.127   5.599 -1.6883 -1.0364  0.1413
10306TIP3    H252334   5.058   3.143   5.525 -1.0110  0.7231  1.6380
10307TIP3   OH252335   3.235   6.236  16.558  0.0331  0.1816 -0.0964
10307TIP3    H152336   3.220   6.146  16.589  0.0927 -0.0133 -0.6212
10307TIP3    H252337   3.173   6.247  16.486  0.2977  0.4275 -0.2889
10308TIP3   OH252338   5.843   2.373   3.702 -0.0736 -0.5842 -0.3777
10308TIP3    H152339   5.913   2.436   3.681 -0.7391  0.8838  1.5268
10308TIP3    H252340   5.764   2.426   3.708 -0.8095 -1.7382  0.4891
10309TIP3   OH252341   3.983   0.289   5.493  0.8051 -0.1516 -0.7343
10309TIP3    H152342   3.930   0.364   5.518  0.9083  0.3589 -1.9871
10309TIP3    H252343   4.049   0.324   5.433  1.0261 -1.1822 -1.1260
10310TIP3   OH252344   3.647   4.091  15.008 -0.0753 -0.0807 -0.1997
10310TIP3    H152345   3.586   4.018  14.997  0.0109 -0.0448 -0.9998
10310TIP3    H252346   3.592   4.162  15.044 -1.2236  0.8371 -3.3991
10311TIP3   OH252347   0.022   6.005  16.329 -0.2485  0.0035  0.1213
10311TIP3    H152348   0.008   6.088  16.283 -0.1874 -0.2489 -0.3622
10311TIP3    H252349   0.013   6.027  16.422  0.5611  0.7216  0.0502
10312TIP3   OH252350   0.493   0.953  15.455  0.0289 -0.3686  0.2538
10312TIP3    H152351   0.540   0.876  15.487  0.8638 -0.3437 -0.8381
10312TIP3    H252352   0.485   0.938  15.360  0.8205  1.1850 -0.0912
10313TIP3   OH252353   6.719   4.276   3.274  0.2758  0.3862 -0.1756
10313TIP3    H152354   6.659   4.251   3.204  0.1275  0.5723 -0.1154
10313TIP3    H252355   6.667   4.269   3.354  0.1760  1.0704 -0.1766
10314TIP3   OH252356   3.758   6.494  12.706  0.0748  0.3916  0.2835
10314TIP3    H152357   3.825   6.526  12.766  2.3989 -1.6515 -1.0260
10314TIP3    H252358   3.763   6.399  12.712 -0.6509  0.1344 -1.9704
10315TIP3   OH252359   4.692   1.993   3.745  0.3395 -0.3804 -0.0768
10315TIP3    H152360   4.620   2.055   3.735  1.4297  0.9145 -0.1990
10315TIP3    H252361   4.650   1.910   3.767 -1.2098  0.2056 -0.7057
10316TIP3   OH252362   6.158   0.111   5.225 -0.0812  0.0482  0.7858
10316TIP3    H152363   6.087   0.170   5.250 -0.6544  0.1610 -0.9445
10316TIP3    H252364   6.227   0.168   5.191 -0.1827 -0.1933  0.1524
10317TIP3   OH252365   2.678   3.494   3.700 -0.0650 -0.4066 -0.8929
10317TIP3    H152366   2.710   3.440   3.628  3.4086 -0.6316  0.6105
10317TIP3    H252367   2.751   3.553   3.719 -1.7596  1.2198  0.9638
10318TIP3   OH252368   3.776   0.688  14.604 -0.3574 -0.4483 -0.1144
10318TIP3    H152369   3.790   0.593  14.600 -1.2025 -0.6185  0.5088
10318TIP3    H252370   3.695   0.697  14.655 -0.4652  0.5959 -0.4589
10319TIP3   OH252371   0.696   5.832   3.092 -0.7876 -0.0822  0.8461
10319TIP3    H152372   0.751   5.784   3.153  0.2178 -1.6029 -1.1354
10319TIP3    H252373   0.622   5.773   3.075 -0.3417 -0.3067 -0.4241
10320TIP3   OH252374   3.376   4.844  15.176 -0.3330  0.2280 -0.1706
10320TIP3    H152375   3.405   4.860  15.086  0.5341  0.1000  0.0784
10320TIP3    H252376   3.444   4.884  15.230 -1.4098  1.3177  0.4432
10321TIP3   OH252377   5.634   4.876   3.796 -0.2515  0.1568 -0.3758
10321TIP3    H152378   5.664   4.964   3.816  1.1627 -0.3321 -0.2161
10321TIP3    H252379   5.597   4.883   3.708  3.1475  0.2699 -1.9572
10322TIP3   OH252380   3.467   2.493  12.503  0.1281  0.8698  0.1930
10322TIP3    H152381   3.382   2.467  12.467  0.8277 -1.6197  0.1247
10322TIP3    H252382   3.451   2.507  12.597 -0.3152  0.0866  0.2390
10323TIP3   OH252383   2.400   5.623   5.304  0.8704  0.1004 -0.7011
10323TIP3    H152384   2.347   5.670   5.368  1.8600  0.4103 -0.0877
10323TIP3    H252385   2.337   5.573   5.253  0.0806 -0.3538  0.6746
10324TIP3   OH252386   6.320   4.681   5.520  0.5405  0.2728  0.0673
10324TIP3    H152387   6.248   4.707   5.577  0.0190 -1.5458  0.2755
10324TIP3    H252388   6.321   4.749   5.452 -2.2435 -0.3327 -0.7118
10325TIP3   OH252389   4.343   0.533  15.910  0.2896  0.2327  0.1963
10325TIP3    H152390   4.427   0.487  15.903 -0.0495 -0.4339  0.4241
10325TIP3    H252391   4.284   0.470  15.951 -0.4912  0.4780 -0.5086
10326TIP3   OH252392   1.557   0.733   2.599 -0.0089  0.0671  0.1115
10326TIP3    H152393   1.573   0.678   2.675 -0.9570  0.9500  0.9888
10326TIP3    H252394   1.617   0.806   2.609 -0.3495  0.3393  0.1802
10327TIP3   OH252395   3.982   1.963  13.944 -0.1510  0.0368 -0.2918
10327TIP3    H152396   4.048   1.996  13.883  0.9126 -0.3731  0.6059
10327TIP3    H252397   3.899   1.981  13.900  0.2566  4.0134  0.1132
10328TIP3   OH252398   4.960   5.709   3.075 -0.1096 -0.3712  0.0685
10328TIP3    H152399   4.965   5.681   2.984 -1.3186 -1.7839  0.3975
10328TIP3    H252400   4.953   5.805   3.071  0.2931 -0.3891 -1.2882
10329TIP3   OH252401   5.215   4.302   5.622  0.6858 -0.1185 -0.7066
10329TIP3    H152402   5.124   4.303   5.595 -0.4174  1.2569  2.5132
10329TIP3    H252403   5.227   4.217   5.664  0.4134  0.2185  0.0837
10330TIP3   OH252404   1.560   1.755   2.250 -0.3873 -0.3155  0.2119
10330TIP3    H152405   1.587   1.841   2.280  0.7376 -0.2948 -0.7991
10330TIP3    H252406   1.639   1.701   2.256 -1.0755 -1.2972  0.8527
10331TIP3   OH252407   5.550   2.622  13.397  0.2239  0.2985  0.1630
10331TIP3    H152408   5.524   2.540  13.439  1.0961 -0.3288 -0.4714
10331TIP3    H252409   5.499   2.624  13.315  0.7128  0.0274 -0.1555
10332TIP3   OH252410   4.465   1.470  15.312  0.2827 -0.7907  0.0793
10332TIP3    H152411   4.433   1.382  15.330 -0.5529 -0.6845 -0.7552
10332TIP3    H252412   4.468   1.513  15.398  2.4788 -2.1589  0.7525
10333TIP3   OH252413   4.492   5.314  13.231 -0.3124  0.5981  0.0221
10333TIP3    H152414   4.546   5.250  13.185 -0.5466  0.0575  0.4966
10333TIP3    H252415   4.545   5.340  13.306 -0.2510  0.9057 -0.1266
10334TIP3   OH252416   6.423   0.711  11.595  0.6814 -0.1827  0.3099
10334TIP3    H152417   6.408   0.772  11.524  3.0644  0.5773  0.3610
10334TIP3    H252418   6.413   0.624  11.555 -2.2651  0.1496  0.1320
10335TIP3   OH252419   4.277   4.852   1.557 -0.1872  0.0736 -0.9862
10335TIP3    H152420   4.206   4.850   1.621 -0.4582 -0.2724 -1.2929
10335TIP3    H252421   4.323   4.934   1.574  0.0188 -0.2326 -0.0572
10336TIP3   OH252422   1.233   2.966   0.646  0.2035 -0.7539  0.1193
10336TIP3    H152423   1.282   3.015   0.580  2.2191  0.7861  2.5595
10336TIP3    H252424   1.208   2.885   0.602  2.4087 -0.3174 -2.1768
10337TIP3   OH252425   6.732   4.962  12.566  0.6006  0.3318 -0.4285
10337TIP3    H152426   6.758   4.940  12.477 -0.2204 -0.2492 -0.5305
10337TIP3    H252427   6.637   4.950  12.567  0.5646  0.6288  0.4430
10338TIP3   OH252428   4.233   4.268   1.427  0.1945 -0.2265 -0.3350
10338TIP3    H152429   4.226   4.333   1.497  0.6046 -1.4571  0.8943
10338TIP3    H252430   4.224   4.318   1.346  0.0458  1.2827  0.5874
10339TIP3   OH252431   1.974   2.888   2.678  0.2265  0.3789 -0.3320
10339TIP3    H152432   1.904   2.824   2.686 -0.4382  1.2736  1.7226
10339TIP3    H252433   1.991   2.918   2.768  2.0653  1.4425 -0.9589
10340TIP3   OH252434   1.027   0.886   4.653 -0.1484 -0.2366 -0.1466
10340TIP3    H152435   0.948   0.897   4.706  0.8963  0.0858  1.3854
10340TIP3    H252436   0.993   0.860   4.567 -1.9647  0.7969  0.1875
10341TIP3   OH252437   5.594   0.964   3.325  0.1501  0.0505  0.1177
10341TIP3    H152438   5.558   0.987   3.410 -2.0335 -0.7165 -0.5268
10341TIP3    H252439   5.593   1.047   3.275 -1.1067 -0.0045  0.0149
10342TIP3   OH252440   5.008   2.292  11.535  0.4615 -0.1747 -0.0210
10342TIP3    H152441   5.039   2.256  11.452 -0.2302 -2.6637  0.7269
10342TIP3    H252442   5.087   2.297  11.589  0.4974 -1.1057  0.0303
10343TIP3   OH252443   5.639   2.421   4.838 -0.1900 -0.1147  0.8744
10343TIP3    H152444   5.576   2.359   4.874  1.5159 -1.5408  1.5280
10343TIP3    H252445   5.679   2.461   4.915  0.9809 -0.5798  0.5274
10344TIP3   OH252446   3.451   0.596  14.514 -0.6183  0.2648  0.0966
10344TIP3    H152447   3.462   0.501  14.519 -0.2413  0.3506  1.0492
10344TIP3    H252448   3.475   0.628  14.600  3.4543  1.6549 -1.3335
10345TIP3   OH252449   0.589   5.707  15.961  0.1688  0.2426 -0.1348
10345TIP3    H152450   0.521   5.674  16.020  0.4944 -1.6217 -0.7467
10345TIP3    H252451   0.667   5.714  16.016  0.1706 -0.3169 -0.0622
10346TIP3   OH252452   5.641   5.739  14.138 -0.1269 -0.0258  0.1321
10346TIP3    H152453   5.664   5.802  14.069 -2.0201 -0.6415 -1.1513
10346TIP3    H252454   5.605   5.794  14.208  1.8416  0.6114  0.7086
10347TIP3   OH252455   4.514   5.016   6.533  0.0575  0.0783  0.4774
10347TIP3    H152456   4.441   5.007   6.593 -1.8718 -0.7671 -1.8149
10347TIP3    H252457   4.507   5.106   6.500 -1.4222 -0.6473 -1.3752
10348TIP3   OH252458   0.667   2.079  12.670 -0.2807  0.1122 -0.6340
10348TIP3    H152459   0.635   2.068  12.760  1.4929 -0.6011 -0.0674
10348TIP3    H252460   0.727   2.007  12.657 -0.4332  0.2751 -2.3889
10349TIP3   OH252461   2.985   5.959  15.900 -0.1281  0.4644  0.2521
10349TIP3    H152462   2.931   5.925  15.971  0.3123 -1.8334 -0.4520
10349TIP3    H252463   2.927   5.963  15.824  0.3131 -0.7264 -0.1709
10350TIP3   OH252464   1.895   0.216   3.961  0.2001  0.3817 -0.3665
10350TIP3    H152465   1.924   0.298   3.921 -0.9775  1.8368  1.5614
10350TIP3    H252466   1.862   0.163   3.888  0.1036  2.0134 -1.5533
10351TIP3   OH252467   2.592   2.247  11.276 -0.7314  0.1062 -0.1037
10351TIP3    H152468   2.676   2.213  11.246  1.1660 -0.1216  4.5963
10351TIP3    H252469   2.527   2.186  11.240  1.5177 -2.1445 -0.6552
10352TIP3   OH252470   2.493   2.212  13.023  0.5719 -0.6051  0.1677
10352TIP3    H152471   2.571   2.166  13.053 -0.1643 -1.5748  0.6244
10352TIP3    H252472   2.510   2.231  12.931  0.9743 -1.6053  0.0266
10353TIP3   OH252473   0.797   1.000   4.922  0.5075  0.5280  0.1612
10353TIP3    H152474   0.765   1.017   4.834 -0.6502 -2.6888 -0.1574
10353TIP3    H252475   0.723   0.963   4.969  1.8344 -0.3967  1.6484
10354TIP3   OH252476   4.257   3.808  15.687 -0.7441  0.6398 -0.8095
10354TIP3    H152477   4.209   3.773  15.762  0.6741  0.3357 -0.0046
10354TIP3    H252478   4.336   3.847  15.726  0.1042  0.3203 -2.1685
10355TIP3   OH252479   2.909   2.308   5.669 -0.1470  0.1112 -0.4210
10355TIP3    H152480   2.870   2.235   5.622  0.1666  0.4278 -1.1969
10355TIP3    H252481   3.004   2.295   5.659  0.0290 -0.8334  1.7049
10356TIP3   OH252482   1.267   4.409  10.859 -0.5261 -0.1478  0.4937
10356TIP3    H152483   1.188   4.366  10.891 -0.8470  0.3227  0.3430
10356TIP3    H252484   1.243   4.502  10.852 -1.4177 -0.5058 -3.7840
10357TIP3   OH252485   4.554   3.347   5.877 -0.1195 -0.2096  0.5134
10357TIP3    H152486   4.473   3.390   5.848  0.1063 -0.9398 -1.3073
10357TIP3    H252487   4.611   3.419   5.902  0.3353  0.6852 -2.6889
10358TIP3   OH252488   2.231   4.039   1.458  0.0361 -0.4893 -0.2527
10358TIP3    H152489   2.219   4.035   1.363 -2.4632 -0.5734  0.0061
10358TIP3    H252490   2.220   3.949   1.488  1.0596 -0.5019  0.1066
10359TIP3   OH252491   2.455   2.145   2.614  0.1546 -0.5415  0.0155
10359TIP3    H152492   2.443   2.108   2.527  0.3536 -1.0412  0.1962
10359TIP3    H252493   2.550   2.154   2.625  0.1193 -0.1957  0.0671
10360TIP3   OH252494   6.156   4.150   5.281 -0.6158  0.2189  0.2517
10360TIP3    H152495   6.066   4.176   5.299 -0.2484  2.7894 -1.1682
10360TIP3    H252496   6.209   4.206   5.338  0.1342 -0.1293 -0.0838
10361TIP3   OH252497   2.595   3.117  12.389  0.0644  0.5245  0.5492
10361TIP3    H152498   2.664   3.167  12.433  1.2165  0.4747 -1.0967
10361TIP3    H252499   2.572   3.170  12.313 -0.3316 -0.3871  0.0186
10362TIP3   OH252500   4.018   0.954   4.874 -0.3534 -0.0496  0.2186
10362TIP3    H152501   4.076   0.935   4.800 -0.8672 -2.7893  0.3964
10362TIP3    H252502   4.070   1.012   4.930  1.5971 -1.0403 -0.4371
10363TIP3   OH252503   4.937   6.417  14.286  0.1484  0.5200 -0.5199
10363TIP3    H152504   5.021   6.446  14.250 -0.1854  1.7985 -0.3177
10363TIP3    H252505   4.949   6.420  14.381  0.2434 -0.4693 -0.4877
10364TIP3   OH252506   5.985   0.688   5.329  0.5079 -0.6289 -0.3223
10364TIP3    H152507   5.955   0.778   5.315  2.6112  0.2631  0.5193
10364TIP3    H252508   6.049   0.674   5.258 -0.1504 -1.6530 -0.7304
10365TIP3   OH252509   1.427   2.110  14.406 -0.0515 -0.6213 -0.1014
10365TIP3    H152510   1.388   2.196  14.420  2.6687  0.6487  0.1409
10365TIP3    H252511   1.361   2.049  14.441 -0.5488  1.5257  3.1763
10366TIP3   OH252512   2.833   5.427  12.533 -0.2517  0.5924  0.4904
10366TIP3    H152513   2.881   5.375  12.469  1.9630  1.9215  0.9567
10366TIP3    H252514   2.814   5.365  12.605  1.8036  0.2403  0.7808
10367TIP3   OH252515   5.018   1.804   2.380 -0.2299  0.5259  0.2741
10367TIP3    H152516   5.046   1.730   2.433  0.2624 -0.4270 -1.2488
10367TIP3    H252517   5.077   1.876   2.404  0.1688  0.0345  0.7808
10368TIP3   OH252518   0.648   4.301   0.535 -0.2844  0.1583 -0.3510
10368TIP3    H152519   0.569   4.261   0.498 -0.0396 -1.9924  1.1996
10368TIP3    H252520   0.665   4.377   0.480 -1.6433 -1.0858 -2.6437
10369TIP3   OH252521   5.914   5.813  15.702 -0.5381 -0.0406  0.4132
10369TIP3    H152522   5.967   5.880  15.744 -0.5794 -0.4516  1.1431
10369TIP3    H252523   5.946   5.809  15.612  0.8005 -0.4079  0.8805
10370TIP3   OH252524   1.297   6.596  15.895  0.5313 -0.2158  0.3374
10370TIP3    H152525   1.313   6.647  15.974 -1.8472  1.8054 -0.3541
10370TIP3    H252526   1.220   6.638  15.855  0.0486 -2.7983 -1.6683
10371TIP3   OH252527   1.062   0.976  14.741  0.3651 -0.1754 -0.3073
10371TIP3    H152528   1.137   1.035  14.733  1.2093 -1.1424  0.2687
10371TIP3    H252529   1.101   0.888  14.746 -0.6802 -0.5972  1.5683
10372TIP3   OH252530   2.617   2.997   4.155 -0.5243 -0.2823 -0.1597
10372TIP3    H152531   2.661   3.029   4.077  1.1052  0.5772  1.0393
10372TIP3    H252532   2.542   3.055   4.166  0.7129  1.3157  0.3153
10373TIP3   OH252533   5.180   1.316  12.992  0.3871 -0.0166  0.5755
10373TIP3    H152534   5.162   1.311  12.898  2.2780  1.3440  0.0755
10373TIP3    H252535   5.157   1.230  13.026 -1.5548 -0.1318 -0.8780
10374TIP3   OH252536   5.100   2.085  12.684  0.0319  0.7902  0.2859
10374TIP3    H152537   5.108   1.999  12.726 -0.0666  0.8155  0.3549
10374TIP3    H252538   5.122   2.068  12.592  1.0393  0.8850  0.4891
10375TIP3   OH252539   2.702   1.604  14.145 -0.5785  0.7513  0.2086
10375TIP3    H152540   2.628   1.663  14.128  0.7058  1.9163 -1.6858
10375TIP3    H252541   2.721   1.564  14.060  0.8007  0.2664  0.7174
10376TIP3   OH252542   1.791   2.089  12.473 -0.0193 -0.2115 -0.2361
10376TIP3    H152543   1.731   2.155  12.508  0.8522  0.4543  0.0358
10376TIP3    H252544   1.823   2.042  12.550 -2.0027 -2.2361 -0.5159
10377TIP3   OH252545   2.431   0.943   0.383 -0.7666  0.3507  0.0651
10377TIP3    H152546   2.422   1.038   0.385 -2.0028  0.2344  1.3067
10377TIP3    H252547   2.523   0.928   0.358 -0.8260  1.8328 -1.1659
10378TIP3   OH252548   4.188   5.364   5.707  0.0661 -0.0845  0.1028
10378TIP3    H152549   4.203   5.443   5.760 -3.2681 -0.0707  1.2515
10378TIP3    H252550   4.205   5.292   5.767  0.4403 -0.1806 -0.1171
10379TIP3   OH252551   4.248   3.834  11.580  0.1152  0.1329 -0.3087
10379TIP3    H152552   4.293   3.754  11.553 -1.5852 -0.7453 -0.7268
10379TIP3    H252553   4.156   3.817  11.560 -0.3252  2.1269 -0.2058
10380TIP3   OH252554   1.644   5.088   3.966  0.4153 -0.3616 -0.2686
10380TIP3    H152555   1.684   5.068   3.882  3.5658 -0.5697  1.1563
10380TIP3    H252556   1.700   5.155   4.005 -1.8481  0.9191  1.0655
10381TIP3   OH252557   3.256   4.613   5.744 -0.1734 -0.6840 -0.4165
10381TIP3    H152558   3.244   4.649   5.832 -2.9537  0.3253 -1.1154
10381TIP3    H252559   3.339   4.650   5.714 -0.5102  1.1674  0.7932
10382TIP3   OH252560   0.123   5.832  15.519 -0.1671 -0.0138 -0.4637
10382TIP3    H152561   0.057   5.822  15.450  1.0212  0.7767 -1.7550
10382TIP3    H252562   0.171   5.749  15.519 -2.5870 -1.6024  2.1497
10383TIP3   OH252563   0.009   3.759  13.134  0.1057 -0.0643  0.6858
10383TIP3    H152564  -0.061   3.727  13.077 -0.6665  1.8908  0.4404
10383TIP3    H252565   0.039   3.682  13.181  1.4263 -2.0297 -2.9669
10384TIP3   OH252566   1.503   2.145   4.694  0.1639 -0.1908  0.1625
10384TIP3    H152567   1.459   2.223   4.659  0.8179 -0.0623 -0.3877
10384TIP3    H252568   1.432   2.095   4.735 -0.2287  0.7991  0.7314
10385TIP3   OH252569   3.247   4.258  15.562  0.3124  0.2653  0.7781
10385TIP3    H152570   3.210   4.336  15.520  0.2386  0.5535  1.3738
10385TIP3    H252571   3.181   4.190  15.548  1.0001 -0.0963 -0.9996
10386TIP3   OH252572   3.635   3.691   2.437 -0.3590  0.5746 -0.2278
10386TIP3    H152573   3.688   3.695   2.358  0.5335  0.8539  0.3640
10386TIP3    H252574   3.665   3.765   2.489 -1.0412  0.4850  0.3027
10387TIP3   OH252575   1.239   6.486   3.512 -0.1150  0.4214 -0.4560
10387TIP3    H152576   1.171   6.424   3.486  1.9890 -1.7607 -1.0816
10387TIP3    H252577   1.245   6.475   3.607 -0.7732  0.8004 -0.3641
10388TIP3   OH252578   3.003   6.485  11.646 -0.7678 -0.6047  0.1201
10388TIP3    H152579   3.088   6.458  11.679 -0.3671  0.9485  0.4552
10388TIP3    H252580   2.945   6.480  11.722 -0.3796  0.7128  0.5354
10389TIP3   OH252581   0.461   1.128   5.064  0.4177 -0.4609 -0.0728
10389TIP3    H152582   0.407   1.098   5.137  1.0581 -0.2770  0.4842
10389TIP3    H252583   0.460   1.224   5.072 -1.0287 -0.3203 -1.4137
10390TIP3   OH252584   2.498   0.045   1.345 -0.4616 -0.5405  0.4363
10390TIP3    H152585   2.501  -0.038   1.393 -2.2777 -1.3947 -0.8467
10390TIP3    H252586   2.474   0.110   1.411 -1.1750 -1.3993  1.0330
10391TIP3   OH252587   2.557   0.826   5.892  0.4016 -0.7046  0.1920
10391TIP3    H152588   2.610   0.807   5.970  0.6819  0.8070  0.3930
10391TIP3    H252589   2.602   0.779   5.821  0.1907 -2.0306  0.9046
10392TIP3   OH252590   2.677   2.959   1.871  0.1375 -0.1124  0.3541
10392TIP3    H152591   2.594   3.003   1.853 -0.4311 -1.3335 -0.1336
10392TIP3    H252592   2.660   2.866   1.851  1.9381 -0.2268 -0.9396
10393TIP3   OH252593   2.075   5.196   4.705  0.2052  0.5539  1.0867
10393TIP3    H152594   2.000   5.139   4.724  0.5289 -0.7435 -1.1512
10393TIP3    H252595   2.145   5.135   4.679  0.9004  1.9118 -0.3689
10394TIP3   OH252596   2.396   1.903   3.340  0.5276 -0.0623 -0.1111
10394TIP3    H152597   2.469   1.934   3.392  1.0064 -0.9995 -0.1932
10394TIP3    H252598   2.358   1.982   3.301  0.3663  0.6187  1.3658
10395TIP3   OH252599   3.106   1.619  11.026 -0.3390  0.4407  0.3173
10395TIP3    H152600   3.089   1.566  11.104 -0.2738  2.4826  1.7989
10395TIP3    H252601   3.199   1.641  11.032 -0.3474  0.6590 -0.3153
10396TIP3   OH252602   6.133   3.139  15.148  0.3808  0.5265 -0.1880
10396TIP3    H152603   6.225   3.151  15.171  0.4278 -1.3649  0.8129
10396TIP3    H252604   6.135   3.081  15.071  0.0301  1.3059 -0.8007
10397TIP3   OH252605   2.386   3.704  13.089 -0.2592  0.2414  0.0853
10397TIP3    H152606   2.340   3.670  13.167 -0.5464 -0.5130 -0.4003
10397TIP3    H252607   2.392   3.629  13.031 -0.4926  0.9180 -0.8365
10398TIP3   OH252608   1.158   3.581   4.164 -0.4858 -0.6357 -0.8099
10398TIP3    H152609   1.218   3.507   4.152 -0.8597 -0.9014 -1.0692
10398TIP3    H252610   1.158   3.626   4.080 -0.2558 -0.3356 -0.6508
10399TIP3   OH252611   1.104   0.278  15.696 -0.2901  0.3380  0.2011
10399TIP3    H152612   1.185   0.283  15.645  0.3543  2.3353  1.3092
10399TIP3    H252613   1.106   0.356  15.752 -2.2244 -0.4025  1.4003
10400TIP3   OH252614   6.464   4.605  14.804  0.1791 -0.3732 -0.2492
10400TIP3    H152615   6.525   4.555  14.750 -1.9086 -3.1224 -0.3220
10400TIP3    H252616   6.398   4.637  14.743  0.9121  1.7057 -0.0384
10401TIP3   OH252617   0.146   0.712  11.378 -0.2499 -0.0022 -0.9721
10401TIP3    H152618   0.225   0.767  11.377  0.3406 -0.7746 -2.7151
10401TIP3    H252619   0.075   0.771  11.352 -0.2451  0.6687  0.4674
10402TIP3   OH252620   1.759   2.862  11.685  0.1488  0.4311  0.0063
10402TIP3    H152621   1.770   2.948  11.726 -0.7277  1.2808 -1.4745
10402TIP3    H252622   1.676   2.830  11.719  1.6589 -1.0938  2.6244
10403TIP3   OH252623   5.762   0.330   2.570  0.0327 -1.2086 -0.0742
10403TIP3    H152624   5.710   0.374   2.638  0.5883 -0.1771 -0.2926
10403TIP3    H252625   5.717   0.351   2.488  0.4454 -0.8070 -0.2042
10404TIP3   OH252626   3.473   0.903  16.509 -0.3555  0.3150 -0.1051
10404TIP3    H152627   3.487   0.834  16.573 -0.8002 -0.4639 -0.8337
10404TIP3    H252628   3.449   0.857  16.428 -1.0806  1.3242 -0.4902
10405TIP3   OH252629   0.325   3.028  14.351  0.1239 -0.3530 -0.0086
10405TIP3    H152630   0.326   2.988  14.264 -2.0459  2.7693 -1.6312
10405TIP3    H252631   0.417   3.048  14.370  0.9592 -3.4513 -0.2616
10406TIP3   OH252632   2.538   1.006   4.563 -0.0881  0.5813  0.4302
10406TIP3    H152633   2.490   0.948   4.622  1.1897  0.5094  1.4345
10406TIP3    H252634   2.501   1.093   4.581 -2.6031  0.0583 -1.6889
10407TIP3   OH252635   1.009   5.734  13.507 -0.2166  0.1748  0.2048
10407TIP3    H152636   0.917   5.755  13.490 -0.8269 -1.8253  0.7719
10407TIP3    H252637   1.040   5.805  13.564 -1.7868  0.2304  1.0480
10408TIP3   OH252638   2.326   6.718  16.074 -0.3533 -0.6641  0.1855
10408TIP3    H152639   2.313   6.630  16.040  1.0830 -0.9214  0.2683
10408TIP3    H252640   2.414   6.743  16.045  0.1805 -0.1613  2.0955
10409TIP3   OH252641   0.723   1.829  15.394  0.2686  0.4725  0.1819
10409TIP3    H152642   0.806   1.834  15.347 -0.1882  1.7249 -0.5743
10409TIP3    H252643   0.670   1.899  15.355 -1.9204 -1.6534 -0.8589
10410TIP3   OH252644   5.084   3.567   0.490 -0.0720  0.0657 -0.7231
10410TIP3    H152645   5.041   3.569   0.405  2.0253 -1.6451 -1.9236
10410TIP3    H252646   5.109   3.658   0.506 -1.9968  0.6971 -1.0660
10411TIP3   OH252647   1.304   4.672   3.255 -0.2364 -0.2222 -0.1900
10411TIP3    H152648   1.248   4.720   3.316  0.0000 -0.1423 -0.0375
10411TIP3    H252649   1.350   4.740   3.205 -0.1342 -0.2888 -0.1876
10412TIP3   OH252650   4.930   2.520  13.041 -0.2428 -0.7597  0.5790
10412TIP3    H152651   4.846   2.545  13.003  0.2132 -1.3403 -0.8711
10412TIP3    H252652   4.989   2.592  13.020  0.2490 -1.4940 -0.7405
10413TIP3   OH252653   5.856   6.744   1.455  0.6559 -0.5455 -0.2934
10413TIP3    H152654   5.886   6.687   1.385  1.8354  1.0312 -1.1488
10413TIP3    H252655   5.792   6.692   1.503  0.1617 -1.8367 -2.2513
10414TIP3   OH252656   1.016   5.096  16.382  0.2243 -0.3995 -0.2743
10414TIP3    H152657   0.944   5.136  16.431 -0.0067  0.3976 -1.2374
10414TIP3    H252658   0.985   5.007  16.364 -0.4830 -0.1025 -0.5813
10415TIP3   OH252659   1.254   0.479  13.528 -0.4624  0.4652 -0.0062
10415TIP3    H152660   1.214   0.554  13.572  0.8319  1.9831 -1.2816
10415TIP3    H252661   1.315   0.518  13.466  0.0565 -1.6696 -0.9140
10416TIP3   OH252662   5.472   0.224   5.497  0.2612  0.3426  0.6901
10416TIP3    H152663   5.475   0.291   5.428 -0.4762  2.0542  2.2289
10416TIP3    H252664   5.379   0.208   5.511  0.4181 -0.4901  0.8332
10417TIP3   OH252665   1.407   0.455  12.222 -0.1256  0.2248 -0.7062
10417TIP3    H152666   1.449   0.527  12.175 -0.2361  1.2540  0.7263
10417TIP3    H252667   1.451   0.376  12.189  1.5732  1.1145 -0.6689
10418TIP3   OH252668   0.880   0.609   1.128 -0.3499 -0.4182 -0.3743
10418TIP3    H152669   0.874   0.548   1.055  0.8615 -0.8456 -0.1408
10418TIP3    H252670   0.815   0.579   1.191 -0.3826 -0.9235 -0.6496
10419TIP3   OH252671   2.890   5.552   4.877 -0.0381 -0.1544 -0.3064
10419TIP3    H152672   2.902   5.474   4.931  0.5951  0.3830  0.3512
10419TIP3    H252673   2.978   5.585   4.862 -0.2520  0.0594 -1.1576
10420TIP3   OH252674   1.243   1.616   4.605  0.1352 -0.4445 -0.2853
10420TIP3    H152675   1.274   1.531   4.571 -0.2979 -0.8491  0.3086
10420TIP3    H252676   1.181   1.647   4.539 -0.1619 -0.8829 -0.2173
10421TIP3   OH252677   6.059   2.948   4.893  0.0124 -0.2093 -0.4675
10421TIP3    H152678   6.154   2.944   4.906 -0.1663 -1.2969  0.7264
10421TIP3    H252679   6.032   2.857   4.884 -0.8091  0.1386 -1.8776
10422TIP3   OH252680   2.788   6.745   2.698  0.5977  0.1886  0.3176
10422TIP3    H152681   2.802   6.667   2.753 -1.7286 -0.6825 -0.2032
10422TIP3    H252682   2.865   6.748   2.641  2.1796  0.0348  2.3203
10423TIP3   OH252683   4.803   2.527   6.744  0.2155  0.1939 -0.1938
10423TIP3    H152684   4.831   2.447   6.699 -0.0414 -0.1637  0.2700
10423TIP3    H252685   4.857   2.529   6.824 -0.9590 -0.4226  0.6361
10424TIP3   OH252686   6.015   3.286  12.837  0.1540  0.7194 -0.1347
10424TIP3    H152687   6.035   3.195  12.857 -1.1919  0.0561 -1.6505
10424TIP3    H252688   5.925   3.299  12.866 -0.7039  0.6631 -2.5068
10425TIP3   OH252689   1.520   5.599  12.943  0.2571  0.3080 -0.3719
10425TIP3    H152690   1.506   5.516  12.897 -2.3007 -0.2491  1.2381
10425TIP3    H252691   1.435   5.643  12.941  0.8140  1.5639  1.3106
10426TIP3   OH252692   6.469   1.283  13.403  0.3212 -0.0747 -0.2567
10426TIP3    H152693   6.525   1.341  13.456  0.2609  1.0667 -1.3961
10426TIP3    H252694   6.525   1.257  13.329 -0.3308  0.2848 -0.8851
10427TIP3   OH252695   1.827   5.941  13.773 -0.7694 -0.2298  0.0727
10427TIP3    H152696   1.786   5.923  13.857  0.3936 -0.2856  0.6457
10427TIP3    H252697   1.868   6.026  13.783  1.3320 -1.2249  0.3613
10428TIP3   OH252698   6.452   0.693  16.931 -0.7922 -0.1058 -0.4754
10428TIP3    H152699   6.503   0.682  16.852  0.7277 -3.3444  0.8002
10428TIP3    H252700   6.431   0.604  16.959 -0.1422  0.7995  3.4276
10429TIP3   OH252701   6.641   6.118   4.407  0.1256 -0.0095  0.1910
10429TIP3    H152702   6.643   6.146   4.498 -0.4059 -0.4593  0.3489
10429TIP3    H252703   6.582   6.179   4.364 -0.0413 -0.1159  0.2661
10430TIP3   OH252704   0.118   3.645  14.258  0.2368  0.5388  0.2068
10430TIP3    H152705   0.090   3.588  14.330  2.0697  0.1687  0.6750
10430TIP3    H252706   0.213   3.637  14.257  0.2519  0.0479 -2.6583
10431TIP3   OH252707   6.746   5.997   5.004 -0.1467 -0.1175  0.1402
10431TIP3    H152708   6.753   5.905   5.027  0.5018 -0.0171  0.3532
10431TIP3    H252709   6.664   6.003   4.954  0.0302 -0.8853 -0.2518
10432TIP3   OH252710   5.360   4.815  15.351  0.2222  0.1377 -0.0221
10432TIP3    H152711   5.423   4.757  15.309  0.3076 -0.4326  0.8779
10432TIP3    H252712   5.365   4.794  15.444 -0.9112  0.4537  0.1321
10433TIP3   OH252713   3.854   2.524  15.675 -0.3420 -0.2609  0.1110
10433TIP3    H152714   3.846   2.616  15.652 -0.3032 -0.1451  0.5443
10433TIP3    H252715   3.778   2.482  15.634 -0.0401 -0.1404 -0.5816
10434TIP3   OH252716   3.123   0.586  12.454  0.0175 -0.4379 -0.3004
10434TIP3    H152717   3.047   0.537  12.422  0.1782 -0.7372 -0.2268
10434TIP3    H252718   3.173   0.522  12.506 -0.0227 -0.0679  0.1967
10435TIP3   OH252719   0.495   2.611   0.595 -0.2146  0.3673  0.1849
10435TIP3    H152720   0.530   2.605   0.506  0.8073 -0.8314  0.6528
10435TIP3    H252721   0.536   2.689   0.631  0.7800 -0.1466  0.1952
10436TIP3   OH252722   6.599   5.428  13.413 -0.1077  0.2181 -1.0605
10436TIP3    H152723   6.642   5.417  13.328 -1.4921 -1.0200 -1.6390
10436TIP3    H252724   6.541   5.352  13.421 -1.4079  1.2748  0.1332
10437TIP3   OH252725   1.867   4.388  14.897 -0.0184  0.1524 -0.2792
10437TIP3    H152726   1.852   4.472  14.854 -0.1116  0.4767  0.3803
10437TIP3    H252727   1.942   4.351  14.850 -0.3154  0.3472 -0.9310
10438TIP3   OH252728   4.893   6.227  13.286  0.0647 -0.1328 -0.0690
10438TIP3    H152729   4.969   6.172  13.268  2.6436  3.0249  0.1758
10438TIP3    H252730   4.869   6.264  13.202  0.2049  0.5017  0.1622
10439TIP3   OH252731   0.002   4.040  11.477  0.5382 -0.6946 -0.1087
10439TIP3    H152732   0.011   4.134  11.467 -0.7422 -0.5943 -0.5705
10439TIP3    H252733   0.086   4.011  11.513  1.0156  0.5840 -0.1419
10440TIP3   OH252734   6.017   5.457   5.937  0.3598 -0.0832 -0.0831
10440TIP3    H152735   6.050   5.402   5.866  0.7187  0.7927 -0.6214
10440TIP3    H252736   5.923   5.462   5.921  0.3741 -0.2680 -0.2284
10441TIP3   OH252737   3.122   3.252  11.340  0.2007 -0.6644 -0.4854
10441TIP3    H152738   3.155   3.184  11.399  0.6885 -0.8368 -0.9491
10441TIP3    H252739   3.191   3.263  11.275  0.7518  1.2680  0.3553
10442TIP3   OH252740   6.270   2.973  11.244  0.0131 -0.0554  0.3455
10442TIP3    H152741   6.279   3.065  11.220 -0.4697  0.3928  1.7394
10442TIP3    H252742   6.308   2.925  11.171  1.8726  1.3046  0.3511
10443TIP3   OH252743   0.158   0.027  12.931 -0.1343  0.2455 -0.3242
10443TIP3    H152744   0.121   0.094  12.873 -0.5052  1.4787  1.2663
10443TIP3    H252745   0.100   0.026  13.007  1.0951 -0.3495  0.6504
10444TIP3   OH252746   6.420   3.978   2.136  0.0999 -0.5311 -0.0545
10444TIP3    H152747   6.327   3.987   2.117  0.0858  0.3295  0.3422
10444TIP3    H252748   6.429   3.892   2.176 -0.4809 -0.7379 -0.3658
10445TIP3   OH252749   5.405   2.613   3.578 -0.2940  0.2864 -0.3461
10445TIP3    H152750   5.348   2.615   3.501 -1.4720 -0.8315  0.4491
10445TIP3    H252751   5.412   2.520   3.600 -0.3843  0.6140  1.1643
10446TIP3   OH252752   0.921   5.541   3.803 -0.1301 -0.3923  0.3347
10446TIP3    H152753   0.842   5.527   3.751 -0.6322  1.2703  0.5970
10446TIP3    H252754   0.890   5.562   3.891  0.4965  1.8633  0.0754
10447TIP3   OH252755   5.286   1.692   5.363  0.5990 -0.0343 -0.1438
10447TIP3    H152756   5.359   1.727   5.414  0.5724 -0.8676  0.4910
10447TIP3    H252757   5.223   1.661   5.428  0.0961 -0.1838 -0.6868
10448TIP3   OH252758   5.684   3.106  14.088  0.3097  0.0647  0.0593
10448TIP3    H152759   5.746   3.142  14.024  1.3364 -0.1237  0.9212
10448TIP3    H252760   5.738   3.053  14.146 -0.5015  0.6597  1.4104
10449TIP3   OH252761   4.908   0.092  12.402 -0.1316  0.1024  0.3097
10449TIP3    H152762   4.955   0.124  12.479 -0.2097  1.6203 -0.2278
10449TIP3    H252763   4.932   0.154  12.333 -2.2488  0.4349 -0.1959
10450TIP3   OH252764   2.917   2.497   6.616  0.2882 -0.1415  0.6412
10450TIP3    H152765   2.933   2.408   6.587 -0.0498 -0.6023  1.7977
10450TIP3    H252766   2.890   2.544   6.537  1.9630 -0.6525 -0.3031
10451TIP3   OH252767   4.108   5.751   2.837  0.2840  0.2858 -0.3257
10451TIP3    H152768   4.065   5.805   2.771  0.3457  0.4545 -0.2267
10451TIP3    H252769   4.039   5.731   2.900  0.0105 -0.5927 -0.8920
10452TIP3   OH252770   5.338   3.441  12.252 -0.4105  0.4793 -0.2945
10452TIP3    H152771   5.264   3.453  12.311  0.9105  1.5979  1.2416
10452TIP3    H252772   5.310   3.373  12.192 -2.2961  0.1581  0.8631
10453TIP3   OH252773   6.667   0.939   4.258 -0.1503  0.5034 -0.0175
10453TIP3    H152774   6.653   0.863   4.202  0.1887  0.5428 -0.1551
10453TIP3    H252775   6.761   0.940   4.274 -0.2000  0.6943  0.2664
10454TIP3   OH252776   0.034   5.797   2.730  0.5440 -0.1487 -0.2817
10454TIP3    H152777   0.037   5.703   2.717  1.1119 -0.1892  0.1124
10454TIP3    H252778   0.119   5.829   2.699  0.3162  0.2485 -0.5108
10455TIP3   OH252779   3.917   2.680  17.254 -0.5014 -0.3070 -0.3100
10455TIP3    H152780   3.928   2.661  17.161  0.9132  1.6948 -0.6281
10455TIP3    H252781   3.911   2.594  17.296 -0.7708 -1.2486 -2.1982
10456TIP3   OH252782   4.034   6.054  14.538 -0.4676 -0.2304 -0.4156
10456TIP3    H152783   4.010   5.991  14.606  0.8847 -0.6695 -0.3065
10456TIP3    H252784   4.090   6.117  14.582  0.7808 -0.7667 -1.1859
10457TIP3   OH252785   4.267   0.464   1.306  0.1018  0.1102 -0.2724
10457TIP3    H152786   4.258   0.369   1.320 -3.3503  0.2209 -1.0783
10457TIP3    H252787   4.286   0.472   1.213  0.4295  0.2350 -0.1965
10458TIP3   OH252788   6.689   0.278   0.244 -0.0026  0.1416 -0.0977
10458TIP3    H152789   6.597   0.261   0.222  0.0882 -0.7240  0.1595
10458TIP3    H252790   6.696   0.374   0.246 -0.9343  0.2152  0.0380
10459TIP3   OH252791   3.030   3.672  12.864 -0.1009  0.0042 -0.7878
10459TIP3    H152792   3.046   3.624  12.945 -0.5520 -1.0698 -1.3241
10459TIP3    H252793   3.117   3.692  12.830  0.0859  0.0867 -0.2690
10460TIP3   OH252794   6.599   2.875  14.004 -0.4236 -0.4756 -0.5126
10460TIP3    H152795   6.607   2.820  14.081  1.8072  0.9706  0.3821
10460TIP3    H252796   6.552   2.820  13.940 -2.0684 -1.8152  1.6897
10461TIP3   OH252797   4.516   4.968   2.189  0.4380 -0.1446 -0.5087
10461TIP3    H152798   4.585   4.969   2.123  1.1000  0.5947  0.1803
10461TIP3    H252799   4.477   5.055   2.185  0.5252 -0.0704  0.1095
10462TIP3   OH252800   6.775   3.510  11.124 -0.4798  0.1586  0.2818
10462TIP3    H152801   6.724   3.453  11.181 -2.2643  1.6576  0.2890
10462TIP3    H252802   6.819   3.571  11.183  0.0115 -0.0938  0.1852
10463TIP3   OH252803   3.210   5.009   5.830  0.1474 -0.5224  0.3481
10463TIP3    H152804   3.231   5.075   5.897  0.1406  0.9447 -1.0300
10463TIP3    H252805   3.119   4.984   5.849 -0.6816  1.6358 -0.4561
10464TIP3   OH252806   6.286   4.145   1.798  0.1149  0.5690  0.0594
10464TIP3    H152807   6.286   4.159   1.703 -1.0825  1.2984  0.1492
10464TIP3    H252808   6.295   4.232   1.835 -1.8248  0.5718  0.6141
10465TIP3   OH252809   2.052   5.727  17.135 -0.0832 -0.2188 -0.6017
10465TIP3    H152810   2.072   5.643  17.178 -1.4259 -1.2976 -1.9593
10465TIP3    H252811   2.042   5.788  17.208  1.9097 -0.9612  0.3882
10466TIP3   OH252812   5.791   2.789   2.746 -0.0803  0.5593  0.1470
10466TIP3    H152813   5.878   2.786   2.787 -0.2556  0.6759  0.5338
10466TIP3    H252814   5.734   2.827   2.813 -0.2063  1.5729 -0.5211
10467TIP3   OH252815   1.830   1.194  15.113 -0.2209  0.4496  0.4233
10467TIP3    H152816   1.847   1.197  15.207  1.3291 -0.7056  0.2176
10467TIP3    H252817   1.907   1.151  15.076 -1.4660 -0.4719 -1.2086
10468TIP3   OH252818   5.560   2.785   1.844  0.6654  0.1427  0.0381
10468TIP3    H152819   5.525   2.727   1.911 -0.3259  0.7919  0.1091
10468TIP3    H252820   5.651   2.758   1.833  0.6510 -0.4014  1.1623
10469TIP3   OH252821   4.284   1.137   2.896 -0.4689 -0.0581 -0.0370
10469TIP3    H152822   4.316   1.149   2.807  0.5047 -1.4417  0.1008
10469TIP3    H252823   4.193   1.108   2.885 -1.5337  3.0940 -0.4465
10470TIP3   OH252824   2.649   6.124  12.884  0.4874 -0.5147  0.3885
10470TIP3    H152825   2.739   6.150  12.904  0.7926  1.2857 -2.6765
10470TIP3    H252826   2.601   6.206  12.879 -0.4663 -1.1371 -1.6030
10471TIP3   OH252827   6.064   0.606   3.980 -0.2225 -0.0776 -0.2236
10471TIP3    H152828   6.093   0.662   4.052  0.2722  0.6532 -0.9640
10471TIP3    H252829   6.139   0.549   3.963  0.3717  0.9552 -1.3002
10472TIP3   OH252830   3.421   4.415  10.979  0.1077 -0.0282  0.8317
10472TIP3    H152831   3.500   4.463  10.958  0.0586 -0.2675  0.0716
10472TIP3    H252832   3.441   4.324  10.957 -1.2277  0.2489 -1.9700
10473TIP3   OH252833   5.891   4.898   3.442 -0.1995  0.0308 -0.1350
10473TIP3    H152834   5.913   4.914   3.350  1.0474  0.8295  0.2785
10473TIP3    H252835   5.864   4.806   3.444 -2.8474  0.6681 -1.7346
10474TIP3   OH252836   5.250   3.440   0.311  0.3395  0.5567  0.1720
10474TIP3    H152837   5.155   3.451   0.316  0.1149  0.1347 -2.0099
10474TIP3    H252838   5.286   3.514   0.359 -1.0894  1.0199  0.5723
10475TIP3   OH252839   6.469   1.248   4.928 -0.2793 -0.1383 -0.0179
10475TIP3    H152840   6.553   1.294   4.933 -0.8363  1.0315 -0.9601
10475TIP3    H252841   6.492   1.159   4.901  0.8493 -0.5456  2.0603
10476TIP3   OH252842   5.489   4.253  14.589  0.0337 -0.2791  0.8090
10476TIP3    H152843   5.396   4.234  14.580  0.4547 -1.9500 -0.6280
10476TIP3    H252844   5.503   4.263  14.683 -1.5554 -0.1087  1.0536
10477TIP3   OH252845   2.569   5.306  17.108 -0.0709  0.3690  0.0253
10477TIP3    H152846   2.634   5.342  17.168 -2.3870  1.8675  1.8438
10477TIP3    H252847   2.585   5.350  17.025  1.4112  0.4210  0.3151
10478TIP3   OH252848   6.725   6.740   2.737 -0.0092  0.4404 -0.1005
10478TIP3    H152849   6.753   6.653   2.767 -0.5707 -0.0701 -0.9865
10478TIP3    H252850   6.701   6.786   2.817  1.6027  0.2805  0.5258
10479TIP3   OH252851   5.749   2.952   3.520  0.7172 -0.1649 -0.5417
10479TIP3    H152852   5.699   3.007   3.580 -0.5635 -1.4592 -0.3611
10479TIP3    H252853   5.820   2.916   3.574  1.0089  0.5587 -0.4325
10480TIP3   OH252854   4.011   5.496   4.584  0.0598  0.2153  0.0983
10480TIP3    H152855   3.973   5.444   4.655  0.2456  1.2306  0.9564
10480TIP3    H252856   3.953   5.572   4.577  0.1629  0.2294 -0.7103
10481TIP3   OH252857   3.402   5.695  13.614 -0.1684 -0.8648  0.3841
10481TIP3    H152858   3.495   5.680  13.628 -0.6769 -4.5153  0.7494
10481TIP3    H252859   3.368   5.611  13.583 -3.8828 -0.7241  3.3382
10482TIP3   OH252860   2.251   6.240  16.646  1.0408  1.1006  0.0596
10482TIP3    H152861   2.176   6.183  16.629  0.7158  1.7863 -0.8883
10482TIP3    H252862   2.290   6.205  16.726  0.8842 -0.4992 -0.5269
10483TIP3   OH252863   4.261   5.522   4.464  0.0857 -0.3095  0.0001
10483TIP3    H152864   4.312   5.543   4.543  3.3679 -0.6806 -1.8363
10483TIP3    H252865   4.170   5.521   4.494  1.0365  0.9597  3.4506
10484TIP3   OH252866   1.417   2.950  17.073 -0.2961 -0.4322 -0.5964
10484TIP3    H152867   1.360   2.873  17.078 -0.2075 -0.4928 -0.5166
10484TIP3    H252868   1.415   2.975  16.981 -1.6803  0.4963 -0.3519
10485TIP3   OH252869   4.177   4.096   3.791  0.1344 -0.1761  0.5228
10485TIP3    H152870   4.085   4.121   3.782  0.1016 -0.2394  0.6887
10485TIP3    H252871   4.207   4.084   3.701  0.5452  1.8945  0.3274
10486TIP3   OH252872   1.061   5.037   0.747  0.0636 -0.4260  0.2575
10486TIP3    H152873   1.067   5.084   0.830  1.8544 -2.4501  1.3606
10486TIP3    H252874   1.128   5.077   0.691  1.3556 -1.3820  1.0774
10487TIP3   OH252875   3.431   5.705   2.653 -0.1445 -0.1496 -0.0485
10487TIP3    H152876   3.389   5.641   2.711  0.9373 -0.4265  0.4491
10487TIP3    H252877   3.409   5.675   2.565 -2.5476  0.7619  0.1739
10488TIP3   OH252878   6.355   4.289  12.944  0.1526 -0.7465 -0.3902
10488TIP3    H152879   6.448   4.286  12.969  0.1304 -0.1872 -0.2318
10488TIP3    H252880   6.329   4.197  12.938  0.7019 -0.9082 -0.3772
10489TIP3   OH252881   6.765   1.940  11.222  0.0938  0.1705 -0.3722
10489TIP3    H152882   6.815   1.877  11.275  0.2361 -0.1369 -0.8599
10489TIP3    H252883   6.787   2.025  11.259  2.5704  0.2365 -1.7884
10490TIP3   OH252884   0.611   4.946  15.057  0.5666  0.5789 -0.2645
10490TIP3    H152885   0.574   4.874  15.006  2.2846 -0.1762 -0.5304
10490TIP3    H252886   0.614   5.020  14.996  1.8796 -0.0989 -1.0673
10491TIP3   OH252887   4.103   1.156  12.235 -0.4320  0.3195 -0.2719
10491TIP3    H152888   4.149   1.215  12.175 -1.6006  0.5558 -0.9678
10491TIP3    H252889   4.119   1.193  12.322  0.9372  0.2068 -0.4392
10492TIP3   OH252890   4.873   6.415   4.675  0.0649  0.4952  0.4962
10492TIP3    H152891   4.883   6.330   4.717 -2.8164  0.4271  1.2681
10492TIP3    H252892   4.881   6.478   4.747  1.7710  0.9212 -0.0074
10493TIP3   OH252893   3.467   5.057  12.606 -0.5968  0.0490  0.4047
10493TIP3    H152894   3.554   5.044  12.645 -0.4720 -2.6444 -0.5776
10493TIP3    H252895   3.481   5.125  12.539  0.5884  0.1251  0.6962
10494TIP3   OH252896   5.385   0.870  15.698 -0.3139 -0.4572 -0.1893
10494TIP3    H152897   5.433   0.886  15.779  0.3868  0.7766 -0.8316
10494TIP3    H252898   5.317   0.938  15.696 -0.4452 -0.5940 -0.5537
10495TIP3   OH252899   0.363   1.382   2.573  0.5589 -0.3102 -0.0542
10495TIP3    H152900   0.295   1.443   2.603  1.1738  0.7377 -0.7277
10495TIP3    H252901   0.319   1.297   2.572 -0.5080  0.2109  0.3251
10496TIP3   OH252902   1.877   6.735   2.507  0.1717 -0.0248 -0.3781
10496TIP3    H152903   1.830   6.653   2.522  0.6680 -0.3999 -0.8153
10496TIP3    H252904   1.945   6.736   2.574  1.7076 -1.1778 -1.8211
10497TIP3   OH252905   3.463   1.573  14.090 -0.4703  0.1603  0.2542
10497TIP3    H152906   3.436   1.623  14.167  1.0430  0.9103  0.3356
10497TIP3    H252907   3.559   1.572  14.095 -0.3509  0.1543 -1.5813
10498TIP3   OH252908   2.247   5.159  13.766  0.4488  0.3341 -0.9005
10498TIP3    H152909   2.243   5.248  13.800 -0.0035  0.6398 -1.7308
10498TIP3    H252910   2.246   5.169  13.671  2.9846 -0.4553 -1.0650
10499TIP3   OH252911   1.575   6.079  17.179 -0.7434 -0.1251  0.7169
10499TIP3    H152912   1.522   6.001  17.162 -0.2550 -0.5479  1.1080
10499TIP3    H252913   1.646   6.048  17.236 -0.6801  0.6544  1.0725
10500TIP3   OH252914   1.696   6.403  12.047  0.5797  0.1968  0.4758
10500TIP3    H152915   1.764   6.382  11.982  3.1917  1.5017  2.6166
10500TIP3    H252916   1.694   6.498  12.050 -1.9612  0.2272 -0.0151
10501TIP3   OH252917   5.594   4.338   0.790 -0.3025 -0.1479 -0.3026
10501TIP3    H152918   5.598   4.263   0.731  1.4701 -0.9258  0.7430
10501TIP3    H252919   5.508   4.331   0.832  0.7350 -3.1302  1.6283
10502TIP3   OH252920   6.383   3.986  17.194 -0.4681  0.0352  0.1362
10502TIP3    H152921   6.348   3.991  17.283  0.9646 -0.8469  0.7862
10502TIP3    H252922   6.305   3.984  17.138 -1.4280 -0.4271  1.4241
10503TIP3   OH252923   0.013   5.917   3.701 -0.0297  0.3281  0.8896
10503TIP3    H152924   0.026   5.998   3.651 -0.2612 -0.7628 -0.9926
10503TIP3    H252925   0.065   5.851   3.654 -2.1662 -1.2760  0.6425
10504TIP3   OH252926   5.625   0.304  12.133 -0.4656 -0.2921  0.5002
10504TIP3    H152927   5.563   0.370  12.101  1.0237  1.8046  1.6391
10504TIP3    H252928   5.711   0.345  12.120  0.6069 -2.4597  0.3875
10505TIP3   OH252929   5.423   1.785   4.358  0.5499  0.5464 -0.8422
10505TIP3    H152930   5.454   1.784   4.267 -0.2884 -0.7539 -1.1470
10505TIP3    H252931   5.340   1.736   4.355  0.0750  1.2239  0.4774
10506TIP3   OH252932   4.695   4.553   1.128  0.2161 -0.0318  0.2217
10506TIP3    H152933   4.659   4.637   1.100 -0.2867 -0.2567  0.1886
10506TIP3    H252934   4.761   4.575   1.193 -0.8987  0.3196  1.2620
10507TIP3   OH252935   6.661   1.242   3.544 -0.0869 -0.3561 -0.0510
10507TIP3    H152936   6.687   1.167   3.597  1.4851 -0.5043 -0.9792
10507TIP3    H252937   6.571   1.261   3.572  0.3005 -1.0933  1.8705
10508TIP3   OH252938   1.982   6.061  16.655 -0.1318 -0.0803 -0.0788
10508TIP3    H152939   1.947   6.129  16.712 -0.5353  0.5838 -1.0823
10508TIP3    H252940   1.906   6.026  16.609  0.3290  0.3331 -1.1826
10509TIP3   OH252941   5.372   1.834  16.711 -0.2410 -0.0474  0.2998
10509TIP3    H152942   5.316   1.898  16.755  2.2235  3.2027 -0.9068
10509TIP3    H252943   5.436   1.809  16.778 -0.3497 -0.1365  0.3708
10510TIP3   OH252944   5.453   1.769   4.036 -0.6929  0.4946  0.0621
10510TIP3    H152945   5.365   1.805   4.024 -0.3427  0.5775 -3.0011
10510TIP3    H252946   5.510   1.825   3.983  0.5220 -2.0476 -1.4982
10511TIP3   OH252947   0.266   0.703  12.326 -0.7004 -0.0398 -0.3225
10511TIP3    H152948   0.245   0.613  12.299 -0.6373  0.2209 -1.2726
10511TIP3    H252949   0.247   0.705  12.420  0.0584 -1.2690 -0.1165
10512TIP3   OH252950   5.302   5.192   1.046  0.3419  0.1030 -0.2063
10512TIP3    H152951   5.275   5.137   0.972 -0.4282  0.6588 -0.3522
10512TIP3    H252952   5.225   5.245   1.065  0.7807  0.4888  0.5229
10513TIP3   OH252953   3.397   0.271   4.777  0.3718 -0.0837 -0.7681
10513TIP3    H152954   3.394   0.205   4.847  0.7068  0.2737 -0.4084
10513TIP3    H252955   3.484   0.309   4.785  0.5468 -0.2950 -1.6262
10514TIP3   OH252956   6.005   4.940   4.063  0.5873 -0.0639 -0.1531
10514TIP3    H152957   6.063   5.000   4.016  0.3529 -0.8326 -1.4612
10514TIP3    H252958   6.048   4.855   4.055  0.0591 -0.3663  0.2202
10515TIP3   OH252959   4.047   3.906   0.686 -0.2016 -0.0553  0.5894
10515TIP3    H152960   3.992   3.978   0.653  1.6503  1.0460 -0.2181
10515TIP3    H252961   4.012   3.889   0.773 -1.9421  0.4731  0.0521
10516TIP3   OH252962   0.342   1.893  16.204  0.6506 -0.0286 -0.3650
10516TIP3    H152963   0.333   1.912  16.110  0.8317  0.6684 -0.2450
10516TIP3    H252964   0.254   1.868  16.232 -0.1395  2.6969 -0.0945
10517TIP3   OH252965   2.069   2.481  16.938 -0.9237 -0.2214 -0.3298
10517TIP3    H152966   2.161   2.477  16.964 -0.8792 -0.6001 -0.5445
10517TIP3    H252967   2.032   2.550  16.993 -0.9928 -1.4890  1.3041
10518TIP3   OH252968   0.168   2.518  11.619  0.2840 -0.3628  0.5037
10518TIP3    H152969   0.173   2.592  11.680  0.4480  1.0370 -1.1179
10518TIP3    H252970   0.084   2.477  11.637  0.7544 -0.6133  2.3137
10519TIP3   OH252971   6.105   3.285  12.552 -0.4256  0.4235  0.3613
10519TIP3    H152972   6.079   3.283  12.644 -1.7606  0.5376  0.0106
10519TIP3    H252973   6.156   3.365  12.543  3.6826 -1.7027  1.9287
10520TIP3   OH252974   5.400   6.525  14.914  0.0133  0.4183  0.0786
10520TIP3    H152975   5.400   6.526  14.818 -0.0005 -1.2762  0.0271
10520TIP3    H252976   5.324   6.472  14.938 -0.0348  0.8965  1.0476
10521TIP3   OH252977   0.586   4.112  12.610  0.2546  0.3937  0.0377
10521TIP3    H152978   0.509   4.169  12.614  1.6161  2.3307  0.3660
10521TIP3    H252979   0.640   4.150  12.540  1.5931  0.0619  0.8426
10522TIP3   OH252980   5.722   5.467  16.807  0.1962 -0.4835 -0.2202
10522TIP3    H152981   5.741   5.559  16.786 -2.3223  0.0448 -0.4800
10522TIP3    H252982   5.727   5.464  16.903  0.8388 -0.2354 -0.2360
10523TIP3   OH252983   0.215   0.571  13.804  0.3805 -0.6464  0.1943
10523TIP3    H152984   0.301   0.568  13.847  1.4499  2.3283 -1.4266
10523TIP3    H252985   0.153   0.586  13.875  1.6907  0.9180  1.0788
10524TIP3   OH252986   0.582   5.578  16.838 -0.0948 -0.1115 -0.0403
10524TIP3    H152987   0.500   5.554  16.881  0.3571  0.2091  1.0370
10524TIP3    H252988   0.557   5.605  16.750 -0.8435 -2.5652 -0.6346
10525TIP3   OH252989   0.765   1.695   0.215  0.6367  0.4925  0.3513
10525TIP3    H152990   0.721   1.780   0.215  0.5928  0.5337  2.5990
10525TIP3    H252991   0.752   1.662   0.304 -0.0211 -2.2375 -0.6905
10526TIP3   OH252992   5.281   1.481   2.422 -0.0837 -1.2968  0.2651
10526TIP3    H152993   5.245   1.437   2.499 -1.8986  0.5672  0.5638
10526TIP3    H252994   5.224   1.455   2.350 -0.4326 -0.4056  0.2119
10527TIP3   OH252995   2.894   0.710  11.609  0.3997 -0.2172 -0.6614
10527TIP3    H152996   2.926   0.799  11.597  0.7763  0.1201  2.2172
10527TIP3    H252997   2.864   0.706  11.700 -2.0109 -2.3314 -1.4278
10528TIP3   OH252998   3.747   5.429  16.720 -0.4267  0.0743 -0.1186
10528TIP3    H152999   3.794   5.353  16.754  1.3929  1.1413 -0.0698
10528TIP3    H253000   3.776   5.435  16.629  1.9568  2.3763  0.6365
10529TIP3   OH253001   0.306   1.603   2.861  0.1976 -0.5884 -0.1901
10529TIP3    H153002   0.240   1.670   2.878 -0.2797 -1.1190  0.0403
10529TIP3    H253003   0.267   1.547   2.793  1.0539  0.0218 -1.2177
10530TIP3   OH253004   2.265   1.790   1.216 -0.2492 -0.4081  0.0139
10530TIP3    H153005   2.295   1.881   1.212 -1.3435  0.0078  0.7822
10530TIP3    H253006   2.198   1.784   1.148 -0.1577 -0.6490 -0.0547
10531TIP3   OH253007   2.493   1.339  16.539 -0.1529 -0.0899  0.3952
10531TIP3    H153008   2.526   1.340  16.449 -1.0788 -1.7118  0.0080
10531TIP3    H253009   2.536   1.414  16.581  1.8003 -0.4461 -0.8502
10532TIP3   OH253010   0.359   0.587  12.018  0.1368  0.0785  0.7056
10532TIP3    H153011   0.296   0.537  12.070 -0.0529 -0.0944  0.3133
10532TIP3    H253012   0.440   0.583  12.068  0.2041 -0.8819  0.5285
10533TIP3   OH253013   1.970   1.951   1.851  0.1345 -0.3151 -0.2026
10533TIP3    H153014   1.876   1.938   1.867 -0.0876  0.7649 -0.4787
10533TIP3    H253015   2.003   1.865   1.829 -0.5120 -0.9703  1.2821
10534TIP3   OH253016   4.721   5.903   3.911 -0.0521  0.2174  0.1883
10534TIP3    H153017   4.716   5.979   3.853 -1.1768  0.2742  0.3452
10534TIP3    H253018   4.793   5.851   3.876 -1.8298 -0.6820 -2.4176
10535TIP3   OH253019   6.356   4.853  13.991 -0.1304 -0.1956 -0.3166
10535TIP3    H153020   6.272   4.807  13.996 -0.9567  1.2112 -0.6528
10535TIP3    H253021   6.403   4.826  14.070  0.0226 -2.6645 -1.1679
10536TIP3   OH253022   6.752   5.188  15.629 -0.2371 -0.0018 -0.0197
10536TIP3    H153023   6.736   5.222  15.541  2.0643  0.2577 -0.4164
10536TIP3    H253024   6.668   5.193  15.673 -0.9791  1.9010 -1.5262
10537TIP3   OH253025   0.958   4.089   4.239  0.6267  0.1019  0.3546
10537TIP3    H153026   0.977   4.090   4.332 -0.5726  1.2015  0.6093
10537TIP3    H253027   0.989   4.174   4.206  0.7359 -0.1397 -0.1874
10538TIP3   OH253028   2.237   3.386   2.249  0.5083 -0.2038  1.1241
10538TIP3    H153029   2.149   3.367   2.282  0.2490  0.8973  1.1094
10538TIP3    H253030   2.294   3.377   2.325  0.4228 -1.0712  1.1017
10539TIP3   OH253031   0.518   5.515   0.433 -0.1557 -0.3607 -0.2773
10539TIP3    H153032   0.573   5.573   0.485 -1.5486  2.0204 -1.2700
10539TIP3    H253033   0.547   5.529   0.343 -1.6246  0.1090 -0.7033
10540TIP3   OH253034   0.461   5.044   3.338  0.1707 -0.4404 -0.1232
10540TIP3    H153035   0.385   5.006   3.294 -0.1595  0.0490  0.0222
10540TIP3    H253036   0.533   5.033   3.276  0.7494 -3.7865  0.9127
10541TIP3   OH253037   5.402   3.817   5.472 -0.1275  0.2467  0.4672
10541TIP3    H153038   5.402   3.728   5.437 -1.2386  0.3544  0.1471
10541TIP3    H253039   5.490   3.829   5.507  0.3017 -0.6754 -0.2446
10542TIP3   OH253040   1.942   3.982  15.818 -0.2346 -0.2268 -0.0441
10542TIP3    H153041   1.978   4.060  15.860  1.0454 -0.1123 -1.2958
10542TIP3    H253042   1.989   3.909  15.858 -0.8994 -0.3290  0.5840
10543TIP3   OH253043   5.489   2.509   2.406  0.3099  0.0939  0.3361
10543TIP3    H153044   5.560   2.565   2.438 -1.2349  1.0028  2.3728
10543TIP3    H253045   5.416   2.570   2.389 -0.5748 -1.0054  0.0606
10544TIP3   OH253046   4.081   1.665  15.466  0.6123  0.4811  0.2309
10544TIP3    H153047   4.161   1.659  15.414 -1.0520 -2.8160 -2.3638
10544TIP3    H253048   4.100   1.612  15.544  0.9995 -0.2640 -0.3535
10545TIP3   OH253049   5.609   0.925   3.670  0.6960 -0.2941 -0.5673
10545TIP3    H153050   5.550   0.874   3.725  0.5710  1.0345  0.5613
10545TIP3    H253051   5.561   1.005   3.649  1.9853  0.7080  0.1751
10546TIP3   OH253052   2.502   3.439   0.497 -0.5663 -0.1886  0.2146
10546TIP3    H153053   2.493   3.532   0.517 -0.1330 -0.3737  1.3274
10546TIP3    H253054   2.414   3.411   0.473 -0.5315  0.7019 -1.0802
10547TIP3   OH253055   6.071   4.055   0.820 -0.1799  0.6533  0.3363
10547TIP3    H153056   6.140   4.016   0.765  0.3217  1.2249  0.5581
10547TIP3    H253057   6.051   3.986   0.884  0.6022  0.6904  0.6355
10548TIP3   OH253058   5.666   6.165   3.133  0.0215  0.2858  0.5560
10548TIP3    H153059   5.719   6.149   3.210  0.3722 -0.5632  0.1605
10548TIP3    H253060   5.678   6.086   3.079  0.6807  1.3183 -0.8801
10549TIP3   OH253061   1.087   4.499   2.371 -0.4990 -0.3558 -0.5349
10549TIP3    H153062   1.097   4.485   2.465  0.8335  1.3742 -0.3843
10549TIP3    H253063   1.128   4.584   2.354 -0.8277 -0.5620 -2.6649
10550TIP3   OH253064   6.634   4.751  14.998  0.6425  0.7171  0.2035
10550TIP3    H153065   6.582   4.722  14.923  1.6582 -0.6247 -0.0196
10550TIP3    H253066   6.686   4.674  15.022  1.6239  1.6519  1.1845
10551TIP3   OH253067   0.230   6.026   5.817 -0.3069  0.1088  0.4290
10551TIP3    H153068   0.158   6.081   5.848  0.0200  0.1970  1.0611
10551TIP3    H253069   0.252   5.970   5.893  0.3083  0.1109  0.2607
10552TIP3   OH253070   1.656   3.295  10.667  0.2796  0.0011  0.3242
10552TIP3    H153071   1.598   3.237  10.716 -2.7816  2.1243 -0.5218
10552TIP3    H253072   1.607   3.316  10.588  2.4726  1.5583 -0.7087
10553TIP3   OH253073   0.878   3.334  10.944  0.7648 -0.1392  0.0529
10553TIP3    H153074   0.944   3.302  10.882 -0.7744 -1.0685 -1.1712
10553TIP3    H253075   0.820   3.389  10.891 -0.5089 -0.8443  0.6674
10554TIP3   OH253076   2.973   5.729  16.330 -0.0675 -0.0915  0.1013
10554TIP3    H153077   2.961   5.714  16.236  0.0344  0.1392  0.0529
10554TIP3    H253078   2.903   5.791  16.353 -0.4734 -0.6117  0.3000
10555TIP3   OH253079   2.434   4.727  12.229  0.1542 -0.4040  0.4978
10555TIP3    H153080   2.516   4.715  12.278 -0.2807 -2.3765  0.8072
10555TIP3    H253081   2.388   4.644  12.238 -0.6619 -0.2990 -1.9990
10556TIP3   OH253082   5.466   6.645  15.367 -0.0689 -0.4893 -0.1933
10556TIP3    H153083   5.514   6.659  15.285  0.3325 -1.8516 -0.2220
10556TIP3    H253084   5.530   6.664  15.435  0.0060 -0.6517 -0.2172
10557TIP3   OH253085   1.842   0.995   1.726  0.1408  0.0957 -0.0000
10557TIP3    H153086   1.844   1.049   1.805 -2.3319 -1.8589  1.5734
10557TIP3    H253087   1.749   0.975   1.714  0.5673 -0.5503 -2.8332
10558TIP3   OH253088   3.072   3.855   1.433  0.6548  0.7247  0.5602
10558TIP3    H153089   3.056   3.762   1.417  0.0193  0.5838  1.9101
10558TIP3    H253090   3.082   3.892   1.346 -0.4384 -0.3666 -0.0710
10559TIP3   OH253091   0.238   5.038   5.751 -0.1906  0.5320 -0.6227
10559TIP3    H153092   0.295   4.979   5.701 -0.0275 -0.1621  0.3745
10559TIP3    H253093   0.268   5.126   5.726  0.8775  0.1836 -0.6303
10560TIP3   OH253094   0.087   4.749   3.797  0.0238 -0.5218  0.2209
10560TIP3    H153095   0.057   4.686   3.731  1.8572 -0.8652 -0.3252
10560TIP3    H253096   0.011   4.806   3.811 -0.7765 -1.1310 -1.3393
10561TIP3   OH253097   3.596   5.339   2.813  0.0810 -0.6003  0.2534
10561TIP3    H153098   3.596   5.254   2.858 -4.1842 -0.3776  1.1050
10561TIP3    H253099   3.606   5.403   2.884  0.3718 -0.3343 -0.0268
10562TIP3   OH253100   2.082   6.493  11.478 -0.0725 -0.5811 -0.2562
10562TIP3    H153101   2.048   6.423  11.533 -1.6629 -0.6681 -1.2863
10562TIP3    H253102   2.174   6.469  11.462  0.2402 -0.8801  1.7628
10563TIP3   OH253103   3.248   1.375   3.559 -0.5906 -0.4376 -0.2974
10563TIP3    H153104   3.293   1.291   3.551 -1.3705 -1.0506  1.3191
10563TIP3    H253105   3.316   1.440   3.541  0.1372 -1.3786 -1.1242
10564TIP3   OH253106   1.369   3.155  12.048  0.4177  0.2818  0.1045
10564TIP3    H153107   1.410   3.109  11.975  1.6869  1.4633  0.0439
10564TIP3    H253108   1.425   3.137  12.123 -0.8381 -0.8642  0.8117
10565TIP3   OH253109   2.024   0.196   3.318  0.7394 -0.2335  0.4317
10565TIP3    H153110   2.047   0.146   3.397 -1.4472  0.1656  1.3745
10565TIP3    H253111   2.101   0.186   3.262  1.6709 -1.9911  1.8764
10566TIP3   OH253112   3.885   1.793  12.008  0.3236 -0.3172 -0.1308
10566TIP3    H153113   3.826   1.764  11.939 -1.0067 -1.1826  1.3041
10566TIP3    H253114   3.845   1.873  12.042  1.3084  0.4610 -0.7528
10567TIP3   OH253115   2.706   0.730  15.855 -0.0077 -0.4131  0.4796
10567TIP3    H153116   2.799   0.742  15.874 -0.0077  1.2031 -0.3709
10567TIP3    H253117   2.686   0.642  15.886  1.9736 -1.0615 -0.0020
10568TIP3   OH253118   3.163   1.390  13.711 -0.2644 -0.3724  0.0418
10568TIP3    H153119   3.208   1.307  13.729  2.1506  0.9730  0.7234
10568TIP3    H253120   3.211   1.455  13.762  0.6297  2.0906 -3.4946
10569TIP3   OH253121   3.335   2.093   4.658  0.1502  0.1951  0.2590
10569TIP3    H153122   3.376   2.024   4.605 -0.0806 -0.5859  1.0708
10569TIP3    H253123   3.362   2.073   4.748  0.5948  1.5395  0.4407
10570TIP3   OH253124   6.729   3.214   1.911 -0.0776  0.4721 -0.1159
10570TIP3    H153125   6.781   3.208   1.831 -2.0238 -0.2373 -1.4157
10570TIP3    H253126   6.643   3.246   1.882 -0.9479 -0.1187  1.6301
10571TIP3   OH253127   4.817   1.304  13.319  0.0205 -0.0479 -0.4144
10571TIP3    H153128   4.817   1.337  13.409  0.9909  1.1524 -0.8235
10571TIP3    H253129   4.904   1.325  13.286 -0.7419  0.7239 -2.0548
10572TIP3   OH253130   5.425   5.744  12.143  0.1411 -0.7896  0.1619
10572TIP3    H153131   5.513   5.712  12.163  0.1545 -0.8816 -0.0430
10572TIP3    H253132   5.373   5.722  12.220  0.0758 -1.5876 -0.1041
10573TIP3   OH253133   2.423   2.585   5.450  0.2912  0.6510  0.5079
10573TIP3    H153134   2.472   2.507   5.479  0.1554  1.3193  2.7367
10573TIP3    H253135   2.349   2.590   5.510  0.4434  2.6401  0.6003
10574TIP3   OH253136   1.080   3.974   0.631 -0.3526  0.4437 -0.2680
10574TIP3    H153137   1.047   4.054   0.590  1.8935  1.3778 -0.3685
10574TIP3    H253138   1.027   3.904   0.591 -0.1656  1.5754 -2.6980
10575TIP3   OH253139   1.343   0.884   4.968 -0.2343  0.0815  0.0224
10575TIP3    H153140   1.364   0.797   4.934 -1.7440 -0.0637 -0.6036
10575TIP3    H253141   1.295   0.868   5.049 -0.8537  0.3063 -0.2903
10576TIP3   OH253142   0.679   5.203  13.720  0.8109 -0.2373  0.1302
10576TIP3    H153143   0.654   5.110  13.716 -1.4861  0.3694 -1.0093
10576TIP3    H253144   0.708   5.216  13.810 -0.9843 -1.5693  0.9508
10577TIP3   OH253145   0.605   3.263  13.801 -0.3865 -0.4864 -0.6548
10577TIP3    H153146   0.647   3.344  13.771  1.0976 -1.0235 -0.1226
10577TIP3    H253147   0.667   3.226  13.864 -0.7974 -2.2985 -1.2590
10578TIP3   OH253148   3.552   0.147  11.376 -0.1845 -0.1125  0.4800
10578TIP3    H153149   3.610   0.223  11.383 -0.6553  0.2546  0.4634
10578TIP3    H253150   3.611   0.073  11.366  0.2783  0.2701  0.3261
10579TIP3   OH253151   3.959   5.914   2.119  0.1760 -0.1258 -0.5516
10579TIP3    H153152   3.990   5.824   2.125 -0.6917 -0.6163 -2.6047
10579TIP3    H253153   3.925   5.922   2.030 -6.3073  0.0524  1.4518
10580TIP3   OH253154   6.692   0.057  13.126  0.2467  0.4987  0.0313
10580TIP3    H153155   6.671   0.149  13.143  1.1061  0.7999 -0.4322
10580TIP3    H253156   6.638   0.008  13.187 -1.1449  1.2473 -0.5488
10581TIP3   OH253157   0.839   5.096   4.268  0.0272 -0.2014  0.5650
10581TIP3    H153158   0.847   5.184   4.305  0.4247  0.4270 -0.9606
10581TIP3    H253159   0.748   5.091   4.238 -0.0539 -0.3892  0.8415
10582TIP3   OH253160   2.960   3.758   4.971  0.1806  0.3076  0.5733
10582TIP3    H153161   2.986   3.850   4.965 -0.7331  0.4878 -1.5055
10582TIP3    H253162   2.986   3.720   4.887 -0.0493 -1.1858  1.1407
10583TIP3   OH253163   5.309   4.193  12.461  0.4430 -0.2791  0.0595
10583TIP3    H153164   5.314   4.275  12.411  1.1977  0.1449  0.8139
10583TIP3    H253165   5.326   4.125  12.395  3.0132  0.3553 -0.0465
10584TIP3   OH253166   3.955   3.947  13.744  0.5909 -0.2389  1.1052
10584TIP3    H153167   3.893   3.949  13.816 -1.0295 -2.3307 -0.1358
10584TIP3    H253168   4.038   3.921  13.784 -0.3679 -1.7490  2.1942
10585TIP3   OH253169   2.187   1.914  13.607  0.3940  0.1025  0.2584
10585TIP3    H153170   2.105   1.928  13.655  0.4958  1.8990 -0.0239
10585TIP3    H253171   2.160   1.908  13.516  0.3001 -2.3994  0.3801
10586TIP3   OH253172   3.166   0.525   2.004 -0.5336  0.1117  0.2601
10586TIP3    H153173   3.242   0.471   1.980 -1.0895  0.2785 -2.1284
10586TIP3    H253174   3.117   0.472   2.066 -0.0513 -1.3049 -0.5357
10587TIP3   OH253175   3.969   2.638   2.074  0.0560 -0.4441 -0.0194
10587TIP3    H153176   3.899   2.573   2.059 -0.8034  0.5170 -0.3092
10587TIP3    H253177   4.007   2.651   1.987 -0.1264 -0.1817 -0.0621
10588TIP3   OH253178   6.593   1.609  10.897 -0.5043  0.1120 -0.3456
10588TIP3    H153179   6.558   1.690  10.858  2.3999  1.7870  0.1714
10588TIP3    H253180   6.630   1.561  10.823 -1.8838 -0.5775 -0.6034
10589TIP3   OH253181   4.171   5.043  13.680  0.2058 -0.5293  0.3767
10589TIP3    H153182   4.263   5.033  13.656  0.5741 -0.9526  1.8668
10589TIP3    H253183   4.170   5.112  13.746 -0.6537  0.0405 -0.2138
10590TIP3   OH253184   5.568   1.609  14.549 -0.7718 -0.0850 -0.0150
10590TIP3    H153185   5.549   1.577  14.637  1.2380 -1.2783  0.0595
10590TIP3    H253186   5.520   1.692  14.542 -2.1859 -0.7111  1.6228
10591TIP3   OH253187   1.505   5.023   6.152  0.1565 -0.0280  0.1177
10591TIP3    H153188   1.519   4.940   6.106  1.2078 -0.9959  2.0501
10591TIP3    H253189   1.441   5.002   6.220 -1.9022  1.5406 -1.1996
10592TIP3   OH253190   0.049   0.533   5.503 -0.4338 -0.4488 -0.0883
10592TIP3    H153191  -0.020   0.473   5.473 -2.0025  0.2895  1.8160
10592TIP3    H253192   0.108   0.478   5.555 -0.8685 -0.6819  0.1624
10593TIP3   OH253193   0.205   0.756   0.969 -0.0030 -0.3906 -0.5110
10593TIP3    H153194   0.290   0.800   0.981  0.6779 -1.5659 -0.8621
10593TIP3    H253195   0.142   0.816   1.008  0.7906  1.2482 -1.6114
10594TIP3   OH253196   4.944   5.982   4.222 -0.0110  0.0021  0.4279
10594TIP3    H153197   4.948   6.031   4.141  1.4497  0.7094  0.8919
10594TIP3    H253198   4.888   5.907   4.202 -2.0333  1.6392 -0.3865
10595TIP3   OH253199   4.859   6.334   3.402 -0.9629 -0.1625 -0.5155
10595TIP3    H153200   4.952   6.332   3.425 -0.9488 -1.9944 -0.5406
10595TIP3    H253201   4.847   6.417   3.358  0.4637  0.5207  0.3032
10596TIP3   OH253202   1.410   4.829  14.839  0.0922  0.9126 -0.1249
10596TIP3    H153203   1.321   4.796  14.851 -0.4056  0.8911 -3.1157
10596TIP3    H253204   1.467   4.760  14.873 -0.9463  1.5175  3.1277
10597TIP3   OH253205   2.917   1.029  10.792 -0.0335  0.4393 -0.4617
10597TIP3    H153206   2.945   0.955  10.845 -1.2256  0.8350  0.7832
10597TIP3    H253207   2.995   1.053  10.741  1.0133 -0.2507  0.7652
10598TIP3   OH253208   4.048   1.419  13.759  0.6644  0.3300  0.7307
10598TIP3    H153209   4.026   1.493  13.816  1.8248  0.0571  1.5713
10598TIP3    H253210   4.049   1.344  13.818 -0.8750 -0.4544 -0.1810
10599TIP3   OH253211   0.471   1.715   1.368 -0.1868 -0.0420  0.2714
10599TIP3    H153212   0.558   1.755   1.365 -1.3315  2.6964  0.2106
10599TIP3    H253213   0.438   1.721   1.278 -0.4077 -1.1859  0.2626
10600TIP3   OH253214   5.462   3.980   4.366 -0.4074  0.1409  0.5323
10600TIP3    H153215   5.467   4.061   4.314  0.3864  2.0361  3.2874
10600TIP3    H253216   5.372   3.950   4.356 -0.1409 -0.0051 -2.3532
10601TIP3   OH253217   2.642   5.861   4.730 -0.4183 -0.1013 -0.1738
10601TIP3    H153218   2.591   5.931   4.689  1.1241  0.2058 -1.7132
10601TIP3    H253219   2.665   5.802   4.658 -1.1613 -1.8970  0.9935
10602TIP3   OH253220   1.311   2.906  16.824 -0.5064 -0.1276  0.1701
10602TIP3    H153221   1.218   2.888  16.812 -0.5597 -0.1608  0.6389
10602TIP3    H253222   1.355   2.835  16.777 -0.7198 -1.0423  1.3124
10603TIP3   OH253223   0.093   0.733   1.398 -0.0490  0.0987  0.0898
10603TIP3    H153224   0.110   0.820   1.360  0.6752 -0.5870 -1.2090
10603TIP3    H253225   0.047   0.685   1.329 -1.6514 -0.1556  1.2729
10604TIP3   OH253226   3.374   0.471   5.945 -0.4388  0.1384  0.2887
10604TIP3    H153227   3.375   0.474   6.041 -0.2416 -1.3278  0.3480
10604TIP3    H253228   3.307   0.406   5.924  1.0829 -1.2294 -0.5000
10605TIP3   OH253229   2.602   4.288   5.003  0.1087  0.1987 -0.0895
10605TIP3    H153230   2.642   4.293   5.090  0.2321 -0.4308 -0.1064
10605TIP3    H253231   2.642   4.361   4.955 -1.4921  1.8598  0.9766
10606TIP3   OH253232   3.723   6.326   0.536  0.1642 -0.2193  0.7116
10606TIP3    H153233   3.695   6.417   0.542  1.9404  0.3001  1.6070
10606TIP3    H253234   3.707   6.290   0.623  0.3856 -0.4794  0.6458
10607TIP3   OH253235   5.745   0.940   2.162 -0.1043 -0.5203  0.3041
10607TIP3    H153236   5.731   1.035   2.164  0.0958 -0.4749 -0.1840
10607TIP3    H253237   5.672   0.904   2.211 -0.0393 -0.0971  0.7188
10608TIP3   OH253238   3.104   2.535  15.897  0.0660 -0.0302  0.1193
10608TIP3    H153239   3.013   2.512  15.877  0.1498 -1.7351  1.5151
10608TIP3    H253240   3.114   2.623  15.861 -1.4947 -0.6080 -1.9063
10609TIP3   OH253241   1.522   2.613   3.923 -0.0504  0.3083  0.1582
10609TIP3    H153242   1.485   2.524   3.930 -2.9686  1.3684 -0.1582
10609TIP3    H253243   1.580   2.621   3.999 -1.3297 -1.2002  1.3740
10610TIP3   OH253244   4.711   2.699  15.320  0.5527  0.2658 -0.0683
10610TIP3    H153245   4.786   2.642  15.306  0.2838 -0.2888  0.7033
10610TIP3    H253246   4.657   2.688  15.242  2.4673  2.6450 -1.9215
10611TIP3   OH253247   5.122   4.121  17.020 -0.4334 -0.6175 -0.8701
10611TIP3    H153248   5.150   4.199  16.972 -0.3427 -0.5437 -0.7019
10611TIP3    H253249   5.028   4.116  17.005 -0.4246 -0.5261 -0.9551
10612TIP3   OH253250   3.342   0.701  11.027  0.1142  0.2833 -0.4274
10612TIP3    H153251   3.258   0.660  11.009 -1.1687  2.8499 -0.7323
10612TIP3    H253252   3.400   0.670  10.957 -0.8285 -0.7971 -0.7521
10613TIP3   OH253253   2.387   2.795  14.360  0.0612 -0.5577 -0.4193
10613TIP3    H153254   2.401   2.774  14.452  1.4521  0.4526 -0.3583
10613TIP3    H253255   2.473   2.784  14.320  0.1156  1.6166 -1.0318
10614TIP3   OH253256   3.682   1.193   5.370 -0.1264 -0.1960  0.7997
10614TIP3    H153257   3.758   1.136   5.372 -0.5801 -0.8282  0.3969
10614TIP3    H253258   3.708   1.265   5.311  0.8712  0.6718  2.2292
10615TIP3   OH253259   1.683   1.060  12.317 -0.4795 -0.5190 -0.0015
10615TIP3    H153260   1.710   1.053  12.409  0.0658 -1.9065 -0.2411
10615TIP3    H253261   1.759   1.029  12.268  0.2423  2.5968 -1.0994
10616TIP3   OH253262   5.310   2.264  12.315 -0.2386 -0.6373  0.0418
10616TIP3    H153263   5.385   2.308  12.354  1.1009 -2.4689 -0.3343
10616TIP3    H253264   5.340   2.239  12.227 -1.9890  0.3283 -0.8881
10617TIP3   OH253265   4.557   1.205   5.538 -0.1156 -0.5468 -0.2423
10617TIP3    H153266   4.552   1.153   5.458  0.4671  0.7777 -1.1864
10617TIP3    H253267   4.542   1.143   5.609 -2.7757 -1.4047 -1.4491
10618TIP3   OH253268   5.663   1.295   3.996  0.6071 -0.6179  0.1337
10618TIP3    H153269   5.743   1.340   3.965 -0.0387 -0.0566 -0.7828
10618TIP3    H253270   5.594   1.360   3.983 -0.3264 -1.8101 -1.0682
10619TIP3   OH253271   6.464   0.992   4.759 -0.0399  0.2849  0.2301
10619TIP3    H153272   6.551   1.031   4.747 -0.9458  1.6940 -2.9427
10619TIP3    H253273   6.475   0.902   4.728  0.3118  0.4763 -0.2294
10620TIP3   OH253274   1.347   4.026   0.260 -0.1189  0.0249 -0.0501
10620TIP3    H153275   1.399   4.037   0.340 -1.7402 -0.7937  1.1694
10620TIP3    H253276   1.280   3.962   0.283 -1.2172  0.4736 -1.7905
10621TIP3   OH253277   3.162   1.086   1.980  0.3657  0.0002  0.3337
10621TIP3    H153278   3.141   1.169   2.023  1.9881  0.2377  0.7193
10621TIP3    H253279   3.151   1.020   2.048  0.8224  0.1233  0.5323
10622TIP3   OH253280   6.297   4.591  15.043 -0.4318 -0.8702  0.6208
10622TIP3    H153281   6.208   4.561  15.028  0.1167 -2.1954 -0.1504
10622TIP3    H253282   6.325   4.629  14.960 -0.1285 -0.8607  0.7243
10623TIP3   OH253283   5.016   1.163   4.368  0.4778 -0.6170 -0.2159
10623TIP3    H153284   4.956   1.198   4.433 -0.4846 -2.1793 -0.2163
10623TIP3    H253285   4.961   1.145   4.292  0.5581 -3.5079  0.2966
10624TIP3   OH253286   4.497   5.123   6.000  0.1091 -0.5280  0.3121
10624TIP3    H153287   4.535   5.193   6.052 -0.6993 -0.0009  0.2006
10624TIP3    H253288   4.411   5.108   6.038 -0.6725  0.1658 -1.1324
10625TIP3   OH253289   0.994   5.749  15.568  0.5789  0.1533 -0.6526
10625TIP3    H153290   1.035   5.821  15.615 -0.7874  0.8648 -0.4855
10625TIP3    H253291   0.974   5.786  15.482  0.5793 -0.2780 -0.8390
10626TIP3   OH253292   2.229   4.444   2.396  0.4343 -0.0530  0.7690
10626TIP3    H153293   2.239   4.535   2.369 -2.5801 -0.0702 -0.8979
10626TIP3    H253294   2.300   4.398   2.351  0.0047  1.0560 -1.1801
10627TIP3   OH253295   3.221   0.160   4.123  0.3456 -0.1035 -0.0165
10627TIP3    H153296   3.169   0.171   4.202 -1.2625  0.0208 -1.0619
10627TIP3    H253297   3.259   0.247   4.107 -0.0129  0.0828  0.1360
10628TIP3   OH253298   0.354   1.668   5.853 -0.0132  0.2113 -0.9935
10628TIP3    H153299   0.302   1.637   5.779 -0.2429 -0.0609 -0.7202
10628TIP3    H253300   0.433   1.705   5.813 -0.0632 -0.0772 -1.3658
10629TIP3   OH253301   2.020   1.763   4.428 -0.0023  0.3828  0.2792
10629TIP3    H153302   1.960   1.694   4.457  0.3176 -1.3143 -2.6956
10629TIP3    H253303   1.973   1.809   4.358  1.6459 -0.2161 -1.3084
10630TIP3   OH253304   4.215   4.061   0.538 -0.5263  0.0381 -0.0992
10630TIP3    H153305   4.184   4.151   0.544  0.2643  0.2574  1.1923
10630TIP3    H253306   4.153   4.011   0.591  0.3672  0.2380  1.2027
10631TIP3   OH253307   2.483   6.131  16.202  0.8661  0.1881  0.0961
10631TIP3    H153308   2.527   6.116  16.286  1.6360  0.0100 -0.3327
10631TIP3    H253309   2.428   6.208  16.217  0.9644  0.1323  0.7748
10632TIP3   OH253310   2.701   3.358  16.950  0.4424 -0.4329 -0.2297
10632TIP3    H153311   2.712   3.395  17.038  1.7610  0.0605 -0.5848
10632TIP3    H253312   2.736   3.270  16.957  2.9233  0.4103 -0.8128
10633TIP3   OH253313   1.149   4.643  12.074  0.2619 -0.3205  0.3030
10633TIP3    H153314   1.162   4.691  11.991 -0.9924 -0.2888  0.1035
10633TIP3    H253315   1.205   4.689  12.136 -1.7365  2.2383  0.4059
10634TIP3   OH253316   2.957   6.618   0.600 -0.1537  0.2333  0.3677
10634TIP3    H153317   2.906   6.691   0.564 -1.4120 -0.2721  1.0600
10634TIP3    H253318   2.965   6.556   0.527  0.9856  1.0618 -0.2451
10635TIP3   OH253319   0.285   4.973   1.532 -0.1579 -0.0824  0.1608
10635TIP3    H153320   0.231   5.001   1.458 -2.1614 -1.0308  1.1728
10635TIP3    H253321   0.318   5.054   1.569 -1.0145  0.5550 -0.4272
10636TIP3   OH253322   1.038   6.580   4.667 -0.1511 -0.5347  0.2462
10636TIP3    H153323   1.069   6.507   4.721  0.9458  0.0958  0.4877
10636TIP3    H253324   1.087   6.656   4.698 -1.6509  0.4314  0.3544
10637TIP3   OH253325   2.046   2.122   5.613 -0.1538 -0.0423 -0.4960
10637TIP3    H153326   2.050   2.122   5.708 -0.9955 -1.7856 -0.4059
10637TIP3    H253327   1.994   2.199   5.590  0.8131  0.8922  0.3774
10638TIP3   OH253328   4.448   2.874   2.125  0.2547  0.4375 -0.3129
10638TIP3    H153329   4.519   2.810   2.126  0.2615  0.4236  0.8977
10638TIP3    H253330   4.375   2.830   2.083  0.2649 -0.3775  0.4889
10639TIP3   OH253331   2.359   0.512  13.956 -0.0762  0.3997  0.1117
10639TIP3    H153332   2.287   0.480  14.011 -0.9350 -0.4851 -1.4333
10639TIP3    H253333   2.316   0.568  13.891  0.1633 -2.0178 -2.3261
10640TIP3   OH253334   2.427   4.063  16.707  0.2906  0.4504  0.0039
10640TIP3    H153335   2.439   4.145  16.755  1.4284  0.0407  0.4398
10640TIP3    H253336   2.501   4.009  16.732 -0.7403 -0.9441  0.1577
10641TIP3   OH253337   5.725   0.119   3.324  0.3280  0.4721  0.2364
10641TIP3    H153338   5.715   0.146   3.233  0.1490  0.2322  0.1818
10641TIP3    H253339   5.685   0.031   3.327  1.2515  0.0467  0.3212
10642TIP3   OH253340   5.530   4.477   2.412 -0.4413  0.3420 -0.5020
10642TIP3    H153341   5.453   4.420   2.423  0.9599 -1.8681 -1.3998
10642TIP3    H253342   5.599   4.433   2.461  0.6436  1.4777 -0.9698
10643TIP3   OH253343   4.112   4.619  13.515 -0.0739  0.0153  0.1728
10643TIP3    H153344   4.125   4.524  13.506 -2.1134 -0.2716 -0.2559
10643TIP3    H253345   4.030   4.627  13.563  0.9440  1.6169  1.7782
10644TIP3   OH253346   1.882   1.341  13.787 -0.2406 -0.1171  0.3857
10644TIP3    H153347   1.862   1.403  13.716 -0.6422 -0.7814 -0.0937
10644TIP3    H253348   1.804   1.340  13.841 -0.3117 -0.3462  0.2810
10645TIP3   OH253349   4.291   4.902  16.880  0.2763 -0.7593 -0.6456
10645TIP3    H153350   4.350   4.858  16.820  0.0105 -2.7126  0.4493
10645TIP3    H253351   4.206   4.901  16.835  0.3116 -1.2416 -0.7094
10646TIP3   OH253352   0.769   5.691  11.047 -0.3886 -0.0141  0.8298
10646TIP3    H153353   0.769   5.681  10.952  0.5510  1.1405  0.6926
10646TIP3    H253354   0.755   5.785  11.061 -0.7644 -0.2091  1.8409
10647TIP3   OH253355   3.077   6.574  14.453  0.5953  0.0673  0.2963
10647TIP3    H153356   3.155   6.518  14.454 -0.2657 -1.1723  0.2240
10647TIP3    H253357   3.015   6.529  14.511 -1.0333 -0.4596 -1.7417
10648TIP3   OH253358   0.938   3.189  15.624 -0.0474  0.3811 -0.2750
10648TIP3    H153359   1.032   3.168  15.620  0.2990  1.7057  0.2059
10648TIP3    H253360   0.935   3.273  15.670 -1.5030  0.2071 -0.0174
10649TIP3   OH253361   5.902   5.466  11.657  0.1379  0.1859 -0.0173
10649TIP3    H153362   5.987   5.503  11.635  0.3892  0.1672  0.8809
10649TIP3    H253363   5.910   5.373  11.636 -0.1711  0.4447 -1.3548
10650TIP3   OH253364   5.885   4.273  13.514  0.1341  0.0381 -0.0012
10650TIP3    H153365   5.909   4.304  13.602  0.6148 -0.2024 -0.0464
10650TIP3    H253366   5.928   4.188  13.506  0.8997  0.5010 -0.8434
10651TIP3   OH253367   6.650   0.292   3.840 -0.5285 -0.5444 -0.1728
10651TIP3    H153368   6.673   0.385   3.845  0.1116 -0.7418  1.0609
10651TIP3    H253369   6.721   0.248   3.887  0.0304 -1.8275 -2.0697
10652TIP3   OH253370   4.028   2.204  15.342 -0.5558  0.0095 -0.1478
10652TIP3    H153371   3.993   2.198  15.253 -1.0988 -1.3399  0.1329
10652TIP3    H253372   3.993   2.127  15.387 -1.1563  1.2131  1.5519
10653TIP3   OH253373   5.844   6.427  14.240 -0.3394  0.1250 -0.3170
10653TIP3    H153374   5.929   6.470  14.255  0.1188 -0.8410 -0.1055
10653TIP3    H253375   5.850   6.344  14.288 -1.6773  0.3576  0.3096
10654TIP3   OH253376   4.978   4.087   0.420  0.0632  0.3580 -0.9364
10654TIP3    H153377   4.936   4.157   0.370 -0.9651  0.0280 -0.5451
10654TIP3    H253378   4.918   4.069   0.492 -0.1426 -1.5693 -1.5430
10655TIP3   OH253379   3.675   0.811  10.401  0.6666  0.3198 -0.1365
10655TIP3    H153380   3.642   0.850  10.481  0.7584  0.9772 -0.4091
10655TIP3    H253381   3.657   0.718  10.410 -0.1537  0.5062  0.2474
10656TIP3   OH253382   0.617   3.571   1.053 -0.2326 -0.1386  0.4424
10656TIP3    H153383   0.556   3.589   0.981 -0.5830 -1.0477  0.4988
10656TIP3    H253384   0.666   3.653   1.064 -0.0725 -0.0269 -0.9263
10657TIP3   OH253385   0.012   2.465   5.644 -0.0658  0.3950  0.3010
10657TIP3    H153386  -0.052   2.406   5.605 -1.8849  1.2665  1.8375
10657TIP3    H253387   0.037   2.423   5.726  0.9791  0.3158 -0.0421
10658TIP3   OH253388   3.122   0.265   1.395 -0.0706 -0.0377  0.0899
10658TIP3    H153389   3.187   0.311   1.447  1.2034 -1.2885 -0.3536
10658TIP3    H253390   3.162   0.255   1.309 -0.1908 -2.1881  0.2446
10659TIP3   OH253391   1.093   3.315  13.413  0.3717  0.7456  0.1252
10659TIP3    H153392   1.128   3.230  13.442 -0.2968  0.7237  0.9030
10659TIP3    H253393   1.005   3.295  13.382  0.4207  1.0734 -0.2239
10660TIP3   OH253394   0.315   2.819  12.652  0.0646 -0.2167 -0.1315
10660TIP3    H153395   0.373   2.887  12.618  0.0949  0.2630  0.8367
10660TIP3    H253396   0.291   2.850  12.739 -0.3870 -1.1723  0.0962
10661TIP3   OH253397   5.453   3.855  17.117  0.1687  0.5548  0.3994
10661TIP3    H153398   5.451   3.878  17.210 -0.2692  0.3093  0.4506
10661TIP3    H253399   5.361   3.852  17.091  0.2721  0.1593  0.0696
10662TIP3   OH253400   3.764   6.079   4.586  0.1033 -0.8604 -0.1081
10662TIP3    H153401   3.694   6.144   4.589  0.5343 -0.3880 -0.2042
10662TIP3    H253402   3.719   5.995   4.593 -0.4442 -0.5475  0.1896
10663TIP3   OH253403   3.073   2.622   1.820  0.5437  0.3172 -0.3037
10663TIP3    H153404   3.128   2.544   1.810  0.2109  0.0756 -0.2515
10663TIP3    H253405   3.050   2.647   1.731 -1.1242 -0.9133 -0.2656
10664TIP3   OH253406   1.874   0.899  11.306 -0.4069 -0.0378  0.2482
10664TIP3    H153407   1.947   0.897  11.368 -0.2493 -0.7720  0.0418
10664TIP3    H253408   1.887   0.981  11.258  1.0435 -0.7547 -0.6819
10665TIP3   OH253409   3.424   1.918   6.468 -0.1929 -0.2042 -0.1625
10665TIP3    H153410   3.360   1.910   6.539  0.5379  3.1637  1.0678
10665TIP3    H253411   3.391   1.991   6.415  1.9179  0.7748 -0.2291
10666TIP3   OH253412   2.877   5.265  15.446 -0.1100 -0.4299 -0.5215
10666TIP3    H153413   2.871   5.170  15.438  2.0828 -0.4781 -2.6453
10666TIP3    H253414   2.950   5.290  15.389  0.5842  2.3653  1.3910
10667TIP3   OH253415   2.066   3.524  11.157  0.2226  0.2388  0.2617
10667TIP3    H153416   2.138   3.461  11.150 -0.9878 -1.3272  1.3003
10667TIP3    H253417   2.011   3.507  11.081  0.6930  1.1613 -0.3112
10668TIP3   OH253418   3.464   0.883   1.771 -0.7681  0.0790  0.2000
10668TIP3    H153419   3.444   0.976   1.763  0.3990  0.4779  1.4280
10668TIP3    H253420   3.380   0.839   1.764 -1.3479  1.2296 -0.3141
10669TIP3   OH253421   2.638   6.741  11.209  0.0587  0.1260 -0.8104
10669TIP3    H153422   2.695   6.790  11.269  1.8394 -0.4336 -1.9608
10669TIP3    H253423   2.600   6.672  11.264 -1.7477  2.1113  0.6116
10670TIP3   OH253424   5.324   6.216   5.030 -0.2718 -0.2645 -0.5628
10670TIP3    H153425   5.351   6.175   4.948 -0.0572  1.8946 -1.6554
10670TIP3    H253426   5.401   6.266   5.058  0.0322 -1.7807  1.5871
10671TIP3   OH253427   6.472   0.332  14.875  0.2359  0.0191  0.5880
10671TIP3    H153428   6.379   0.315  14.892 -0.4713  1.7328 -1.2664
10671TIP3    H253429   6.499   0.390  14.946 -0.1516 -0.2958  0.9998
10672TIP3   OH253430   4.038   1.387  11.007  0.5255 -0.9412  0.2400
10672TIP3    H153431   3.966   1.432  11.051  0.0400  0.3827 -1.7576
10672TIP3    H253432   4.116   1.438  11.029  0.5633 -1.2557  0.8599
10673TIP3   OH253433   1.981   5.511  11.291 -0.0847  0.4963  0.5909
10673TIP3    H153434   1.986   5.417  11.306 -0.8687  0.7872  3.4338
10673TIP3    H253435   1.888   5.528  11.273 -0.0068  0.7630  0.4283
10674TIP3   OH253436   3.593   2.274  13.664 -0.4005 -0.3949  0.0796
10674TIP3    H153437   3.532   2.286  13.737 -1.4406  3.0797 -1.1381
10674TIP3    H253438   3.546   2.215  13.604 -1.4982  0.2653  0.2650
10675TIP3   OH253439   5.803   4.810  13.311  0.1224 -0.4546 -0.0717
10675TIP3    H153440   5.873   4.775  13.256  0.4549  1.3404 -0.8613
10675TIP3    H253441   5.723   4.770  13.278  0.4471 -0.2398 -1.1597
10676TIP3   OH253442   2.254   2.191   0.933  0.1880  0.4008  0.3915
10676TIP3    H153443   2.305   2.174   0.854  1.2223 -0.0842  1.1531
10676TIP3    H253444   2.204   2.270   0.911 -0.1246 -0.1516 -1.0131
10677TIP3   OH253445   5.953   4.167   3.147  0.1227  0.0131  0.7319
10677TIP3    H153446   6.035   4.118   3.144  0.9776  1.4209 -0.0794
10677TIP3    H253447   5.979   4.259   3.135 -1.3495  0.7869  2.7892
10678TIP3   OH253448   3.068   5.233  15.793  0.2066  0.0644 -0.0205
10678TIP3    H153449   2.984   5.231  15.747  0.2034  0.8480 -0.0704
10678TIP3    H253450   3.116   5.305  15.752  1.6241 -1.4538 -1.1920
10679TIP3   OH253451   1.609   4.601  15.770 -0.3573  0.1103  0.2364
10679TIP3    H153452   1.651   4.552  15.841 -1.2565 -0.4049  0.4355
10679TIP3    H253453   1.655   4.572  15.691  1.0698  1.1495  0.6338
10680TIP3   OH253454   5.200   3.401  16.475  0.3059 -0.2803  0.2227
10680TIP3    H153455   5.115   3.407  16.432  1.0422 -1.4575 -1.5182
10680TIP3    H253456   5.180   3.375  16.564 -1.1757 -0.1273 -0.0357
10681TIP3   OH253457   1.292   3.312   2.151 -0.5982 -0.2513 -0.3586
10681TIP3    H153458   1.344   3.276   2.222  0.6078 -0.1510 -1.1767
10681TIP3    H253459   1.277   3.403   2.176 -0.2842 -0.2499 -0.1769
10682TIP3   OH253460   5.481   3.315  12.815 -0.2978 -0.3031 -0.5272
10682TIP3    H153461   5.498   3.228  12.781 -0.7418  0.1078 -1.8700
10682TIP3    H253462   5.385   3.320  12.822 -0.3434  0.3989 -1.4278
10683TIP3   OH253463   3.990   5.117  15.990  0.3943  0.4992 -0.4140
10683TIP3    H153464   3.998   5.132  15.896 -1.9961  2.1859 -0.4287
10683TIP3    H253465   3.910   5.066  15.999 -0.0705  1.3959  0.7580
10684TIP3   OH253466   1.406   6.647  16.560 -0.6073  0.0785  0.2087
10684TIP3    H153467   1.431   6.555  16.567 -0.4205 -0.0339 -1.5378
10684TIP3    H253468   1.338   6.648  16.493 -0.5497  1.2226  0.1540
10685TIP3   OH253469   0.408   1.270  14.163  0.2660 -0.0336  0.4489
10685TIP3    H153470   0.494   1.231  14.181 -0.5396 -0.9664  2.5667
10685TIP3    H253471   0.407   1.351  14.213  0.5204  0.8642 -0.9535
10686TIP3   OH253472   6.132   4.377  15.836 -0.0790  0.2625 -0.2272
10686TIP3    H153473   6.156   4.459  15.877 -1.9014 -0.2856  2.1541
10686TIP3    H253474   6.053   4.349  15.882  0.1080 -2.5096 -1.3849
10687TIP3   OH253475   6.081   5.100   0.311 -0.1166  0.2960  0.2470
10687TIP3    H153476   6.101   5.144   0.394  0.1615 -0.1452  0.4210
10687TIP3    H253477   6.085   5.007   0.332  0.5023  0.1728 -0.3906
10688TIP3   OH253478   1.945   1.249  10.512 -0.0182  0.3589  0.3009
10688TIP3    H153479   1.869   1.253  10.569 -0.4945  0.6315 -0.3376
10688TIP3    H253480   2.015   1.291  10.561 -0.1593 -0.2842  1.0685
10689TIP3   OH253481   3.340   6.461  14.225 -0.5071 -0.2675 -0.1524
10689TIP3    H153482   3.308   6.478  14.137  2.1116 -2.6905 -1.7587
10689TIP3    H253483   3.356   6.366  14.227 -0.5120 -0.3252  2.9729
10690TIP3   OH253484   2.313   1.975  10.836  0.2472  0.1496  0.1466
10690TIP3    H153485   2.218   1.972  10.845  0.1619  0.2100 -0.7269
10690TIP3    H253486   2.334   2.069  10.838  0.4182  0.1116  1.4988
10691TIP3   OH253487   0.485   2.922  13.181 -0.4482 -0.6324  0.7580
10691TIP3    H153488   0.494   3.014  13.205  0.0853 -1.2096  2.9797
10691TIP3    H253489   0.393   2.901  13.198 -0.6263 -0.4618  0.0260
10692TIP3   OH253490   6.584   5.709  11.702  0.0581 -0.3746  0.4448
10692TIP3    H153491   6.637   5.782  11.736  0.5154 -1.4320  2.1212
10692TIP3    H253492   6.514   5.698  11.767 -0.1286 -1.2786  0.0989
10693TIP3   OH253493   0.027   3.266   4.902  0.1601  0.5044  0.3570
10693TIP3    H153494   0.050   3.319   4.825  2.3130  0.0985  0.6545
10693TIP3    H253495   0.029   3.327   4.975  2.0180  0.2240  0.6059
10694TIP3   OH253496   2.293   1.498  15.644 -0.8909  0.0441  0.0655
10694TIP3    H153497   2.352   1.548  15.588  3.1328 -2.9871  1.1384
10694TIP3    H253498   2.244   1.442  15.584 -0.5830  0.6063 -0.7254
10695TIP3   OH253499   4.301   2.425   4.053 -0.7113  0.2714  0.4360
10695TIP3    H153500   4.322   2.332   4.058 -1.2370  0.0616 -0.8520
10695TIP3    H253501   4.220   2.435   4.103 -1.3296 -0.2075 -0.4411
10696TIP3   OH253502   5.319   5.440  15.649 -0.4642 -0.2599 -0.4217
10696TIP3    H153503   5.317   5.522  15.699 -0.7017  0.4841 -1.6024
10696TIP3    H253504   5.307   5.468  15.558  2.9921 -1.2140 -1.3375
10697TIP3   OH253505   2.160   3.303  11.656  0.3246 -0.0544  0.1946
10697TIP3    H153506   2.085   3.298  11.715  0.8790 -0.2508  0.9065
10697TIP3    H253507   2.217   3.231  11.684  0.3279 -0.5265 -0.9816
10698TIP3   OH253508   1.463   0.283   2.708 -0.2865  0.3740  0.0662
10698TIP3    H153509   1.447   0.189   2.702  0.6147 -0.0383  2.8535
10698TIP3    H253510   1.550   0.291   2.747  1.2297  2.4591 -3.2599
10699TIP3   OH253511   6.251   0.094  16.925  0.2675  0.5892  0.2581
10699TIP3    H153512   6.172   0.073  16.976  0.4225 -0.6440  0.0234
10699TIP3    H253513   6.226   0.170  16.872 -1.5213 -1.0266 -1.3968
10700TIP3   OH253514   5.336   1.187  12.459  0.3191 -0.2866 -0.2601
10700TIP3    H153515   5.279   1.141  12.397  0.3576 -0.3084 -0.2794
10700TIP3    H253516   5.400   1.121  12.485 -0.4088 -0.6418  0.7105
10701TIP3   OH253517   0.994   3.904  12.136  0.1468  0.2331 -0.2662
10701TIP3    H153518   1.057   3.909  12.065  2.1923 -0.4108  1.3829
10701TIP3    H253519   0.916   3.950  12.104  1.5305  1.2767 -2.2982
10702TIP3   OH253520   5.991   0.306  15.527 -0.7083  0.6336  0.5113
10702TIP3    H153521   5.979   0.382  15.583 -0.3785  1.2536 -0.2464
10702TIP3    H253522   6.024   0.341  15.445 -0.9207 -0.2866  0.0129
10703TIP3   OH253523   4.791   5.662  16.850  0.0212 -0.3332 -0.0623
10703TIP3    H153524   4.715   5.718  16.866  0.1213  0.1907 -1.2932
10703TIP3    H253525   4.777   5.586  16.906  0.5533  1.4752  2.7420
10704TIP3   OH253526   3.299   0.876  11.491 -0.5991 -0.4143 -0.0043
10704TIP3    H153527   3.228   0.862  11.429  1.4120 -1.9259 -2.1017
10704TIP3    H253528   3.303   0.972  11.502 -2.3099 -0.2531 -0.5390
10705TIP3   OH253529   1.942   0.856   4.779 -0.5003 -0.2666 -0.1617
10705TIP3    H153530   2.002   0.885   4.847  1.2804 -0.1333 -1.7118
10705TIP3    H253531   1.917   0.936   4.733 -1.7223 -0.3511  0.3085
10706TIP3   OH253532   4.654   0.723   4.417  0.4584  0.4765 -0.1727
10706TIP3    H153533   4.596   0.692   4.486  0.2629  2.1453  0.4586
10706TIP3    H253534   4.738   0.681   4.436 -0.1586 -0.8817 -0.2997
10707TIP3   OH253535   5.319   2.316   0.643 -0.8216 -0.6661 -0.6254
10707TIP3    H153536   5.390   2.322   0.579 -1.1230  2.7570 -0.8000
10707TIP3    H253537   5.326   2.227   0.677  1.5073 -1.5096 -2.9174
10708TIP3   OH253538   4.254   2.097   1.519  0.3615  0.0719  0.4495
10708TIP3    H153539   4.256   2.189   1.547 -0.1442  0.3179 -0.2873
10708TIP3    H253540   4.328   2.089   1.459 -1.1795  0.7730 -1.6993
10709TIP3   OH253541   5.320   2.802   4.019  0.2571 -0.1986 -0.0183
10709TIP3    H153542   5.234   2.837   4.042  0.8868  1.9128 -0.6594
10709TIP3    H253543   5.379   2.878   4.025  1.4748 -0.7882 -2.8707
10710TIP3   OH253544   4.797   1.580   6.616 -0.3353  0.0663 -0.3046
10710TIP3    H153545   4.709   1.582   6.577 -0.6493 -2.3133  0.1426
10710TIP3    H253546   4.851   1.536   6.551  0.2420  0.3904 -0.0456
10711TIP3   OH253547   6.602   1.728   1.184  0.6305  0.0163 -0.0413
10711TIP3    H153548   6.613   1.654   1.243 -1.2525  0.3032  0.7191
10711TIP3    H253549   6.616   1.692   1.097  1.4438 -0.8449  0.4248
10712TIP3   OH253550   6.473   5.697   1.580  0.2826  0.1588  0.2653
10712TIP3    H153551   6.561   5.706   1.615  0.3599  1.9435 -0.3017
10712TIP3    H253552   6.424   5.770   1.617 -0.9672 -0.7620  0.5194
10713TIP3   OH253553   0.137   2.326   6.091 -0.2580  0.2001  0.4880
10713TIP3    H153554   0.060   2.314   6.147 -1.6275  1.3460 -1.0592
10713TIP3    H253555   0.165   2.416   6.110 -1.4279  1.0231 -1.3884
10714TIP3   OH253556   1.716   4.288  17.119 -0.4311 -0.2497 -0.3568
10714TIP3    H153557   1.762   4.248  17.192  0.3901 -1.5348 -1.5438
10714TIP3    H253558   1.783   4.341  17.075 -0.4652 -0.8690 -1.1720
10715TIP3   OH253559   2.871   1.235   3.731 -0.5349  0.4503  0.0220
10715TIP3    H153560   2.779   1.210   3.745 -0.3184 -0.0824  0.5499
10715TIP3    H253561   2.900   1.178   3.660 -0.9963  1.5944 -1.1272
10716TIP3   OH253562   4.669   3.481   6.439 -0.1408  0.0297  0.1990
10716TIP3    H153563   4.643   3.394   6.469 -0.0387 -0.7683 -1.8824
10716TIP3    H253564   4.762   3.487   6.460 -0.4245  0.1615  1.4848
10717TIP3   OH253565   3.436   1.329  17.044 -0.0851  0.0876  0.4611
10717TIP3    H153566   3.365   1.389  17.024 -0.0416  0.5046  1.4761
10717TIP3    H253567   3.396   1.264  17.102  0.5191  0.7651  1.6766
10718TIP3   OH253568   2.137   1.660  11.696  0.3622  0.0986 -0.5314
10718TIP3    H153569   2.094   1.675  11.780 -0.6600  0.3007 -1.0710
10718TIP3    H253570   2.225   1.631  11.719 -0.5031 -1.8215  0.6567
10719TIP3   OH253571   5.674   3.726  12.967 -0.3562 -0.1269  0.3106
10719TIP3    H153572   5.659   3.706  12.875 -1.1507 -2.7248  0.8968
10719TIP3    H253573   5.596   3.775  12.994  0.2901  1.4313 -0.5634
10720TIP3   OH253574   3.577   0.545  14.269 -0.0375  0.4261  0.0182
10720TIP3    H153575   3.595   0.626  14.222 -0.3877 -0.0641 -1.0032
10720TIP3    H253576   3.506   0.567  14.329  1.0409  1.2983  1.0170
10721TIP3   OH253577   5.704   2.615  15.883  0.1655 -0.4677  0.0363
10721TIP3    H153578   5.663   2.685  15.934  1.3235 -0.8120  1.4923
10721TIP3    H253579   5.636   2.548  15.876 -1.0375  0.8354 -1.5786
10722TIP3   OH253580   5.544   1.509  13.865 -0.0500  0.7079  0.0545
10722TIP3    H153581   5.632   1.485  13.894 -0.2758  0.9938  1.0348
10722TIP3    H253582   5.486   1.471  13.932 -0.7124  0.1064 -0.8292
10723TIP3   OH253583   5.776   3.574  16.859 -0.1065 -0.6573  0.1742
10723TIP3    H153584   5.739   3.596  16.945  2.2028  0.7337  0.8923
10723TIP3    H253585   5.792   3.479  16.864 -0.3200 -0.6522  1.1431
10724TIP3   OH253586   0.591   5.258  16.034  0.3164 -0.1575  0.6005
10724TIP3    H153587   0.589   5.240  16.128  1.2031 -1.6402  0.3767
10724TIP3    H253588   0.684   5.250  16.011 -0.0602 -1.3494 -0.6477
10725TIP3   OH253589   3.113   5.021   0.204 -0.1744  0.2277  0.3248
10725TIP3    H153590   3.169   5.026   0.126 -0.0515 -0.7401  0.3417
10725TIP3    H253591   3.024   5.030   0.170 -0.2044 -1.3029 -0.0975
10726TIP3   OH253592   3.576   3.146  13.043 -0.1631 -0.7860 -0.7465
10726TIP3    H153593   3.580   3.220  12.982 -0.4364  1.1335  1.4578
10726TIP3    H253594   3.668   3.125  13.060 -0.0776 -0.4444 -0.7782
10727TIP3   OH253595   4.875   3.854  16.161  0.1759 -0.0647 -0.5575
10727TIP3    H153596   4.822   3.831  16.237  0.7935 -1.8532 -0.6338
10727TIP3    H253597   4.831   3.931  16.124 -0.3890  0.5652  1.3126
10728TIP3   OH253598   0.216   5.839  15.978 -0.1724  0.3732 -0.4169
10728TIP3    H153599   0.224   5.931  16.003 -0.3216 -0.0313  1.1779
10728TIP3    H253600   0.263   5.833  15.895  0.1469  1.8089 -0.3648
10729TIP3   OH253601   0.385   3.879  12.625 -0.2807 -0.4406  0.1743
10729TIP3    H153602   0.428   3.951  12.671 -0.9855  0.2677 -0.2535
10729TIP3    H253603   0.320   3.846  12.687 -1.3252  0.6029 -0.3421
10730TIP3   OH253604   2.104   0.062  13.855  0.1488 -0.0995 -0.0559
10730TIP3    H153605   2.177   0.108  13.896  0.9304  0.5384 -2.0310
10730TIP3    H253606   2.030   0.122  13.864 -0.0182 -0.4854  1.4073
10731TIP3   OH253607   3.556   0.657   0.569 -0.0697 -0.2005  0.7164
10731TIP3    H153608   3.623   0.612   0.621 -0.3424  0.1929  1.4266
10731TIP3    H253609   3.605   0.715   0.511  0.1809  1.5031  2.5490
10732TIP3   OH253610   4.522   3.986  12.072 -0.0822  0.9952  0.0623
10732TIP3    H153611   4.463   3.969  12.146 -0.2522  1.1030 -0.0469
10732TIP3    H253612   4.581   4.054  12.104 -0.2038  1.0958  0.0742
10733TIP3   OH253613   0.156   2.010   0.699 -0.4463 -0.0720 -0.6014
10733TIP3    H153614   0.133   2.025   0.790  0.6759 -0.0934 -0.3028
10733TIP3    H253615   0.153   1.915   0.688 -0.3243 -0.0850 -0.5198
10734TIP3   OH253616   0.577   4.976   6.358  0.5771 -0.0401  0.1752
10734TIP3    H153617   0.485   4.964   6.336  0.9997  0.1431 -1.8345
10734TIP3    H253618   0.592   4.917   6.432 -0.6455 -1.6688 -0.8262
10735TIP3   OH253619   3.534   3.871   4.217 -0.1917 -0.8940  0.1801
10735TIP3    H153620   3.521   3.911   4.131 -2.0692  1.9763  1.6537
10735TIP3    H253621   3.446   3.857   4.251  0.4968 -0.8483  2.1171
10736TIP3   OH253622   0.674   1.046  11.669  0.3536  0.2012  0.2054
10736TIP3    H153623   0.683   0.962  11.713 -0.6084  0.1924  0.4187
10736TIP3    H253624   0.587   1.042  11.629  0.0887  1.2788  0.6396
10737TIP3   OH253625   5.020   2.237   2.820  0.2365  0.6483  0.2031
10737TIP3    H153626   5.019   2.157   2.872  0.9810 -0.1369 -0.9655
10737TIP3    H253627   5.103   2.236   2.774 -0.7775  0.8226 -1.7457
10738TIP3   OH253628   6.186   6.644  10.947  0.1333  0.0479  0.0344
10738TIP3    H153629   6.142   6.720  10.984 -0.6657 -0.4018  0.0542
10738TIP3    H253630   6.114   6.586  10.919  0.7174 -0.4483 -0.4904
10739TIP3   OH253631   5.216   5.599   3.765  0.5355  0.4703  0.1193
10739TIP3    H153632   5.196   5.595   3.672 -0.8978 -0.6845  0.4371
10739TIP3    H253633   5.213   5.508   3.794  2.7146  0.6229  0.9810
10740TIP3   OH253634   0.848   5.092  13.493 -0.6000  0.0114 -0.3187
10740TIP3    H153635   0.771   5.051  13.454 -1.2014  1.0034 -0.2255
10740TIP3    H253636   0.812   5.147  13.563  0.2020  0.4301 -0.2288
10741TIP3   OH253637   1.224   6.627   2.336  0.6830 -0.7663  0.1181
10741TIP3    H153638   1.163   6.574   2.285 -2.4173  1.7493  0.9251
10741TIP3    H253639   1.294   6.649   2.274 -0.0074 -2.4516 -1.3325
10742TIP3   OH253640   3.460   3.716  15.421 -0.2248  0.7293 -0.3175
10742TIP3    H153641   3.547   3.719  15.461 -0.1893 -0.4333 -0.2537
10742TIP3    H253642   3.410   3.784  15.465  0.5902  1.2590 -0.1966
10743TIP3   OH253643   4.662   3.448   3.358  0.5217 -0.0033 -0.1804
10743TIP3    H153644   4.703   3.480   3.278 -1.1395 -1.8877 -1.8914
10743TIP3    H253645   4.568   3.445   3.338 -0.1384  0.8705  2.3741
10744TIP3   OH253646   0.754   0.959  13.552  0.3137 -0.6197  0.4884
10744TIP3    H153647   0.753   0.886  13.490  3.4073 -0.1398 -0.3069
10744TIP3    H253648   0.797   0.925  13.630  4.4162  0.8289 -0.8783
10745TIP3   OH253649   1.782   0.711  12.268  0.0187 -0.0923  0.3915
10745TIP3    H153650   1.786   0.774  12.197  1.2561  1.0716  1.4259
10745TIP3    H253651   1.693   0.676  12.265 -0.4602  1.1551 -0.6801
10746TIP3   OH253652   1.709   6.600  16.366  0.1887  0.1250 -0.0197
10746TIP3    H153653   1.621   6.625  16.395  1.7141  1.9448  3.6383
10746TIP3    H253654   1.725   6.515  16.406  0.5530  0.3746  0.3648
10747TIP3   OH253655   3.632   5.746   6.272  0.3259 -0.4959 -0.6120
10747TIP3    H153656   3.596   5.793   6.347 -1.3989  3.0460 -3.3905
10747TIP3    H253657   3.609   5.654   6.289 -3.2264  0.5837  1.5192
10748TIP3   OH253658   2.464   2.124   3.719 -0.2213 -0.0356  0.0859
10748TIP3    H153659   2.421   2.077   3.791  0.5782 -0.4161  0.3204
10748TIP3    H253660   2.519   2.058   3.676 -0.6194  0.2093 -0.8287
10749TIP3   OH253661   1.383   6.252   0.675 -0.4160 -0.0357 -0.1528
10749TIP3    H153662   1.411   6.261   0.584 -2.4335  0.5742 -0.7600
10749TIP3    H253663   1.314   6.186   0.672 -1.9386  1.4678  0.5845
10750TIP3   OH253664   3.729   2.379   1.055  0.5308  0.0902  0.3495
10750TIP3    H153665   3.793   2.417   0.995  1.1968 -0.9629  0.3593
10750TIP3    H253666   3.683   2.454   1.092  0.0710  0.7724 -1.4850
10751TIP3   OH253667   4.893   5.770  16.575 -1.0269 -0.3418 -0.1778
10751TIP3    H153668   4.887   5.865  16.567  1.1546 -0.2318 -1.1697
10751TIP3    H253669   4.867   5.752  16.665 -1.7637  1.1573 -0.0648
10752TIP3   OH253670   1.591   4.410  14.236 -0.1300  0.0388  0.1072
10752TIP3    H153671   1.525   4.342  14.244 -0.9873  0.8053 -0.2183
10752TIP3    H253672   1.597   4.428  14.142 -0.7530  1.1854  0.2642
10753TIP3   OH253673   6.614   3.699  12.924  0.4156  0.0161  0.0116
10753TIP3    H153674   6.536   3.727  12.971  1.2554 -0.5051  1.8073
10753TIP3    H253675   6.584   3.632  12.863 -0.6396  0.4157  0.0754
10754TIP3   OH253676   0.910   5.950   2.925 -0.3256  0.4831 -0.6184
10754TIP3    H153677   0.908   6.045   2.927  0.9497  0.5238 -0.3867
10754TIP3    H253678   0.840   5.923   2.985 -1.8609  1.2269 -1.9965
10755TIP3   OH253679   4.313   4.258  12.074  0.6749 -0.7467 -0.0849
10755TIP3    H153680   4.244   4.324  12.070  0.8124 -0.6664 -2.7934
10755TIP3    H253681   4.278   4.191  12.133 -1.2552 -0.2232 -0.5578
10756TIP3   OH253682   2.867   6.510  13.558  0.3756 -0.3954 -0.3273
10756TIP3    H153683   2.847   6.523  13.650  0.2048  0.1494 -0.4362
10756TIP3    H253684   2.808   6.570  13.512 -2.1452 -3.1947 -1.0202
10757TIP3   OH253685   2.726   5.062  16.797 -0.4227 -0.0452  0.1301
10757TIP3    H153686   2.741   4.995  16.730 -0.3120 -0.0228  0.1334
10757TIP3    H253687   2.714   5.143  16.747 -1.5607 -0.2288  0.0594
10758TIP3   OH253688   5.579   5.338  15.946 -0.3251  0.4779 -0.2682
10758TIP3    H153689   5.488   5.316  15.967 -0.0519 -1.1134 -0.6195
10758TIP3    H253690   5.588   5.431  15.970 -1.8704  0.5043  0.2949
10759TIP3   OH253691   5.689   4.641   3.408 -0.4970  0.1390  0.1308
10759TIP3    H153692   5.634   4.718   3.399 -0.9901 -0.3039 -0.7252
10759TIP3    H253693   5.716   4.619   3.319 -0.1620 -0.5361  0.3877
10760TIP3   OH253694   5.947   4.438  12.853 -0.0581  0.0060 -0.2547
10760TIP3    H153695   5.924   4.374  12.919 -0.8544 -1.7701 -2.1397
10760TIP3    H253696   5.866   4.454  12.805  1.0706 -1.2182 -2.7641
10761TIP3   OH253697   2.774   4.865  16.609 -0.1401 -0.4909 -0.6028
10761TIP3    H153698   2.793   4.825  16.524 -1.6645 -2.6429  0.0098
10761TIP3    H253699   2.795   4.798  16.673  1.4609  1.2688  0.8418
10762TIP3   OH253700   1.455   3.452  14.402 -0.3826  0.1174 -0.1301
10762TIP3    H153701   1.498   3.533  14.430 -0.6958 -0.3098  1.6986
10762TIP3    H253702   1.419   3.473  14.316  2.6514  0.7698 -1.3827
10763TIP3   OH253703   0.691   3.683   2.714 -0.1661 -0.3264  0.3766
10763TIP3    H153704   0.718   3.628   2.788  0.7773 -1.3410 -0.6762
10763TIP3    H253705   0.644   3.623   2.656 -1.4366  0.6039  0.4313
10764TIP3   OH253706   6.564   0.308   0.559 -0.3399 -0.1513 -0.0076
10764TIP3    H153707   6.476   0.277   0.538 -0.0570 -1.4294  0.6060
10764TIP3    H253708   6.558   0.403   0.551 -1.0315 -0.3289 -2.7625
10765TIP3   OH253709   4.565   2.973   4.112 -0.0831  0.4511  0.1075
10765TIP3    H153710   4.655   2.990   4.139  0.4272 -0.6460 -0.8057
10765TIP3    H253711   4.520   2.945   4.192  0.2850  1.3655  0.6394
10766TIP3   OH253712   3.117   5.101   0.481  0.3539 -0.4056  0.4474
10766TIP3    H153713   3.121   5.070   0.391  1.0463 -1.6732  0.9016
10766TIP3    H253714   3.144   5.193   0.475 -1.4332  0.0946 -0.8680
10767TIP3   OH253715   6.422   1.034  11.233  0.7250 -0.2902 -0.2242
10767TIP3    H153716   6.453   1.087  11.307 -2.2909  1.0609  0.2401
10767TIP3    H253717   6.403   0.949  11.272  0.1300  0.0968  0.3639
10768TIP3   OH253718   3.929   0.643  13.059  0.0102 -0.1608  0.0625
10768TIP3    H153719   3.959   0.578  13.123  1.5144 -0.2907 -0.7343
10768TIP3    H253720   3.899   0.591  12.985 -0.8445  0.0202  0.2678
10769TIP3   OH253721   3.370   5.330  11.835 -0.2875 -0.4100 -0.2676
10769TIP3    H153722   3.313   5.275  11.888 -0.5462 -0.2768 -0.4054
10769TIP3    H253723   3.450   5.279  11.825 -0.4419 -0.6647 -0.2102
10770TIP3   OH253724   3.631   6.241  13.456  0.0129 -0.1134  0.6348
10770TIP3    H153725   3.645   6.295  13.533 -2.6195 -0.0269  1.1233
10770TIP3    H253726   3.624   6.151  13.490 -0.1682 -0.2005  0.3700
10771TIP3   OH253727   5.595   4.542  14.995 -0.0118  0.4710  0.1132
10771TIP3    H153728   5.543   4.582  14.925 -0.9200  1.9763  1.5745
10771TIP3    H253729   5.577   4.448  14.989  0.9953  0.3690 -2.4741
10772TIP3   OH253730   2.675   5.937  15.473 -0.0435  0.2602 -0.7582
10772TIP3    H153731   2.715   5.961  15.389  0.8486  0.4904 -0.2730
10772TIP3    H253732   2.719   5.857  15.500  0.2093  0.5961 -0.1483
10773TIP3   OH253733   3.144   0.577   5.223  0.0800 -0.4664 -0.5970
10773TIP3    H153734   3.108   0.537   5.302 -1.0750  0.4749 -0.6073
10773TIP3    H253735   3.231   0.608   5.249 -0.5479  0.4253  0.5205
10774TIP3   OH253736   1.633   0.764   3.243  0.0385  0.1180 -0.2287
10774TIP3    H153737   1.546   0.768   3.202 -0.5315 -0.1622  0.9038
10774TIP3    H253738   1.614   0.750   3.336  1.3396 -2.1854 -0.2630
10775TIP3   OH253739   0.298   6.195   0.415  0.0508 -0.4416  0.1429
10775TIP3    H153740   0.351   6.173   0.491  0.5996 -1.8007 -0.5744
10775TIP3    H253741   0.209   6.173   0.440  0.0488  0.3389  0.8228
10776TIP3   OH253742   5.480   0.162   5.034 -0.7333  0.4441 -0.6171
10776TIP3    H153743   5.561   0.187   4.989  0.1581 -0.0899  0.6467
10776TIP3    H253744   5.505   0.089   5.090 -2.1095  0.2455 -0.2313
10777TIP3   OH253745   4.775   2.996   6.482 -0.2034  0.3632 -0.6009
10777TIP3    H153746   4.836   2.998   6.555  0.4385 -0.8866 -1.0716
10777TIP3    H253747   4.711   3.065   6.502  0.1495  0.2781  0.9535
10778TIP3   OH253748   4.952   5.769  13.170  0.2729 -0.4920  0.4711
10778TIP3    H153749   4.950   5.766  13.074  1.7365 -0.2553  0.4119
10778TIP3    H253750   5.021   5.832  13.190 -2.0419  1.7969  1.6997
10779TIP3   OH253751   6.289   0.689   0.647 -0.3230 -0.2091  0.1099
10779TIP3    H153752   6.204   0.692   0.603  0.0619  0.4423 -0.6153
10779TIP3    H253753   6.325   0.777   0.635  0.4046 -0.4441  0.5137
10780TIP3   OH253754   0.268   2.563   4.547 -0.1986  0.3790  0.2422
10780TIP3    H153755   0.358   2.544   4.572  0.4258  0.6450 -1.6396
10780TIP3    H253756   0.233   2.479   4.518  0.2283  0.6820 -1.2309
10781TIP3   OH253757   1.586   6.314  14.922 -0.1938 -0.3212 -0.0291
10781TIP3    H153758   1.565   6.384  14.860  1.3026 -0.2214 -0.4667
10781TIP3    H253759   1.632   6.358  14.994  1.9394 -0.9517 -0.9175
10782TIP3   OH253760   3.883   4.548  14.337 -0.2132 -0.3856  0.0864
10782TIP3    H153761   3.851   4.459  14.327 -0.5661 -0.4171  1.3289
10782TIP3    H253762   3.950   4.542  14.405  0.9138  0.0459 -0.9503
10783TIP3   OH253763   2.296   2.128  12.516  0.1061 -0.2112 -0.2247
10783TIP3    H153764   2.298   2.141  12.421  0.6720 -1.1205 -0.3433
10783TIP3    H253765   2.384   2.098  12.538 -0.4802 -1.5428  0.3597
10784TIP3   OH253766   3.144   5.091  12.668  0.8256  0.2838 -0.1981
10784TIP3    H153767   3.127   5.004  12.705  1.2596  0.4474  0.4060
10784TIP3    H253768   3.182   5.072  12.582  0.0577 -0.1046 -0.4646
10785TIP3   OH253769   3.828   0.928   6.531 -0.1449  0.1793 -0.1211
10785TIP3    H153770   3.901   0.872   6.507  0.5878  1.2513 -0.4748
10785TIP3    H253771   3.758   0.867   6.556  1.0825 -0.8617  0.9236
10786TIP3   OH253772   1.487   6.638  13.870  1.0409 -0.2048  0.2196
10786TIP3    H153773   1.436   6.557  13.864  1.9142 -0.7251 -0.4256
10786TIP3    H253774   1.458   6.679  13.952 -2.6380  1.0817 -1.5381
10787TIP3   OH253775   6.739   2.909  17.134  0.1099 -0.3571  0.2055
10787TIP3    H153776   6.659   2.944  17.174  0.7352  0.7641  0.5084
10787TIP3    H253777   6.808   2.970  17.160  0.9898 -1.0422 -0.4513
10788TIP3   OH253778   0.626   3.166   2.578  0.2079  0.8577 -0.6826
10788TIP3    H153779   0.699   3.132   2.630 -0.4641 -0.3760 -0.5005
10788TIP3    H253780   0.639   3.127   2.491  1.6217  3.3176 -1.6966
10789TIP3   OH253781   6.697   4.823   5.277 -0.0621 -0.5317  0.2362
10789TIP3    H153782   6.658   4.863   5.355 -0.7132  0.4782 -0.5873
10789TIP3    H253783   6.791   4.824   5.295 -0.2820 -1.7645  1.6684
10790TIP3   OH253784   4.881   5.818  15.860 -0.2051 -0.0894  0.1791
10790TIP3    H153785   4.800   5.792  15.817 -0.6827  1.4655  0.0812
10790TIP3    H253786   4.918   5.737  15.894 -0.7265 -1.1063 -1.5956
10791TIP3   OH253787   1.137   0.094   0.239  0.3255 -0.3639 -0.1116
10791TIP3    H153788   1.088   0.176   0.232 -0.5202 -0.9804 -2.4842
10791TIP3    H253789   1.086   0.040   0.299  0.1545  0.3504  0.3980
10792TIP3   OH253790   5.945   6.640   2.757  0.1240  0.0577 -0.0154
10792TIP3    H153791   6.034   6.674   2.769  0.2643 -0.9495  2.5699
10792TIP3    H253792   5.905   6.651   2.843 -2.3477  0.6487 -1.1752
10793TIP3   OH253793   3.832   6.325  12.321  0.2731 -0.0420  0.2297
10793TIP3    H153794   3.837   6.379  12.242 -3.9022 -2.3034 -1.9168
10793TIP3    H253795   3.865   6.240  12.294 -0.2562 -0.5783  1.2357
10794TIP3   OH253796   4.271   5.030  16.101 -0.2501  0.9004 -0.2719
10794TIP3    H153797   4.185   5.032  16.058 -0.4834  1.9466  0.2274
10794TIP3    H253798   4.255   5.061  16.190  0.7112  1.5050 -0.2944
10795TIP3   OH253799   2.018   5.280   1.473 -0.0853  0.3135 -0.0727
10795TIP3    H153800   1.945   5.220   1.488 -0.1021  0.9119  2.5785
10795TIP3    H253801   2.094   5.222   1.461 -0.2744 -0.2914  1.4441
10796TIP3   OH253802   4.249   4.168   3.201  0.0782 -0.2261 -0.0627
10796TIP3    H153803   4.339   4.136   3.199  0.7896  1.5304  1.0865
10796TIP3    H253804   4.201   4.107   3.145  2.0828 -0.8470 -1.2307
10797TIP3   OH253805   6.492   2.457   4.320 -0.1910  0.0175 -0.6631
10797TIP3    H153806   6.528   2.493   4.239  2.2758  1.9266  1.1229
10797TIP3    H253807   6.437   2.526   4.355  0.6848  0.1889  0.4246
10798TIP3   OH253808   3.084   1.226  11.999  0.3059  0.4393  0.7924
10798TIP3    H153809   3.137   1.303  12.016 -1.4469  1.6328  1.1797
10798TIP3    H253810   3.023   1.223  12.073 -0.7640 -0.3176 -0.0889
10799TIP3   OH253811   4.819   1.624   5.322 -0.2488  0.6116  0.0798
10799TIP3    H153812   4.803   1.614   5.416  0.9859  0.5240  0.3050
10799TIP3    H253813   4.858   1.711   5.314  0.7402  0.1663 -0.1742
10800TIP3   OH253814   3.355   1.945  16.914 -0.3518  0.0128 -0.4807
10800TIP3    H153815   3.303   1.982  16.842  1.1737  0.2127 -1.5195
10800TIP3    H253816   3.422   2.011  16.931 -0.4730 -0.1960  0.9159
10801TIP3   OH253817   5.906   3.163  13.421 -0.0258 -0.2002 -0.2270
10801TIP3    H153818   5.890   3.071  13.399 -1.0176 -1.0337  3.3388
10801TIP3    H253819   6.001   3.169  13.430  0.0425 -0.8766 -0.4054
10802TIP3   OH253820   6.405   0.878   4.340 -0.2302 -0.5466  0.0963
10802TIP3    H153821   6.497   0.902   4.349 -0.6381  1.3180 -0.1635
10802TIP3    H253822   6.367   0.949   4.287 -1.5390 -1.9795 -0.9860
10803TIP3   OH253823   6.676   5.145   3.802 -1.3396 -0.2883 -0.0272
10803TIP3    H153824   6.669   5.234   3.770  0.3841 -0.5659 -1.3479
10803TIP3    H253825   6.749   5.147   3.864 -0.5409 -0.9692 -0.9166
10804TIP3   OH253826   4.622   5.802  17.178  0.5983  0.1821 -0.3337
10804TIP3    H153827   4.578   5.840  17.254  0.9087 -0.5502  0.2222
10804TIP3    H253828   4.595   5.857  17.105  0.5828  1.1184  0.3556
10805TIP3   OH253829   0.305   4.546  12.461  0.0817 -0.2114 -0.6468
10805TIP3    H153830   0.341   4.568  12.546  0.6062  1.4300 -1.2470
10805TIP3    H253831   0.358   4.597  12.399  0.3510 -2.0947 -2.0460
10806TIP3   OH253832   5.570   1.879  15.758 -0.0374  0.7417 -0.3462
10806TIP3    H153833   5.509   1.934  15.806 -0.4513  0.8605 -0.9896
10806TIP3    H253834   5.650   1.880  15.810 -0.9004 -0.2888  1.0993
10807TIP3   OH253835   1.899   6.217  15.133  0.6314 -0.2346  0.0989
10807TIP3    H153836   1.979   6.264  15.160  0.6162  0.2492 -0.6696
10807TIP3    H253837   1.917   6.189  15.044 -0.5359  1.0107 -0.5666
10808TIP3   OH253838   2.951   4.931  14.224  0.1383 -0.1282  0.2965
10808TIP3    H153839   2.981   5.020  14.207 -2.2677  0.7431  0.2225
10808TIP3    H253840   2.871   4.942  14.275  0.3668 -2.3116  1.2523
10809TIP3   OH253841   3.044   3.992   5.820 -0.2661 -0.1342  0.3157
10809TIP3    H153842   3.107   4.040   5.766  0.8724 -0.8933  0.9258
10809TIP3    H253843   2.973   3.969   5.760  1.4337 -1.8284 -1.1555
10810TIP3   OH253844   0.798   2.897  12.634 -0.0608  0.4996  0.5155
10810TIP3    H153845   0.751   2.969  12.676  1.1332  0.1468  2.5752
10810TIP3    H253846   0.819   2.930  12.546 -1.9174  1.5830  0.4200
10811TIP3   OH253847   3.400   4.142  16.054  0.0322 -0.5488 -0.4480
10811TIP3    H153848   3.375   4.061  16.098  2.3920  0.0157  2.2021
10811TIP3    H253849   3.486   4.123  16.017  0.9335  0.8997  0.8147
10812TIP3   OH253850   0.613   3.632   0.003 -0.1044  0.5173  1.0369
10812TIP3    H153851   0.671   3.708  -0.000  0.5849 -0.0235  0.2274
10812TIP3    H253852   0.645   3.574  -0.066 -1.1565 -0.1292  1.0658
10813TIP3   OH253853   2.541   0.308   4.508 -0.3647 -0.4138 -0.4567
10813TIP3    H153854   2.558   0.354   4.589  1.9009 -0.1697 -0.9969
10813TIP3    H253855   2.445   0.309   4.499 -0.7020 -0.6401  2.2627
10814TIP3   OH253856   3.469   5.975   2.762 -0.3960  0.4629  0.1110
10814TIP3    H153857   3.563   5.992   2.765 -0.1247 -0.5127 -1.3825
10814TIP3    H253858   3.462   5.882   2.736 -1.7668  0.3758  0.6906
10815TIP3   OH253859   5.951   2.186   2.081 -0.1717  0.0987  0.4211
10815TIP3    H153860   5.863   2.189   2.119 -0.1847 -0.3321  0.4309
10815TIP3    H253861   5.956   2.264   2.027 -0.8837 -0.3076 -0.2624
10816TIP3   OH253862   5.966   1.858  13.242 -0.2079 -0.1248 -0.1128
10816TIP3    H153863   5.985   1.833  13.151 -0.5458  0.1031 -0.2481
10816TIP3    H253864   5.883   1.907  13.237 -0.3285 -0.2756  0.3415
10817TIP3   OH253865   0.234   4.924   0.401  0.6015  0.3612  0.2311
10817TIP3    H153866   0.318   4.892   0.367  2.4223  3.7833  0.9701
10817TIP3    H253867   0.244   4.919   0.497 -0.4925 -0.1553  0.3299
10818TIP3   OH253868   6.320   2.587  16.581 -0.1412  0.3556  0.1292
10818TIP3    H153869   6.239   2.542  16.560  0.6973 -1.5296  0.7284
10818TIP3    H253870   6.339   2.641  16.504 -1.9442  0.8648  0.0071
10819TIP3   OH253871   1.437   5.520  12.604 -0.1704 -0.4995 -0.5313
10819TIP3    H153872   1.529   5.530  12.580 -0.2249 -0.1539 -0.6059
10819TIP3    H253873   1.438   5.468  12.684  0.2460  1.7187  0.9926
10820TIP3   OH253874   0.071   1.191  14.831  0.3574 -0.1161  0.6375
10820TIP3    H153875   0.144   1.251  14.816 -0.0341  0.3164  0.4054
10820TIP3    H253876  -0.006   1.239  14.799 -0.0735 -0.4329  1.1834
10821TIP3   OH253877   4.675   1.072  11.826  0.6527  0.1232 -0.3436
10821TIP3    H153878   4.766   1.095  11.803  0.3245 -1.5114 -4.0724
10821TIP3    H253879   4.669   0.978  11.809 -1.6866  0.1354  0.0967
10822TIP3   OH253880   0.278   3.474  14.644  0.3024 -0.0090  0.4808
10822TIP3    H153881   0.284   3.568  14.659  1.5054 -0.0901  0.6296
10822TIP3    H253882   0.285   3.463  14.550  2.8155 -0.0568  0.5881
10823TIP3   OH253883   1.029   0.327   1.246 -0.0259  0.1144  0.0411
10823TIP3    H153884   0.947   0.284   1.269  0.0918 -0.5267 -0.6895
10823TIP3    H253885   1.031   0.326   1.150  0.0916  1.5658  0.0083
10824TIP3   OH253886   6.689   5.250   2.794 -0.7512 -0.2809 -0.3508
10824TIP3    H153887   6.604   5.293   2.793 -0.3996  0.4413 -0.4190
10824TIP3    H253888   6.744   5.304   2.736  0.0246 -0.1389  0.4958
10825TIP3   OH253889   3.891   0.366   4.257  0.1872 -0.1357  0.3274
10825TIP3    H153890   3.925   0.319   4.333 -0.6192 -0.3573  0.5601
10825TIP3    H253891   3.812   0.409   4.288 -0.6572 -0.9647 -0.6035
10826TIP3   OH253892   4.217   5.653  15.516 -0.5777  0.3950  0.6470
10826TIP3    H153893   4.187   5.612  15.597 -0.5391  0.5758  0.7529
10826TIP3    H253894   4.141   5.701  15.484 -0.8802 -0.4419  0.0797
10827TIP3   OH253895   5.659   4.734   5.737  0.4161  0.2121  0.2736
10827TIP3    H153896   5.622   4.814   5.699  1.3069  0.1344 -0.7978
10827TIP3    H253897   5.671   4.755   5.829  1.4584  1.6401 -0.1539
10828TIP3   OH253898   3.410   1.459  10.793 -0.2243  0.2856 -0.7551
10828TIP3    H153899   3.474   1.519  10.754  1.6025 -1.9514 -1.4082
10828TIP3    H253900   3.403   1.387  10.730 -2.2462 -0.2880  0.0499
10829TIP3   OH253901   2.802   3.188  13.812 -0.8243  0.0724  0.0148
10829TIP3    H153902   2.740   3.208  13.742  0.3059 -0.2069 -1.1086
10829TIP3    H253903   2.876   3.146  13.767 -0.1850 -0.3642  1.4146
10830TIP3   OH253904   2.437   2.645  13.688  0.2744 -0.0137 -0.1735
10830TIP3    H153905   2.357   2.598  13.661  0.1146 -0.6484  1.2983
10830TIP3    H253906   2.441   2.721  13.630 -1.1643 -0.2071 -0.5694
10831TIP3   OH253907   2.926   5.641  12.959 -0.5357 -0.4105  0.2147
10831TIP3    H153908   2.859   5.576  12.979 -1.0016 -0.0522 -0.1599
10831TIP3    H253909   2.881   5.708  12.907 -0.3005  0.7080  1.3820
10832TIP3   OH253910   0.591   5.672   0.871  0.1290 -0.7112 -0.0925
10832TIP3    H153911   0.529   5.603   0.897  1.1445 -1.1008  1.4463
10832TIP3    H253912   0.537   5.749   0.857 -0.7280 -1.0150  1.3332
10833TIP3   OH253913   0.553   1.357   0.691  0.2609 -0.3422 -0.2820
10833TIP3    H153914   0.497   1.434   0.676  0.9734  0.3296  0.4501
10833TIP3    H253915   0.596   1.342   0.607  1.5267  1.2175  0.0484
10834TIP3   OH253916   3.469   0.686   4.905  0.0571  0.1828 -0.4438
10834TIP3    H153917   3.470   0.715   4.814 -1.8826 -2.8826 -1.5983
10834TIP3    H253918   3.376   0.678   4.927  0.4519 -2.1305  0.6919
10835TIP3   OH253919   0.465   4.722  15.275 -0.2742 -0.1625  0.3492
10835TIP3    H153920   0.408   4.724  15.198  0.5417 -0.7776 -0.3016
10835TIP3    H253921   0.533   4.786  15.256  0.3115 -0.8037  0.2317
10836TIP3   OH253922   6.140   5.337  12.925  0.1270 -0.0600 -0.4981
10836TIP3    H153923   6.060   5.351  12.875 -0.2784  1.6374  0.5524
10836TIP3    H253924   6.197   5.409  12.901  0.5829 -0.1700  0.2156
10837TIP3   OH253925   0.721   2.901   4.743  0.1819  0.0806  0.0683
10837TIP3    H153926   0.737   2.880   4.651  1.2852 -0.7787  0.4406
10837TIP3    H253927   0.689   2.819   4.781  0.0310  0.3482  0.5233
10838TIP3   OH253928   0.562   2.456   5.936  0.2744 -0.0721 -0.2258
10838TIP3    H153929   0.593   2.532   5.887 -2.1363  1.3637  0.3041
10838TIP3    H253930   0.556   2.386   5.871  0.7896  0.6807 -1.1155
10839TIP3   OH253931   3.650   0.275   1.882 -0.2887  0.2519 -0.1790
10839TIP3    H153932   3.631   0.181   1.888  3.3976 -0.6598  0.0777
10839TIP3    H253933   3.698   0.284   1.799 -0.1534  1.8324  0.0437
10840TIP3   OH253934   1.586   2.979   0.784  0.1829  0.1814  0.3161
10840TIP3    H153935   1.496   2.951   0.802 -1.8123  3.8054 -2.7242
10840TIP3    H253936   1.614   3.024   0.864 -0.0450 -2.1174  1.7875
10841TIP3   OH253937   5.384   1.122   2.644 -0.2254  0.5155 -0.0605
10841TIP3    H153938   5.356   1.145   2.555  1.4615  0.6792 -0.5819
10841TIP3    H253939   5.370   1.027   2.650 -2.8957  0.8415  0.5087
10842TIP3   OH253940   4.568   6.585   3.611 -0.8756  0.2618  0.3173
10842TIP3    H153941   4.567   6.490   3.596  1.2079  0.1850  0.3844
10842TIP3    H253942   4.566   6.623   3.523 -2.4860  0.2105  0.3049
10843TIP3   OH253943   6.304   4.408   1.895 -0.1640  0.1327  0.1271
10843TIP3    H153944   6.390   4.446   1.913 -0.8575  3.2985 -2.2826
10843TIP3    H253945   6.261   4.472   1.837 -4.1091 -1.3154  1.0847
10844TIP3   OH253946   4.164   1.147   5.030 -0.0980  0.5663  0.0492
10844TIP3    H153947   4.256   1.151   5.006 -0.3058 -1.1346 -1.2362
10844TIP3    H253948   4.161   1.177   5.121  1.9488 -0.8285  0.6366
10845TIP3   OH253949   0.387   4.974   3.761 -0.1795 -0.0815 -0.0592
10845TIP3    H153950   0.400   4.894   3.710  0.0807  0.4107 -0.7772
10845TIP3    H253951   0.472   5.018   3.762 -0.6863  0.9950 -1.0890
10846TIP3   OH253952   4.241   6.209   4.206  0.1542 -0.1552 -0.4712
10846TIP3    H153953   4.202   6.221   4.119  0.2157  0.2538 -0.4446
10846TIP3    H253954   4.277   6.294   4.228 -1.1175  0.1494  0.5783
10847TIP3   OH253955   5.160   0.112   5.666 -0.4708 -0.2555 -0.3418
10847TIP3    H153956   5.124   0.138   5.751 -1.6730  0.7031 -1.1023
10847TIP3    H253957   5.090   0.061   5.626  0.4457 -1.5003 -0.4003
10848TIP3   OH253958   2.066   2.453   3.913  0.3387  0.0233 -0.4214
10848TIP3    H153959   2.002   2.394   3.873  0.8446  0.0603 -1.3253
10848TIP3    H253960   2.118   2.485   3.839  2.3625 -1.1454  0.4246
10849TIP3   OH253961   5.115   2.665   3.739 -0.8227  0.3001 -0.1884
10849TIP3    H153962   5.064   2.671   3.820 -0.1887  0.3370  0.2188
10849TIP3    H253963   5.098   2.577   3.706  0.1834 -0.3216  0.8668
10850TIP3   OH253964   2.682   4.512  15.997 -0.2805 -0.0439 -0.4734
10850TIP3    H153965   2.684   4.538  16.089 -0.7430  0.5245 -0.6264
10850TIP3    H253966   2.623   4.574  15.955  0.4302  0.1017 -1.2852
10851TIP3   OH253967   0.030   4.311  12.756 -0.0669 -0.0148 -0.2100
10851TIP3    H153968   0.080   4.386  12.788 -0.4737  0.9963 -1.7928
10851TIP3    H253969   0.038   4.317  12.660 -2.0088 -0.6521 -0.4492
10852TIP3   OH253970   0.020   2.074  12.617 -0.0033 -0.4083 -0.1184
10852TIP3    H153971   0.055   2.150  12.663 -1.2361 -1.2899  2.4841
10852TIP3    H253972  -0.068   2.100  12.591  0.5924 -0.0108 -1.8097
10853TIP3   OH253973   0.100   2.595   4.916  0.1619  0.1476  0.0272
10853TIP3    H153974   0.131   2.681   4.889 -1.2171  0.8493  0.5746
10853TIP3    H253975   0.168   2.535   4.886  1.3580  1.4531 -0.0151
10854TIP3   OH253976   5.112   0.347  15.183 -0.0392 -0.0218 -0.1647
10854TIP3    H153977   5.181   0.341  15.249 -0.7819  0.7154  0.7137
10854TIP3    H253978   5.133   0.425  15.132  0.5720 -0.6301 -0.8494
10855TIP3   OH253979   2.813   4.811  15.007  0.2448 -0.2348  0.2032
10855TIP3    H153980   2.744   4.869  15.037 -1.2840 -1.6201 -0.4639
10855TIP3    H253981   2.873   4.804  15.081  0.3498  1.9524  0.3668
10856TIP3   OH253982   6.289   4.756  11.433  0.3931  0.6518 -0.0588
10856TIP3    H153983   6.381   4.778  11.419  0.6197 -0.9229 -1.3805
10856TIP3    H253984   6.251   4.756  11.345 -0.2345 -1.2244  0.1752
10857TIP3   OH253985   0.089   4.563  16.433  0.0032  0.4474 -0.4836
10857TIP3    H153986  -0.003   4.584  16.445  0.4710  2.2995  0.1787
10857TIP3    H253987   0.102   4.563  16.339 -0.6925 -0.0079 -0.5877
10858TIP3   OH253988   5.147   5.689  15.360 -0.0585 -0.1079 -0.0017
10858TIP3    H153989   5.090   5.762  15.336  3.3330  2.8354  0.0256
10858TIP3    H253990   5.136   5.679  15.455  0.1893  1.1604  0.1762
10859TIP3   OH253991   2.081   1.809   2.125 -0.1932 -0.1990 -0.5623
10859TIP3    H153992   2.007   1.869   2.115 -0.4065 -0.7299 -2.6634
10859TIP3    H253993   2.159   1.865   2.113 -0.2934  0.0816  0.0565
10860TIP3   OH253994   2.028   4.474  12.452 -0.0867 -0.3953 -0.8506
10860TIP3    H153995   1.984   4.399  12.412  0.8951  0.1089 -2.9980
10860TIP3    H253996   2.114   4.441  12.477  0.1861 -0.1169 -1.3995
10861TIP3   OH253997   0.479   3.043   2.803  0.2424 -0.9085  0.1477
10861TIP3    H153998   0.415   3.111   2.825  2.1517  0.8837  0.4379
10861TIP3    H253999   0.526   3.077   2.727  1.5912 -1.6364  0.6132
10862TIP3   OH254000   6.269   0.422   3.858  0.0066  0.6063  0.1939
10862TIP3    H154001   6.310   0.470   3.786 -0.4074  0.8888  0.1403
10862TIP3    H254002   6.316   0.339   3.862  2.0378  1.7575  1.5349
10863TIP3   OH254003   6.374   0.135   1.983  0.1660 -0.0451 -0.3592
10863TIP3    H154004   6.339   0.097   1.902  1.2546 -0.9223 -0.4414
10863TIP3    H254005   6.356   0.068   2.050 -0.4240  0.5298  0.0694
10864TIP3   OH254006   3.962   2.262   4.279 -0.4009 -0.0780  0.1538
10864TIP3    H154007   4.000   2.350   4.271 -0.2710 -0.0010  1.3449
10864TIP3    H254008   3.934   2.257   4.371 -0.2617 -1.3396  0.1468
10865TIP3   OH254009   4.633   1.280   4.110 -0.2232  0.1770  0.4176
10865TIP3    H154010   4.590   1.238   4.036  0.7703  0.1490 -0.1687
10865TIP3    H254011   4.572   1.347   4.138 -1.0972 -0.5511  0.2882
10866TIP3   OH254012   4.180   2.906  12.423  0.2959 -0.5964 -0.3804
10866TIP3    H154013   4.212   2.878  12.509 -0.4863 -0.4543 -0.0290
10866TIP3    H254014   4.176   2.825  12.372 -0.3972 -0.8861  0.1137
10867TIP3   OH254015   2.715   1.405  12.801  0.3724 -0.8295  0.0644
10867TIP3    H154016   2.727   1.500  12.801  1.2844 -0.9275 -0.0396
10867TIP3    H254017   2.725   1.380  12.709  2.8889 -1.2944  0.3738
10868TIP3   OH254018   1.290   1.295   3.516 -0.1206  0.6277 -0.3588
10868TIP3    H154019   1.223   1.280   3.450 -0.5601 -0.4124  0.3090
10868TIP3    H254020   1.270   1.233   3.586  0.2706  1.7689  0.8070
10869TIP3   OH254021   5.745   3.780   1.906  0.3778  0.2472 -0.2340
10869TIP3    H154022   5.764   3.871   1.931  2.7533 -0.3491  0.3937
10869TIP3    H254023   5.767   3.776   1.813  0.5790  0.2528 -0.1879
10870TIP3   OH254024   1.616   3.770  16.032 -0.2209  0.4931 -0.5565
10870TIP3    H154025   1.631   3.778  16.126 -2.0251  0.5958 -0.2372
10870TIP3    H254026   1.642   3.855  15.996  1.9749 -0.0596 -0.4223
10871TIP3   OH254027   6.105   6.649   5.428 -0.0171  0.0985 -0.2395
10871TIP3    H154028   6.137   6.711   5.362  1.2966  0.9012  1.1014
10871TIP3    H254029   6.051   6.702   5.486 -1.0185 -0.5678 -0.5412
10872TIP3   OH254030   5.463   6.630  17.082 -0.5038  0.2129 -0.2025
10872TIP3    H154031   5.420   6.549  17.056 -1.7217  0.9911 -0.6749
10872TIP3    H254032   5.412   6.661  17.157 -0.6518  1.0588 -0.6528
10873TIP3   OH254033   6.372   0.142  12.960 -0.3157 -0.1566  0.3900
10873TIP3    H154034   6.287   0.108  12.933 -0.1964 -0.9010  0.9246
10873TIP3    H254035   6.415   0.069  13.004  0.4932  0.2914  0.3745
10874TIP3   OH254036   1.523   6.234   5.352  0.1505 -0.3897  0.1582
10874TIP3    H154037   1.551   6.247   5.442  0.5953  2.6568 -0.3237
10874TIP3    H254038   1.582   6.166   5.318  0.5107 -0.9831  1.8747
10875TIP3   OH254039   6.751   3.545   5.388  0.3027 -0.6050  0.2074
10875TIP3    H154040   6.721   3.635   5.374  1.5908 -0.6252 -4.4050
10875TIP3    H254041   6.832   3.554   5.438 -0.3374  0.6105  1.0761
10876TIP3   OH254042   0.385   1.272   2.153 -0.1576  0.0937  0.1856
10876TIP3    H154043   0.302   1.288   2.199 -1.0522 -0.6523 -1.1013
10876TIP3    H254044   0.360   1.262   2.061  1.5855  1.6373 -0.5286
10877TIP3   OH254045   2.191   3.449  14.326 -0.3541  0.5120 -0.5751
10877TIP3    H154046   2.199   3.459  14.421 -3.0068 -1.0237 -0.1017
10877TIP3    H254047   2.258   3.385  14.303 -0.9070 -0.5380  0.6071
10878TIP3   OH254048   1.059   5.584   1.280 -0.7839 -0.5449  0.4182
10878TIP3    H154049   1.044   5.678   1.278  2.2011  0.0363 -1.8052
10878TIP3    H254050   1.141   5.574   1.329 -1.0234 -1.9848  0.5596
10879TIP3   OH254051   3.499   1.244  10.954  0.2682 -0.0125  0.3221
10879TIP3    H154052   3.592   1.265  10.956  0.4793 -0.1513 -2.9897
10879TIP3    H254053   3.457   1.323  10.921 -0.6591 -0.3603  0.6270
10880TIP3   OH254054   2.940   2.793  15.324 -0.5931 -0.1449 -0.2240
10880TIP3    H154055   2.944   2.699  15.310  0.1946  0.0383 -1.4239
10880TIP3    H254056   2.864   2.806  15.380 -0.7605 -1.4794 -0.1108
10881TIP3   OH254057   4.798   3.948  15.141  0.5656 -0.2217 -0.1466
10881TIP3    H154058   4.706   3.937  15.167  0.4093 -2.0508 -1.3268
10881TIP3    H254059   4.847   3.889  15.198  0.7170 -1.0442 -1.1166
10882TIP3   OH254060   1.120   0.354  12.847  0.1759 -0.0020  0.3042
10882TIP3    H154061   1.066   0.347  12.768  1.2267 -1.0832 -0.3477
10882TIP3    H254062   1.173   0.432  12.834  0.4795 -0.2834 -0.1376
10883TIP3   OH254063   0.858   0.948   2.474 -0.4311  0.1939  0.3664
10883TIP3    H154064   0.920   1.012   2.440 -0.4953  1.8977  3.1489
10883TIP3    H254065   0.908   0.867   2.481  0.3238  0.5094 -1.0591
10884TIP3   OH254066   2.512   1.318   4.515  0.0052 -0.0180  0.4371
10884TIP3    H154067   2.534   1.368   4.593  0.9151  1.5873 -0.7987
10884TIP3    H254068   2.495   1.384   4.448 -0.1230 -1.3509 -0.8881
10885TIP3   OH254069   6.687   5.122  13.861  0.3812 -0.4512 -0.3587
10885TIP3    H154070   6.604   5.076  13.871  0.5963 -1.4598 -2.7482
10885TIP3    H254071   6.673   5.181  13.787  0.6971  2.1237  1.4764
10886TIP3   OH254072   4.186   2.246   1.230 -0.0855 -0.1062 -0.0816
10886TIP3    H154073   4.176   2.317   1.166  1.2277 -0.8814 -1.2034
10886TIP3    H254074   4.144   2.170   1.188  0.3160 -0.4876  0.2025
10887TIP3   OH254075   1.008   2.427  13.803 -0.0290  0.6770 -0.4978
10887TIP3    H154076   1.035   2.508  13.845  0.3485 -0.4251  1.5005
10887TIP3    H254077   1.066   2.360  13.839  0.1586 -0.4233 -2.6339
10888TIP3   OH254078   1.708   1.196  14.041 -0.2476  0.1313  0.6563
10888TIP3    H154079   1.730   1.127  13.978 -1.2297  0.7153 -0.3566
10888TIP3    H254080   1.613   1.204  14.036 -0.4096 -0.1762  2.6325
10889TIP3   OH254081   4.019   0.273   1.460 -0.0511  0.0380  0.0109
10889TIP3    H154082   4.015   0.225   1.543 -2.3516  0.1052 -0.0150
10889TIP3    H254083   4.097   0.238   1.417  0.3544 -1.0736  1.5433
10890TIP3   OH254084   5.428   6.492  14.627 -0.6814 -0.1237 -0.2471
10890TIP3    H154085   5.391   6.430  14.566 -0.9415 -0.0267 -0.1876
10890TIP3    H254086   5.523   6.486  14.613 -0.7838  0.6213 -1.3599
10891TIP3   OH254087   4.167   2.191  14.297  0.0899  0.4653  0.2013
10891TIP3    H154088   4.101   2.171  14.230  0.8502  0.6643 -0.6260
10891TIP3    H254089   4.123   2.251  14.356 -0.0870  1.6458 -1.0739
10892TIP3   OH254090   6.104   3.740  14.217  0.3574 -0.2592  0.0221
10892TIP3    H154091   6.127   3.746  14.125  1.6598 -0.7933  0.2903
10892TIP3    H254092   6.153   3.812  14.259  0.8694 -0.8617  0.4804
10893TIP3   OH254093   6.120   6.184  14.067 -0.1080 -0.6793 -0.7280
10893TIP3    H154094   6.195   6.236  14.042  0.6256 -0.7763  1.0884
10893TIP3    H254095   6.101   6.211  14.157 -1.4484 -1.5673 -0.7111
10894TIP3   OH254096   0.033   2.883  13.468  0.3528 -0.0903  0.0449
10894TIP3    H154097   0.002   2.799  13.432  2.5414 -0.4612 -1.1828
10894TIP3    H254098  -0.018   2.895  13.547 -1.4262 -1.6029 -0.7817
10895TIP3   OH254099   4.047   6.154  15.390  0.8058 -0.3372 -0.0825
10895TIP3    H154100   4.063   6.064  15.419  1.1103 -1.1729 -2.6327
10895TIP3    H254101   4.124   6.203  15.419  1.5870 -1.3480 -0.3959
10896TIP3   OH254102   2.137   2.099  11.977 -0.0592  0.8493  0.1895
10896TIP3    H154103   2.196   2.115  11.903 -1.1941  2.1329 -0.4642
10896TIP3    H254104   2.173   2.020  12.019  1.6843  1.1625 -0.6145
10897TIP3   OH254105   4.974   2.242  13.005 -0.1147  0.0377  0.4126
10897TIP3    H154106   4.958   2.336  13.014 -1.1619  0.1176 -1.5068
10897TIP3    H254107   4.886   2.205  12.993  0.2677 -1.2240  1.4010
10898TIP3   OH254108   1.219   3.236   1.052  0.1004 -0.0611  0.4529
10898TIP3    H154109   1.166   3.204   0.979  0.4904 -0.0326  0.1544
10898TIP3    H254110   1.281   3.166   1.070  0.8746  0.4634 -0.1243
10899TIP3   OH254111   3.839   1.600   5.293  0.3015  0.6753  0.8604
10899TIP3    H154112   3.829   1.694   5.273  0.2243  1.0769  2.6313
10899TIP3    H254113   3.751   1.565   5.282  0.7020  0.2906 -1.9607
10900TIP3   OH254114   3.538   2.872   0.248 -0.1223  0.2447  0.0328
10900TIP3    H154115   3.496   2.947   0.289 -0.3294 -0.0989  0.4726
10900TIP3    H254116   3.552   2.810   0.321  0.4586  0.0472 -0.2378
10901TIP3   OH254117   4.351   0.449   6.432 -0.0756 -0.1172  0.1989
10901TIP3    H154118   4.309   0.506   6.497  0.0253 -0.0181  0.1795
10901TIP3    H254119   4.444   0.471   6.439 -0.0247 -0.3536  0.2617
10902TIP3   OH254120   3.018   6.204   2.684  0.4573  0.3874  0.5878
10902TIP3    H154121   2.926   6.207   2.657  0.3519  0.2044  0.9112
10902TIP3    H254122   3.014   6.189   2.778  0.8252 -0.5251  0.4685
10903TIP3   OH254123   5.539   1.568   3.067 -0.5137  0.2473  0.2420
10903TIP3    H154124   5.610   1.604   3.120  0.7675 -0.7394 -0.7395
10903TIP3    H254125   5.508   1.643   3.016  0.0150  0.6291  0.4607
10904TIP3   OH254126   3.081   0.601   2.285  0.2813  0.1706 -0.0236
10904TIP3    H154127   3.160   0.596   2.232  0.0879  0.1564 -0.3139
10904TIP3    H254128   3.108   0.644   2.366  0.8841 -1.0121  0.4355
10905TIP3   OH254129   5.460   6.401  16.630  0.4220 -0.2273  0.1122
10905TIP3    H154130   5.521   6.366  16.694 -0.0657  0.0727  0.7524
10905TIP3    H254131   5.378   6.414  16.678  0.0772  0.1060 -0.5382
10906TIP3   OH254132   4.982   0.435   2.377 -0.7276  0.5965  0.3979
10906TIP3    H154133   4.986   0.457   2.284 -3.0248  0.8776  0.3006
10906TIP3    H254134   5.054   0.373   2.390 -1.8250 -1.4123 -2.1536
10907TIP3   OH254135   3.843   6.019  13.737 -0.1899 -0.1940  0.6553
10907TIP3    H154136   3.856   6.064  13.820  0.1264 -1.1481  1.1338
10907TIP3    H254137   3.932   6.002  13.705 -0.3092  0.1661  0.1206
10908TIP3   OH254138   3.695   3.267   2.676  0.4634 -0.4821  0.0106
10908TIP3    H154139   3.697   3.359   2.652  2.2537 -0.4708  0.0420
10908TIP3    H254140   3.779   3.232   2.645  0.2629 -1.8554  0.9058
10909TIP3   OH254141   0.890   1.969   3.963  0.1588  0.5262  0.0472
10909TIP3    H154142   0.894   1.970   3.868  0.7298  0.4053  0.0676
10909TIP3    H254143   0.797   1.963   3.983  0.0827 -0.2847 -0.5130
10910TIP3   OH254144   4.755   3.969   3.495 -0.5449  0.4515 -0.2278
10910TIP3    H154145   4.735   4.012   3.578 -1.8336  0.3621 -0.4727
10910TIP3    H254146   4.698   3.892   3.493 -0.9536  0.7591 -1.4425
10911TIP3   OH254147   2.514   4.588  17.016  0.3212 -0.2295 -0.1334
10911TIP3    H154148   2.514   4.651  16.944 -0.1578  1.1166  0.9903
10911TIP3    H254149   2.561   4.633  17.086 -1.0072 -0.6490  1.0681
10912TIP3   OH254150   4.473   0.291   0.793 -0.6423  0.4414 -0.1410
10912TIP3    H154151   4.384   0.257   0.791  0.6785 -3.7024 -1.9476
10912TIP3    H254152   4.500   0.280   0.884 -1.4016 -0.2442  0.0206
10913TIP3   OH254153   0.255   6.147   3.189 -0.5531  0.7039  0.2331
10913TIP3    H154154   0.248   6.226   3.241  2.7981  1.3206 -0.0320
10913TIP3    H254155   0.283   6.178   3.102  0.8942 -0.7241  0.1454
10914TIP3   OH254156   4.435   5.495  15.637  0.0945  0.1967 -0.1420
10914TIP3    H154157   4.376   5.424  15.665 -0.3611  0.4662 -0.4145
10914TIP3    H254158   4.384   5.546  15.576 -0.5095  2.2919  1.9672
10915TIP3   OH254159   3.287   5.382   3.470  0.1284 -0.2609 -0.1292
10915TIP3    H154160   3.211   5.395   3.414  0.6438 -1.7184 -1.2476
10915TIP3    H254161   3.355   5.437   3.431  0.1670 -0.4149 -0.2838
10916TIP3   OH254162   2.909   0.260  11.164  0.1293  0.2762  0.1592
10916TIP3    H154163   2.904   0.313  11.084  2.3071  0.6989  0.2234
10916TIP3    H254164   2.951   0.179  11.136 -1.0525 -0.4863  0.5117
10917TIP3   OH254165   0.460   3.844  11.087 -0.1885  0.2797  0.0668
10917TIP3    H154166   0.458   3.903  11.012  0.3055  0.0588 -0.1223
10917TIP3    H254167   0.406   3.769  11.059  0.2402  0.0626 -0.1834
10918TIP3   OH254168   2.400   0.091  11.144 -0.0387 -0.9726 -0.1217
10918TIP3    H154169   2.478   0.131  11.107  0.4740 -0.5012  1.3904
10918TIP3    H254170   2.426   0.002  11.167  0.0841 -0.7795  0.4854
10919TIP3   OH254171   1.633   0.203   3.197  0.6444 -0.6732  0.7237
10919TIP3    H154172   1.700   0.262   3.165 -1.1922  0.9151 -0.4163
10919TIP3    H254173   1.681   0.136   3.246  2.9151  1.0860  1.0796
10920TIP3   OH254174   3.437   0.635   4.271 -1.0261 -0.0558  0.3050
10920TIP3    H154175   3.398   0.660   4.354  1.3510  1.1721  1.1679
10920TIP3    H254176   3.383   0.678   4.205 -1.7237  0.7077  1.3402
10921TIP3   OH254177   6.434   1.261  12.997 -0.0901 -0.2126 -0.8152
10921TIP3    H154178   6.351   1.237  13.040 -0.1124 -0.8750 -1.2132
10921TIP3    H254179   6.494   1.276  13.070  0.1715 -2.3944 -0.5153
10922TIP3   OH254180   5.075   5.329   4.026  0.1266  0.4191 -0.6487
10922TIP3    H154181   5.171   5.324   4.028  0.2257  1.9632  1.5977
10922TIP3    H254182   5.056   5.423   4.022 -1.2888  0.1552 -0.5707
10923TIP3   OH254183   3.094   4.454   1.630  0.3388  0.0653  0.6142
10923TIP3    H154184   3.035   4.530   1.634  0.3894  0.0883  0.8936
10923TIP3    H254185   3.073   4.412   1.546  0.2908  0.3713  0.4709
10924TIP3   OH254186   4.936   6.639   1.404 -0.0711  0.0936 -0.0031
10924TIP3    H154187   4.848   6.676   1.402 -0.4818 -0.8775 -0.4110
10924TIP3    H254188   4.960   6.627   1.312  1.9355  3.5833 -0.1239
10925TIP3   OH254189   2.115   5.171   2.167  0.3031  0.2663 -0.4467
10925TIP3    H154190   2.040   5.150   2.112  0.6617 -0.4753 -0.6536
10925TIP3    H254191   2.171   5.226   2.112 -0.5838  1.7447  0.0623
10926TIP3   OH254192   4.572   2.264   0.312 -0.1585 -0.4514 -0.0314
10926TIP3    H154193   4.666   2.256   0.292  0.3397 -0.4030  2.0396
10926TIP3    H254194   4.528   2.227   0.236  1.5779 -1.5653 -0.5527
10927TIP3   OH254195   5.932   1.600  13.348 -0.2039 -0.1048 -0.2252
10927TIP3    H154196   5.907   1.682  13.306 -1.7380 -0.8939 -0.9276
10927TIP3    H254197   5.957   1.624  13.437 -1.8014  0.9883 -0.0432
10928TIP3   OH254198   3.522   6.400  15.900 -1.2368 -0.1734  0.0568
10928TIP3    H154199   3.446   6.351  15.930  0.2671 -1.4439  2.0566
10928TIP3    H254200   3.578   6.335  15.858  0.5763 -0.2032  2.3285
10929TIP3   OH254201   4.722   6.566   2.458  0.1943  0.0389 -0.9334
10929TIP3    H154202   4.784   6.496   2.440  0.2676  0.2894 -1.7344
10929TIP3    H254203   4.774   6.637   2.495  0.3931  0.2313 -1.5597
10930TIP3   OH254204   1.846   1.519  12.640  0.5170  0.4649 -0.0964
10930TIP3    H154205   1.773   1.519  12.702  1.0387 -1.4454  0.5745
10930TIP3    H254206   1.828   1.594  12.583 -2.1765 -0.1040 -0.1753
10931TIP3   OH254207   3.718   4.110  11.507  0.5491  0.2229 -0.1407
10931TIP3    H154208   3.717   4.026  11.461 -0.2910  0.4675 -0.5876
10931TIP3    H254209   3.801   4.150  11.480  0.8427 -0.3575 -0.1144
10932TIP3   OH254210   5.282   2.935   0.094 -0.5274 -0.8304  0.8447
10932TIP3    H154211   5.203   2.952   0.043 -0.1693 -0.4627  0.3917
10932TIP3    H254212   5.339   2.886   0.034  0.9790  1.8671 -0.1619
10933TIP3   OH254213   4.967   3.513  12.608 -0.5885 -0.1067 -0.0123
10933TIP3    H154214   4.899   3.569  12.570 -0.3529 -0.1242 -0.4624
10933TIP3    H254215   4.943   3.507  12.701  0.0167  1.6733  0.2958
10934TIP3   OH254216   2.583   1.746  12.222  0.1427 -0.1531  0.0628
10934TIP3    H154217   2.611   1.761  12.312  0.4949  0.3155 -0.1248
10934TIP3    H254218   2.655   1.697  12.181 -0.5715 -1.5492  0.3907
10935TIP3   OH254219   3.491   5.381  14.947 -0.2888 -0.0605 -0.1481
10935TIP3    H154220   3.548   5.329  15.003 -1.6440 -1.2941  0.1468
10935TIP3    H254221   3.418   5.323  14.927 -1.3294  1.3855 -0.7105
10936TIP3   OH254222   5.750   5.874  14.519 -0.0312 -0.6576  0.0524
10936TIP3    H154223   5.721   5.806  14.580 -0.4243 -0.4800  0.0629
10936TIP3    H254224   5.761   5.952  14.573  0.9107 -0.8266  0.1356
10937TIP3   OH254225   4.642   3.590  15.775 -0.2834 -0.7250  0.9962
10937TIP3    H154226   4.579   3.632  15.833  2.2717 -0.0070  3.4437
10937TIP3    H254227   4.623   3.496  15.782 -1.4917 -0.4863  1.1154
10938TIP3   OH254228   3.513   0.701  16.770 -0.1614  0.3026  0.0300
10938TIP3    H154229   3.556   0.706  16.855 -3.9246 -0.3436  2.2202
10938TIP3    H254230   3.577   0.660  16.712  2.3013  0.0659  2.7347
10939TIP3   OH254231   0.907   5.460   1.085 -0.5076  0.0851  0.3493
10939TIP3    H154232   0.902   5.548   1.045  3.3117  0.3379  0.0747
10939TIP3    H254233   0.973   5.469   1.154  0.3813 -2.6892 -0.0460
10940TIP3   OH254234   2.404   1.939   5.528 -0.0587 -0.3598 -0.2888
10940TIP3    H154235   2.489   1.904   5.503 -0.5081 -2.4956  0.9388
10940TIP3    H254236   2.347   1.862   5.532 -2.3317  1.1085 -2.0167
10941TIP3   OH254237   2.809   1.957  11.819 -0.4696  0.1570 -0.0071
10941TIP3    H154238   2.831   2.004  11.738  0.6948  0.8613  0.7035
10941TIP3    H254239   2.789   2.025  11.882  0.5840 -0.3034  0.8534
10942TIP3   OH254240   1.544   1.102  15.038  0.5011  0.0913 -0.2946
10942TIP3    H154241   1.512   1.178  15.086 -0.9383  0.0097 -1.0976
10942TIP3    H254242   1.635   1.124  15.017 -0.6538  2.9383 -3.0728
10943TIP3   OH254243   2.295   4.201  14.429 -0.6822  0.3238  0.1666
10943TIP3    H154244   2.361   4.267  14.451 -0.2180 -0.4715  1.2050
10943TIP3    H254245   2.326   4.121  14.469 -2.1020 -0.1646  0.3504
10944TIP3   OH254246   1.029   4.536  16.662  0.5478  0.4743 -0.3547
10944TIP3    H154247   1.021   4.569  16.752  0.3936 -0.6254  0.0652
10944TIP3    H254248   1.101   4.472  16.667 -0.9765 -1.3297 -0.4426
10945TIP3   OH254249   0.077   1.765   5.148  0.0445  0.4984  0.2005
10945TIP3    H154250   0.129   1.784   5.226 -0.4579 -1.1505  0.9829
10945TIP3    H254251   0.040   1.679   5.165 -1.7887  1.0131 -0.9666
10946TIP3   OH254252   6.288   6.370   3.183 -0.8291 -0.0786  0.1040
10946TIP3    H154253   6.213   6.321   3.219  0.9095 -1.4667  2.0460
10946TIP3    H254254   6.351   6.303   3.158 -0.4654  1.0402 -2.2072
10947TIP3   OH254255   1.900   0.974  13.166  0.3298  1.0555 -0.4091
10947TIP3    H154256   1.957   0.913  13.214 -1.7087  0.4113  1.4001
10947TIP3    H254257   1.827   0.920  13.137 -0.7708  2.3285 -0.1200
10948TIP3   OH254258   0.567   3.613  16.976 -0.1558 -0.6155  0.0708
10948TIP3    H154259   0.638   3.635  16.916  1.6883 -1.8324  1.6881
10948TIP3    H254260   0.513   3.692  16.979  2.4627  1.2601  0.5787
10949TIP3   OH254261   2.240   3.715   4.920 -0.1107 -0.1819 -0.4462
10949TIP3    H154262   2.267   3.716   5.011 -0.3994  0.7323 -0.3525
10949TIP3    H254263   2.148   3.688   4.923 -0.6090  1.4025 -0.2857
10950TIP3   OH254264   1.160   1.121  12.355  0.1006 -1.0328 -0.0771
10950TIP3    H154265   1.131   1.093  12.442  0.1627 -1.2493 -0.1265
10950TIP3    H254266   1.187   1.212  12.368 -0.5105 -0.8522 -0.0122
10951TIP3   OH254267   5.588   6.222  10.840  0.0630 -0.6400  0.0573
10951TIP3    H154268   5.618   6.313  10.832  0.4952 -0.7948 -0.0996
10951TIP3    H254269   5.660   6.170  10.805  0.7865 -1.1754  2.2377
10952TIP3   OH254270   4.180   5.053  16.339 -0.3909  0.0578 -0.1754
10952TIP3    H154271   4.204   5.118  16.405  0.2846 -0.0329 -0.3209
10952TIP3    H254272   4.085   5.060  16.332 -0.3546  0.8510 -0.0064
10953TIP3   OH254273   3.430   0.239  13.758  0.4585  0.1618  0.4182
10953TIP3    H154274   3.432   0.270  13.667 -0.3321 -1.8646 -0.3541
10953TIP3    H254275   3.487   0.162  13.758 -2.6764 -2.3854  0.5141
10954TIP3   OH254276   6.177   4.767   5.968 -0.3834 -0.3822 -0.6558
10954TIP3    H154277   6.112   4.833   5.995  0.2927 -0.2867  0.8203
10954TIP3    H254278   6.259   4.816   5.961  0.4415 -1.2388  1.8593
10955TIP3   OH254279   0.536   4.085  14.479  0.3513 -0.3599  0.2631
10955TIP3    H154280   0.466   4.089  14.414 -0.5776  1.4166  1.2881
10955TIP3    H254281   0.596   4.156  14.454  0.0011  0.3193  1.2787
10956TIP3   OH254282   0.571   2.106  17.167  0.3595 -0.1419 -0.3702
10956TIP3    H154283   0.513   2.182  17.160 -0.9587 -1.1523 -1.0124
10956TIP3    H254284   0.511   2.031  17.173  1.5820 -1.0548  1.6761
10957TIP3   OH254285   1.399   0.148   6.083 -0.1014 -0.1528 -0.4578
10957TIP3    H154286   1.393   0.071   6.140  0.1463  1.5996  2.0837
10957TIP3    H254287   1.493   0.161   6.070 -0.1320 -0.0398 -0.5656
10958TIP3   OH254288   5.889   4.595   0.526 -0.1936 -0.3247  0.3995
10958TIP3    H154289   5.899   4.506   0.492  1.0251 -0.0215 -0.1134
10958TIP3    H254290   5.968   4.610   0.577 -0.6474  0.2787  0.9362
10959TIP3   OH254291   4.618   2.060  14.437 -0.2471 -0.0648 -0.5676
10959TIP3    H154292   4.584   1.976  14.407  0.9777 -0.6580 -0.3937
10959TIP3    H254293   4.713   2.048  14.436 -0.0851  0.9684  0.4646
10960TIP3   OH254294   1.164   1.388   4.321  0.1742  0.0004 -0.2503
10960TIP3    H154295   1.160   1.334   4.242 -0.0961  0.4322 -0.5381
10960TIP3    H254296   1.247   1.366   4.361 -0.0662 -0.8473 -0.2064
10961TIP3   OH254297   0.746   3.818   1.034  0.0924  0.0420 -0.1061
10961TIP3    H154298   0.761   3.874   0.957 -1.2718  1.4778  0.6313
10961TIP3    H254299   0.791   3.863   1.105  1.1132 -1.1439  0.0242
10962TIP3   OH254300   1.369   4.300   0.698 -0.3283 -0.2242 -0.2706
10962TIP3    H154301   1.283   4.264   0.675 -1.4020  0.4074  2.3966
10962TIP3    H254302   1.352   4.393   0.713  0.8356 -0.0821  0.2347
10963TIP3   OH254303   2.364   0.456  11.810  0.1080  0.2570 -0.2494
10963TIP3    H154304   2.459   0.458  11.822 -0.1884  0.3000  2.5778
10963TIP3    H254305   2.348   0.371  11.769  1.1531 -1.4157  2.5162
10964TIP3   OH254306   5.980   6.617  11.357 -0.3364  0.1914 -0.3943
10964TIP3    H154307   5.888   6.642  11.360 -0.4288 -0.2192  0.9495
10964TIP3    H254308   5.989   6.550  11.425  0.8681 -0.0946 -0.7980
10965TIP3   OH254309   2.241   2.593   3.326  0.3446 -0.0957 -0.1027
10965TIP3    H154310   2.254   2.534   3.251  0.8537  0.2213 -0.2712
10965TIP3    H254311   2.211   2.674   3.287  1.1477  0.2516 -0.0263
10966TIP3   OH254312   5.162   3.561  13.418  0.3608 -0.5784  0.1235
10966TIP3    H154313   5.255   3.541  13.425 -0.0828 -2.1306  2.7835
10966TIP3    H254314   5.144   3.620  13.491 -0.7349 -0.2448 -0.3888
10967TIP3   OH254315   2.983   3.928  15.007 -0.0870  0.0840 -0.7303
10967TIP3    H154316   2.908   3.881  14.970 -0.0446  0.9113 -1.9283
10967TIP3    H254317   3.006   3.993  14.940  2.0411 -0.4964 -0.6324
10968TIP3   OH254318   3.382   5.935   1.881 -0.4050  0.0813  0.2365
10968TIP3    H154319   3.471   5.958   1.855  0.0910 -1.9102 -0.0113
10968TIP3    H254320   3.371   5.975   1.967 -0.2980  2.6174 -0.8276
10969TIP3   OH254321   1.297   2.281  16.565  0.3272  0.1603  0.1598
10969TIP3    H154322   1.256   2.352  16.514 -1.0159 -0.4018  0.4095
10969TIP3    H254323   1.355   2.326  16.626 -0.9858  1.1150  0.7509
10970TIP3   OH254324   1.931   2.900  15.200  0.1968  0.8262 -0.3191
10970TIP3    H154325   1.840   2.874  15.183  0.1724  1.4053 -1.1043
10970TIP3    H254326   1.942   2.982  15.153  1.4142  0.2821 -1.0297
10971TIP3   OH254327   0.898   2.602   0.307 -0.6105 -0.7571 -0.4274
10971TIP3    H154328   0.988   2.629   0.286 -1.0348  1.6247  0.5120
10971TIP3    H254329   0.849   2.618   0.226 -0.5468 -0.1304 -0.3503
10972TIP3   OH254330   4.865   5.699  15.280  0.3031  0.0424 -0.1631
10972TIP3    H154331   4.829   5.612  15.297  1.9300 -0.2311  2.4490
10972TIP3    H254332   4.910   5.690  15.196 -2.0824 -0.6960 -1.4822
10973TIP3   OH254333   5.229   6.723   3.859  0.1817  0.1172 -0.5468
10973TIP3    H154334   5.317   6.722   3.821  0.2344 -0.5412 -0.4099
10973TIP3    H254335   5.242   6.702   3.952 -0.0800  0.4631 -0.4242
10974TIP3   OH254336   6.105   1.772   0.261 -0.3497 -0.4770  0.1519
10974TIP3    H154337   6.021   1.816   0.257 -0.8953 -1.1540  2.4154
10974TIP3    H254338   6.169   1.843   0.268 -1.0253  0.0378  1.5010
10975TIP3   OH254339   5.378   4.751  14.381 -0.1280  0.3901 -0.1205
10975TIP3    H154340   5.364   4.656  14.384  0.4819  0.3077  0.2291
10975TIP3    H254341   5.290   4.788  14.385 -0.3291 -0.1447  0.5033
10976TIP3   OH254342   1.466   0.565  11.627  0.2488  0.2746 -0.0897
10976TIP3    H154343   1.504   0.610  11.552 -0.9184  0.6712 -0.4520
10976TIP3    H254344   1.398   0.510  11.591  0.2967 -0.2435  0.5866
10977TIP3   OH254345   5.644   1.236   0.538  0.2899  0.3692  0.1165
10977TIP3    H154346   5.592   1.270   0.611 -0.8664 -1.1153  0.0353
10977TIP3    H254347   5.735   1.253   0.564  0.0955 -2.2052  3.1365
10978TIP3   OH254348   0.584   5.887  14.848 -0.2513 -0.1701  0.3437
10978TIP3    H154349   0.652   5.873  14.914 -0.5339 -0.9610  0.4805
10978TIP3    H254350   0.602   5.820  14.781  1.2563  1.8543 -1.4256
10979TIP3   OH254351   3.700   6.157   0.747  0.5281 -0.4341 -0.4068
10979TIP3    H154352   3.774   6.110   0.786  1.8835 -0.0095 -2.3369
10979TIP3    H254353   3.656   6.091   0.693 -2.8209 -1.7244  3.3281
10980TIP3   OH254354   6.404   5.675  16.713  0.5420 -0.1341  0.8843
10980TIP3    H154355   6.320   5.654  16.673  0.6621  2.2113 -0.8266
10980TIP3    H254356   6.456   5.596  16.703 -0.9899 -1.1595  0.7085
10981TIP3   OH254357   6.738   5.718  15.972  0.1930 -0.3612 -0.4088
10981TIP3    H154358   6.706   5.773  15.901  0.1940  1.5791  1.0121
10981TIP3    H254359   6.827   5.750  15.989  0.4242 -1.2161  0.0661
10982TIP3   OH254360   1.798   5.769   4.918  0.5767  0.0443 -0.4198
10982TIP3    H154361   1.809   5.838   4.983 -1.3078 -1.7620  2.0107
10982TIP3    H254362   1.719   5.793   4.870  0.7051  0.2478 -0.5328
10983TIP3   OH254363   3.783   2.125  13.763 -0.6681  0.2069 -0.5385
10983TIP3    H154364   3.719   2.194  13.748  0.2965  0.9264 -1.4966
10983TIP3    H254365   3.848   2.136  13.693  0.6287 -0.3364  0.5281
10984TIP3   OH254366   1.304   1.315  16.095  0.1091  0.2382 -0.0645
10984TIP3    H154367   1.346   1.392  16.057  1.0024 -0.2785 -0.1257
10984TIP3    H254368   1.375   1.264  16.133 -0.7065  0.6049  2.1260
10985TIP3   OH254369   6.001   6.451   2.594 -0.0010 -0.6306 -0.3016
10985TIP3    H154370   5.955   6.524   2.635  2.1447  0.6402 -0.0265
10985TIP3    H254371   5.983   6.376   2.652  0.9640  0.5768  1.6857
10986TIP3   OH254372   5.480   2.033  12.916  0.1932  0.0120  0.2518
10986TIP3    H154373   5.545   2.101  12.898  0.0456  0.3465  0.9699
10986TIP3    H254374   5.477   1.982  12.835  0.2583  0.8972 -0.3312
10987TIP3   OH254375   4.467   0.884  14.417 -0.4202  0.3023 -0.3733
10987TIP3    H154376   4.450   0.851  14.505 -0.2282 -0.0367 -0.4616
10987TIP3    H254377   4.459   0.808  14.361 -0.4076  0.4924 -0.6342
10988TIP3   OH254378   3.522   5.747  14.954 -0.3141 -0.9269 -0.2635
10988TIP3    H154379   3.582   5.680  14.986 -0.0180 -1.1353 -1.2454
10988TIP3    H254380   3.567   5.787  14.880 -0.3492  0.5754  0.4816
10989TIP3   OH254381   2.059   2.015   0.697 -0.5275  0.9049  0.3523
10989TIP3    H154382   1.988   2.072   0.667 -0.6309  0.1599 -0.8651
10989TIP3    H254383   2.022   1.927   0.695  0.3988  0.5158 -0.2219
10990TIP3   OH254384   0.053   3.650  14.530  0.2353 -0.1042 -0.1722
10990TIP3    H154385   0.022   3.597  14.603  1.5679 -1.6535 -0.6760
10990TIP3    H254386   0.130   3.696  14.565  0.3909 -0.2160 -0.3667
10991TIP3   OH254387   3.112   0.736   6.138  0.3894  0.0568 -0.0949
10991TIP3    H154388   3.070   0.658   6.103  1.6551 -0.3353 -0.8074
10991TIP3    H254389   3.105   0.727   6.233 -0.6816 -0.2268 -0.1908
10992TIP3   OH254390   0.067   6.670  14.002 -0.0249  0.2643 -0.1922
10992TIP3    H154391   0.103   6.754  14.029 -0.6927  0.5109 -0.0548
10992TIP3    H254392   0.120   6.644  13.926 -0.0461  0.9806 -0.4559
10993TIP3   OH254393   4.055   5.545  13.937  0.4557  0.0210 -0.2060
10993TIP3    H154394   3.991   5.526  14.006 -0.7475  1.1501 -0.9581
10993TIP3    H254395   4.046   5.639  13.921  0.8181 -0.1862 -1.7898
10994TIP3   OH254396   0.723   6.653  12.822  0.1849  0.0671 -0.4464
10994TIP3    H154397   0.658   6.662  12.752  1.1032  0.5284 -1.2743
10994TIP3    H254398   0.786   6.590  12.788  1.2491  1.1316 -0.5396
10995TIP3   OH254399   1.963   5.198   0.344  0.1292 -0.2204 -0.3028
10995TIP3    H154400   2.031   5.172   0.283  0.2771 -2.0841  0.6135
10995TIP3    H254401   1.991   5.164   0.429 -0.1732  2.1162  0.8172
10996TIP3   OH254402   0.759   1.159   2.679 -0.1135  0.3900  0.5132
10996TIP3    H154403   0.784   1.118   2.596 -2.4734 -0.2319  0.0212
10996TIP3    H254404   0.664   1.146   2.684 -0.1326  1.0109  3.0043
10997TIP3   OH254405   2.900   2.507   5.483 -0.3256 -0.1846  1.0713
10997TIP3    H154406   2.941   2.444   5.424 -3.3336 -1.5402  0.2006
10997TIP3    H254407   2.906   2.467   5.570  1.3502  0.3423  1.2383
10998TIP3   OH254408   3.984   0.464   6.447  0.6658 -0.2491 -0.5793
10998TIP3    H154409   3.951   0.386   6.492 -1.5718  0.6850 -0.4846
10998TIP3    H254410   4.049   0.430   6.385  1.4025 -1.9075  1.0022
10999TIP3   OH254411   0.800   4.340   4.010  1.0045  0.3840  0.1389
10999TIP3    H154412   0.766   4.423   3.975  0.2452 -0.1851 -0.5040
10999TIP3    H254413   0.734   4.312   4.073  1.0826  0.0910  0.0910
11000TIP3   OH254414   1.347   6.720   4.077 -0.3648  0.1735  0.4711
11000TIP3    H154415   1.258   6.691   4.099 -0.4206 -2.0071 -2.0699
11000TIP3    H254416   1.343   6.815   4.081 -2.6992  0.1353  0.8479
11001TIP3   OH254417   0.912   3.240  15.036  0.3177 -0.0279 -0.0627
11001TIP3    H154418   0.914   3.322  15.084  0.7007 -0.3996  0.5720
11001TIP3    H254419   0.996   3.236  14.991  0.3909 -0.1651  0.0827
11002TIP3   OH254420   2.528   6.191  13.802 -0.6208 -0.0897  0.3525
11002TIP3    H154421   2.538   6.286  13.805  1.2962 -0.2779  1.8379
11002TIP3    H254422   2.438   6.176  13.829 -0.6923  1.2779  0.9836
11003TIP3   OH254423   4.148   2.795   2.626  0.5612 -0.3994  0.3175
11003TIP3    H154424   4.120   2.792   2.718 -1.7218 -1.5867 -0.3480
11003TIP3    H254425   4.067   2.792   2.576  1.6381  1.8524 -1.8000
11004TIP3   OH254426   3.996   3.574  12.770 -0.1546  0.5464 -0.1174
11004TIP3    H154427   4.064   3.617  12.821 -1.0296 -0.7974  2.3401
11004TIP3    H254428   3.972   3.497  12.821 -2.6886  0.3270 -1.4664
11005TIP3   OH254429   0.567   5.720   1.269 -0.5267  0.1963  0.1262
11005TIP3    H154430   0.509   5.651   1.237  0.9633 -0.4963 -1.2156
11005TIP3    H254431   0.642   5.718   1.209  0.8011  1.1827  1.6675
11006TIP3   OH254432   2.078   5.035   3.175 -0.0897  0.7654  0.4677
11006TIP3    H154433   2.049   5.121   3.144  1.2818  1.6661  1.5694
11006TIP3    H254434   2.071   5.040   3.270 -1.5165 -0.9523  0.5203
11007TIP3   OH254435   0.661   6.614  12.362  0.1534 -0.1233 -0.3414
11007TIP3    H154436   0.633   6.606  12.453  1.4277  0.7559  0.1533
11007TIP3    H254437   0.645   6.705  12.340  0.0436 -0.2853 -0.9372
11008TIP3   OH254438   5.497   1.824  15.369 -0.3940  0.2195 -0.4000
11008TIP3    H154439   5.555   1.865  15.306 -0.9201  0.0045 -1.0320
11008TIP3    H254440   5.455   1.897  15.415 -0.0148  0.3742 -0.2991
11009TIP3   OH254441   0.201   2.172   1.484  0.1491  0.5503  0.0183
11009TIP3    H154442   0.216   2.245   1.423 -0.5223  0.1888 -0.5948
11009TIP3    H254443   0.284   2.125   1.485  0.3599  0.9118 -0.1467
11010TIP3   OH254444   2.840   6.091   5.421 -0.3515 -0.2604  0.1172
11010TIP3    H154445   2.839   6.170   5.474 -1.7606  0.1864 -0.5300
11010TIP3    H254446   2.814   6.021   5.481  0.9382 -0.2650  0.6990
11011TIP3   OH254447   3.465   0.248  13.479  0.0870  0.1859 -0.0083
11011TIP3    H154448   3.472   0.159  13.446 -1.3359 -0.0902  0.3786
11011TIP3    H254449   3.528   0.298  13.426  1.5993 -1.1934  0.4224
11012TIP3   OH254450   3.900   2.414  13.631 -0.1456  0.7545 -0.4924
11012TIP3    H154451   3.938   2.502  13.627 -1.6686  1.4722 -0.0321
11012TIP3    H254452   3.879   2.401  13.723  2.1551 -1.0800 -0.1373
11013TIP3   OH254453   3.350   1.653  15.464  0.7154  0.1955 -0.2128
11013TIP3    H154454   3.442   1.673  15.446  0.2951  1.9706 -0.5918
11013TIP3    H254455   3.336   1.685  15.553  0.0548  1.5205 -0.7731
11014TIP3   OH254456   5.953   1.346  13.232 -0.3514  0.1457 -0.2960
11014TIP3    H154457   5.908   1.417  13.278 -0.7792 -0.6488  0.5586
11014TIP3    H254458   5.883   1.297  13.190 -0.2413 -0.6999  0.4741
11015TIP3   OH254459   2.065   0.975  15.815  0.0100  0.4614  0.2324
11015TIP3    H154460   2.152   0.974  15.775  0.0105  0.9927  0.2175
11015TIP3    H254461   2.063   1.057  15.865 -0.5509  0.5469  0.0719
11016TIP3   OH254462   1.131   2.731   0.994  0.1984  0.4140 -0.1939
11016TIP3    H154463   1.054   2.782   1.021  0.3844  1.5310 -1.6318
11016TIP3    H254464   1.111   2.705   0.904  1.6991  1.1937 -0.7898
11017TIP3   OH254465   5.421   1.441  11.279  0.3032 -0.3031  0.2928
11017TIP3    H154466   5.402   1.347  11.285  1.5340 -0.6903 -1.2921
11017TIP3    H254467   5.487   1.448  11.210 -0.0170  1.7791  0.1372
11018TIP3   OH254468   4.466   2.223  16.205 -1.5203  0.0418  0.2471
11018TIP3    H154469   4.511   2.277  16.141 -0.6542 -1.2293 -0.2647
11018TIP3    H254470   4.476   2.270  16.288  0.5656 -0.0746  0.1072
11019TIP3   OH254471   1.075   1.480   1.127  0.3058  0.1455  0.5603
11019TIP3    H154472   0.992   1.517   1.098  0.2557  0.2572  0.8378
11019TIP3    H254473   1.105   1.539   1.197  0.0612 -0.5141  1.2366
11020TIP3   OH254474   1.602   2.752  15.535  0.0199 -0.0690  0.8587
11020TIP3    H154475   1.676   2.777  15.591  0.5307  0.7006 -0.1337
11020TIP3    H254476   1.536   2.819  15.552  1.1712  1.7752 -1.3684
11021TIP3   OH254477   4.916   2.550  11.561  0.5517  0.5123 -0.4062
11021TIP3    H154478   4.936   2.458  11.549 -3.1852 -0.6968  1.0166
11021TIP3    H254479   4.883   2.579  11.476 -1.4255 -0.5441 -0.0699
11022TIP3   OH254480   1.972   3.532   2.468  0.1496 -0.1798 -0.2843
11022TIP3    H154481   1.953   3.614   2.423  0.5503  0.4648  0.6734
11022TIP3    H254482   2.061   3.543   2.502 -0.4281 -0.2714  1.3764
11023TIP3   OH254483   6.567   5.754  13.918  0.1000  0.4474 -0.0773
11023TIP3    H154484   6.555   5.846  13.941 -0.9295  0.5477 -0.9666
11023TIP3    H254485   6.483   5.713  13.939  0.0868 -0.0122 -1.0051
11024TIP3   OH254486   2.200   2.528   5.576  0.3994 -0.2114  0.2908
11024TIP3    H154487   2.161   2.614   5.597  0.1016 -0.6894  1.8118
11024TIP3    H254488   2.195   2.479   5.657  0.8672 -1.5841 -0.4769
11025TIP3   OH254489   1.378   4.367  13.149  0.2650  0.4956 -0.1456
11025TIP3    H154490   1.441   4.299  13.175  0.5582  0.7443 -0.1916
11025TIP3    H254491   1.318   4.323  13.089  2.4317  1.0104 -2.9081
11026TIP3   OH254492   0.840   5.415  17.237 -0.5614 -0.1750  0.0254
11026TIP3    H154493   0.802   5.484  17.182  2.5355  0.2218 -1.8127
11026TIP3    H254494   0.857   5.343  17.177  1.3691 -0.3791  0.7565
11027TIP3   OH254495   6.111   1.870   3.202 -0.0688 -0.3107 -0.0826
11027TIP3    H154496   6.093   1.824   3.121  0.7888  0.9715 -1.0542
11027TIP3    H254497   6.027   1.909   3.227 -0.6858 -1.9471  0.5010
11028TIP3   OH254498   0.057   6.770  15.474  0.1465 -0.5647  0.0301
11028TIP3    H154499   0.094   6.774  15.386 -0.0646 -0.3503 -0.0525
11028TIP3    H254500   0.125   6.729  15.527 -0.1668 -1.7436 -0.4538
11029TIP3   OH254501   3.907   3.756   0.264 -0.4525  1.0099  0.6594
11029TIP3    H154502   3.831   3.743   0.208  0.9549  2.0203 -1.6641
11029TIP3    H254503   3.888   3.836   0.313  0.0554  2.8163 -1.8688
11030TIP3   OH254504   2.393   3.815  11.550 -0.2112  0.5758 -0.0788
11030TIP3    H154505   2.384   3.732  11.596  1.2350  1.2232  1.4497
11030TIP3    H254506   2.410   3.790  11.459  0.0138 -0.7831  0.3189
11031TIP3   OH254507   4.838   3.851  13.483 -0.0415  0.1376 -0.1624
11031TIP3    H154508   4.902   3.780  13.487  0.2358  0.3496 -0.7826
11031TIP3    H254509   4.790   3.835  13.401 -0.9159 -0.1301  0.3817
11032TIP3   OH254510   0.778   4.173  17.160  0.7380 -0.5653  0.2888
11032TIP3    H154511   0.860   4.155  17.116  0.7161 -1.8294  0.7227
11032TIP3    H254512   0.797   4.160  17.253  0.1262 -0.6016  0.4148
11033TIP3   OH254513   3.540   0.939  17.048  0.0277 -0.3398  0.1784
11033TIP3    H154514   3.605   1.007  17.032  0.7906 -1.0555  0.1293
11033TIP3    H254515   3.457   0.985  17.053  0.5019  0.5629 -0.0746
11034TIP3   OH254516   2.745   0.119   5.426 -0.1053 -0.7831 -0.3601
11034TIP3    H154517   2.769   0.038   5.470  0.9134  0.2446  1.0693
11034TIP3    H254518   2.733   0.183   5.497  1.4629  0.9091 -1.5152
11035TIP3   OH254519   1.542   1.484  13.754  0.1334  0.7465  0.4192
11035TIP3    H154520   1.479   1.471  13.825  1.9010 -1.0034  1.7575
11035TIP3    H254521   1.533   1.405  13.700  0.0459  1.2524 -0.3197
11036TIP3   OH254522   6.219   4.463  12.773  0.4539  0.4646  0.3916
11036TIP3    H154523   6.131   4.459  12.809 -0.2339  0.7877 -1.1589
11036TIP3    H254524   6.268   4.396  12.821 -1.1525 -1.1208 -0.0497
11037TIP3   OH254525   3.549   5.530  14.713  0.0442 -0.3362 -0.0643
11037TIP3    H154526   3.537   5.492  14.799 -0.3203 -0.8117 -0.3234
11037TIP3    H254527   3.610   5.471  14.668  0.9064  0.3567  0.1438
11038TIP3   OH254528   3.230   2.420   3.812 -0.5314 -0.6487  0.2468
11038TIP3    H154529   3.283   2.398   3.736 -0.2784 -0.3906  0.3441
11038TIP3    H254530   3.241   2.515   3.822 -1.3002 -0.5336  0.0533
11039TIP3   OH254531   5.275   5.751  13.997  0.8335 -0.4194  0.7697
11039TIP3    H154532   5.306   5.672  13.954 -1.9775 -0.7802 -0.8268
11039TIP3    H254533   5.246   5.807  13.926 -0.5427  0.5346  2.0314
11040TIP3   OH254534   1.975   4.428  13.936  0.0666 -0.6192 -0.2335
11040TIP3    H154535   2.049   4.415  13.877  0.2605 -1.0370  0.0986
11040TIP3    H254536   1.967   4.523  13.944  0.8468 -0.5747  0.0763
11041TIP3   OH254537   3.404   5.540  15.853 -0.2022  0.1901  0.6945
11041TIP3    H154538   3.366   5.528  15.940 -1.3764  0.0529  0.1808
11041TIP3    H254539   3.332   5.523  15.792  1.2719 -2.6658 -0.4504
11042TIP3   OH254540   2.835   3.910  17.074 -0.2301  0.5088  0.7136
11042TIP3    H154541   2.840   3.926  16.980 -3.6046  1.3847  0.5598
11042TIP3    H254542   2.863   3.819  17.085  0.1029  0.3558 -1.1320
11043TIP3   OH254543   4.892   1.092   4.103  0.1218  0.1823 -0.3239
11043TIP3    H154544   4.799   1.098   4.082 -0.8048  0.4952  3.2407
11043TIP3    H254545   4.932   1.166   4.056 -1.9995  1.9513  0.4917
11044TIP3   OH254546   4.383   6.232  14.403  0.0844 -0.0644 -0.6159
11044TIP3    H154547   4.290   6.225  14.426  0.4830 -1.1488  0.7683
11044TIP3    H254548   4.403   6.151  14.357  0.2184  0.4541 -1.5080
11045TIP3   OH254549   0.271   2.683   0.759 -0.4028  0.3925  0.4604
11045TIP3    H154550   0.343   2.645   0.710 -0.4886  1.3417 -0.4437
11045TIP3    H254551   0.257   2.769   0.718 -2.5941 -0.1062  0.0443
11046TIP3   OH254552   4.877   0.516   0.758 -1.1154  0.1762 -0.0998
11046TIP3    H154553   4.905   0.432   0.794 -1.6654 -0.1660 -0.4659
11046TIP3    H254554   4.932   0.581   0.803 -0.0822 -0.4418 -0.4554
11047TIP3   OH254555   4.511   2.035  15.090  0.4362  0.1362  0.1173
11047TIP3    H154556   4.415   2.034  15.088  0.4169  0.0497  0.7692
11047TIP3    H254557   4.537   1.943  15.095  0.4981  0.2022  1.3609
11048TIP3   OH254558   4.007   5.563   6.057 -0.1818  0.8947  0.2423
11048TIP3    H154559   3.997   5.653   6.087 -0.0563  1.0705 -0.2404
11048TIP3    H254560   4.096   5.539   6.082  0.1675  1.2751 -0.5807
11049TIP3   OH254561   0.013   1.120  11.565  0.0726  0.1684  0.0550
11049TIP3    H154562   0.087   1.180  11.555 -0.2141  0.7648  1.4166
11049TIP3    H254563   0.037   1.063  11.638 -0.3382 -0.3919 -0.2337
11050TIP3   OH254564   4.181   5.141  16.936  0.3480  0.5909  0.0014
11050TIP3    H154565   4.103   5.109  16.983  0.7157  1.2735  1.1221
11050TIP3    H254566   4.241   5.067  16.935  1.1181  1.1024  2.4032
11051TIP3   OH254567   3.658   4.604  11.340 -0.2372  0.6805 -0.8836
11051TIP3    H154568   3.577   4.651  11.360 -0.1971  0.8641 -1.1556
11051TIP3    H254569   3.709   4.664  11.286  0.4291  0.8882 -0.0576
11052TIP3   OH254570   1.839   1.368  14.473  0.2309 -0.1954 -0.0595
11052TIP3    H154571   1.761   1.424  14.468 -0.1459 -0.4809  1.6766
11052TIP3    H254572   1.903   1.421  14.520  0.3218 -0.7432  0.4452
11053TIP3   OH254573   2.010   2.144   2.799 -0.8368 -0.2976 -0.0106
11053TIP3    H154574   1.960   2.110   2.725  1.1237 -1.7449 -0.7567
11053TIP3    H254575   2.096   2.103   2.791  0.0564  1.0183  1.9863
11054TIP3   OH254576   1.865   5.167  11.164  0.5153  0.6510 -0.5647
11054TIP3    H154577   1.777   5.130  11.173  1.1158 -0.2406  3.6125
11054TIP3    H254578   1.906   5.113  11.097 -0.9515 -1.4992  0.1406
11055TIP3   OH254579   0.082   0.781  14.876 -0.3371 -0.3560 -0.1337
11055TIP3    H154580   0.149   0.740  14.823  0.2437 -0.2045  0.4733
11055TIP3    H254581   0.035   0.839  14.815  1.4971  1.2299 -0.1242
11056TIP3   OH254582   1.208   3.573   5.327  0.0602  0.1425  0.4530
11056TIP3    H154583   1.134   3.586   5.267  0.3430  1.2494  0.3252
11056TIP3    H254584   1.275   3.530   5.273  0.7850  2.2599 -0.4103
11057TIP3   OH254585   1.989   1.429  12.206  0.1744 -0.0197 -0.3398
11057TIP3    H154586   1.896   1.408  12.203  0.4345 -1.3466  0.0769
11057TIP3    H254587   2.020   1.415  12.116  0.1592 -0.5555 -0.2649
11058TIP3   OH254588   1.834   0.288  12.816  0.1300 -0.9164 -0.2659
11058TIP3    H154589   1.769   0.357  12.828  0.7215 -0.0857 -1.6267
11058TIP3    H254590   1.891   0.295  12.892 -0.6416 -0.8397  0.3123
11059TIP3   OH254591   2.368   0.068   4.879  0.1590 -0.6742  0.5997
11059TIP3    H154592   2.392   0.116   4.958  2.3631 -1.0606  0.2221
11059TIP3    H254593   2.300   0.007   4.908 -0.0001  0.0820  1.8975
11060TIP3   OH254594   4.582   1.800  14.382  0.4037 -0.1785 -0.1622
11060TIP3    H154595   4.655   1.770  14.327 -0.1186 -0.4586 -0.7090
11060TIP3    H254596   4.504   1.768  14.337 -0.0578  0.1441  0.4094
11061TIP3   OH254597   4.759   5.450   1.058  0.1860 -0.1732 -0.3763
11061TIP3    H154598   4.851   5.472   1.072  0.5430 -1.4555 -0.6183
11061TIP3    H254599   4.760   5.361   1.024 -1.2443 -0.8265  1.1705
11062TIP3   OH254600   0.507   2.054  12.431 -0.6298 -0.0209 -0.5745
11062TIP3    H154601   0.418   2.073  12.460 -1.2189 -0.1672 -2.2056
11062TIP3    H254602   0.563   2.096  12.496 -1.8922  1.2590 -0.2732
11063TIP3   OH254603   6.598   6.751  12.306  0.2496  0.0410 -0.6069
11063TIP3    H154604   6.609   6.663  12.343  2.6906  0.1833 -0.7807
11063TIP3    H254605   6.682   6.794  12.325 -1.2755  2.7551  0.4962
11064TIP3   OH254606   5.826   5.141   2.469  0.3965  0.0021 -0.1189
11064TIP3    H154607   5.914   5.160   2.502  0.1680  1.1223 -0.1102
11064TIP3    H254608   5.767   5.164   2.541  0.1355 -1.9075  0.3292
11065TIP3   OH254609   2.446   6.368   4.444 -0.7276  0.0582  0.5457
11065TIP3    H154610   2.433   6.279   4.411  3.1006  0.1003 -1.6142
11065TIP3    H254611   2.482   6.356   4.532  0.0804 -0.6050  0.1446
11066TIP3   OH254612   4.034   2.965   1.944  0.0492  0.2163  0.4539
11066TIP3    H154613   4.123   2.931   1.938 -0.5121 -1.1809 -0.5065
11066TIP3    H254614   4.017   3.004   1.858 -0.0805  1.0031  0.8256
11067TIP3   OH254615   3.019   5.584  12.320  0.6708  0.0736  0.8131
11067TIP3    H154616   2.947   5.537  12.280 -0.0028  0.6731  1.2807
11067TIP3    H254617   3.082   5.516  12.345 -0.3840 -0.6105  1.7033
11068TIP3   OH254618   1.536   1.268   1.175 -0.1774  0.7228 -0.0513
11068TIP3    H154619   1.486   1.348   1.157 -0.0667  0.9015  0.4342
11068TIP3    H254620   1.476   1.197   1.150 -0.6951  0.9346  0.5474
11069TIP3   OH254621   6.648   2.601  16.059 -0.2405 -0.2275 -0.2807
11069TIP3    H154622   6.590   2.677  16.057 -1.3148 -1.0197  0.0055
11069TIP3    H254623   6.590   2.526  16.072  0.9911 -0.8748  2.0980
11070TIP3   OH254624   4.258   2.760   1.558 -0.6830  0.3739  0.1761
11070TIP3    H154625   4.220   2.835   1.512  1.3013  2.0358  1.1049
11070TIP3    H254626   4.304   2.711   1.490  0.4030  1.6094 -0.0219
11071TIP3   OH254627   5.411   5.868   0.858  0.2577  0.0678 -0.0044
11071TIP3    H154628   5.320   5.850   0.879  0.3948 -0.1793  0.3849
11071TIP3    H254629   5.457   5.860   0.941  0.5338  0.8490 -0.0686
11072TIP3   OH254630   0.959   4.930  12.056  0.2105 -0.5382 -0.2533
11072TIP3    H154631   0.935   4.994  12.123  1.7843 -0.5627  0.3957
11072TIP3    H254632   1.041   4.964  12.020 -0.4490 -0.6863 -1.9783
11073TIP3   OH254633   3.910   0.870  13.550 -0.6223 -0.2489 -0.0247
11073TIP3    H154634   3.839   0.918  13.509 -0.4603 -1.3686 -1.7525
11073TIP3    H254635   3.967   0.845  13.477  2.2263  1.6113  1.3707
11074TIP3   OH254636   2.523   1.521   5.279  0.7100 -0.2033  0.0888
11074TIP3    H154637   2.431   1.497   5.286  0.7229 -0.5766 -0.9533
11074TIP3    H254638   2.567   1.440   5.252  1.7552 -0.7617  3.0831
11075TIP3   OH254639   1.102   2.424   5.640  0.0539 -0.0275  0.3649
11075TIP3    H154640   1.068   2.440   5.552 -0.3288 -1.3948  0.2434
11075TIP3    H254641   1.177   2.366   5.626  0.2897  0.1440  0.9051
11076TIP3   OH254642   6.540   3.511  16.605  0.3655 -0.1602  0.1118
11076TIP3    H154643   6.574   3.490  16.692  2.4316  2.9973  0.2668
11076TIP3    H254644   6.523   3.605  16.609 -1.5367 -0.3065 -2.3172
11077TIP3   OH254645   4.988   2.440   5.585  0.5124  0.0392 -0.4266
11077TIP3    H154646   5.077   2.442   5.620  1.1231  1.3310 -1.9573
11077TIP3    H254647   4.934   2.478   5.655  1.6097  1.9347 -0.5369
11078TIP3   OH254648   4.301   5.386  11.658  0.4426  0.1001  0.1345
11078TIP3    H154649   4.243   5.360  11.729 -0.6896  1.0952 -0.3934
11078TIP3    H254650   4.242   5.409  11.586  1.5482 -2.4334 -1.7599
11079TIP3   OH254651   4.222   4.884   5.131 -0.4963 -0.0101  0.1966
11079TIP3    H154652   4.161   4.856   5.063  0.5016  1.5737 -1.4185
11079TIP3    H254653   4.300   4.913   5.083  0.8834 -0.3742  2.1065
11080TIP3   OH254654   2.477   5.478  15.110 -1.1282 -0.0822 -0.3590
11080TIP3    H154655   2.396   5.428  15.111 -0.3908 -1.3062  0.0322
11080TIP3    H254656   2.546   5.412  15.108 -0.1329  0.9316 -0.6449
11081TIP3   OH254657   5.620   3.665   5.114 -0.1813  0.0282 -0.1739
11081TIP3    H154658   5.600   3.593   5.174 -2.3894  0.5321 -0.2100
11081TIP3    H254659   5.662   3.623   5.039 -0.7893 -1.1381  0.1138
11082TIP3   OH254660   4.751   1.859  16.265  0.0787  0.1619  0.3492
11082TIP3    H154661   4.822   1.923  16.263  0.2961 -0.0211 -2.4854
11082TIP3    H254662   4.676   1.905  16.229 -0.1098 -0.7745 -0.5186
11083TIP3   OH254663   3.620   4.286   0.015  0.0824  0.2768  0.0099
11083TIP3    H154664   3.638   4.370   0.058 -1.8464 -0.0950  1.7026
11083TIP3    H254665   3.531   4.294  -0.019  0.3449 -0.6384 -0.9529
11084TIP3   OH254666   1.554   1.625   2.566  0.0752  0.5248  0.6745
11084TIP3    H154667   1.492   1.552   2.573  1.6527 -1.2759 -2.2349
11084TIP3    H254668   1.498   1.702   2.556 -1.6507 -0.4671  1.9164
11085TIP3   OH254669   5.930   5.212  14.480 -0.1336  0.0483 -0.0038
11085TIP3    H154670   5.916   5.294  14.432  2.7215  1.8617  1.9235
11085TIP3    H254671   5.980   5.158  14.420  2.0791  1.6844  0.2460
11086TIP3   OH254672   0.708   0.001   4.640  0.0312 -0.0339  0.4505
11086TIP3    H154673   0.724  -0.070   4.578  3.0347 -1.1672  2.3504
11086TIP3    H254674   0.690  -0.042   4.723 -0.5756  1.4653  1.1419
11087TIP3   OH254675   4.526   6.352  15.053 -0.6034 -0.4544 -0.0787
11087TIP3    H154676   4.465   6.291  15.094  0.0734 -1.0188  0.1039
11087TIP3    H254677   4.611   6.310  15.062  0.0304  0.9731  0.9525
11088TIP3   OH254678   1.209   3.368  11.041 -0.8700  0.5218 -0.4989
11088TIP3    H154679   1.302   3.355  11.058 -1.0046 -0.5717 -0.5804
11088TIP3    H254680   1.206   3.422  10.961 -0.3132 -0.2524 -1.0479
11089TIP3   OH254681   3.731   0.265   1.622 -0.2436 -0.0494  0.1197
11089TIP3    H154682   3.691   0.322   1.556 -0.2243  0.2320  0.3473
11089TIP3    H254683   3.786   0.206   1.572  0.7877  0.9993 -0.0233
11090TIP3   OH254684   4.015   4.869  13.282  0.2546  0.2389  0.6962
11090TIP3    H154685   4.089   4.864  13.343  0.8616 -0.7532 -0.0871
11090TIP3    H254686   4.051   4.913  13.205  0.1542 -0.5909  0.1639
11091TIP3   OH254687   3.788   4.588   3.303 -0.4382 -0.1905 -0.2385
11091TIP3    H154688   3.790   4.493   3.313 -1.4220 -0.3587 -1.3226
11091TIP3    H254689   3.825   4.622   3.384 -0.3350 -1.4940  0.2881
11092TIP3   OH254690   3.983   1.069   1.431 -0.0398  0.6350  0.4712
11092TIP3    H154691   3.982   1.139   1.366  2.2924 -0.8634 -1.3314
11092TIP3    H254692   3.905   1.017   1.412 -1.6305  2.4528  1.6419
11093TIP3   OH254693   0.850   2.363   0.405 -0.2049 -0.0818  0.5475
11093TIP3    H154694   0.775   2.324   0.361 -0.1019 -0.4260  0.6717
11093TIP3    H254695   0.850   2.455   0.378 -0.7079 -0.0678  0.6012
11094TIP3   OH254696   1.648   2.360   1.298  0.4652 -0.0981 -0.4834
11094TIP3    H154697   1.570   2.313   1.327  0.3518  0.4033  0.0517
11094TIP3    H254698   1.614   2.428   1.240  0.4407  0.4578  0.1696
11095TIP3   OH254699   3.935   2.157   4.559  0.3278 -0.7750  0.4231
11095TIP3    H154700   3.882   2.217   4.612  0.6399  1.2775 -1.4574
11095TIP3    H254701   3.871   2.101   4.515 -0.1433 -0.0263  0.1399
11096TIP3   OH254702   5.059   4.102  14.114  0.1384 -0.1740  0.3433
11096TIP3    H154703   5.013   4.020  14.097  0.5512 -0.6912  1.6234
11096TIP3    H254704   5.122   4.110  14.042 -1.5939  0.3372 -1.2142
11097TIP3   OH254705   0.244   3.339  14.393  0.8841  0.5104  0.0132
11097TIP3    H154706   0.255   3.313  14.302 -2.3162 -0.9745 -0.1076
11097TIP3    H254707   0.243   3.257  14.442  0.2987  1.1085  1.0413
11098TIP3   OH254708   4.915   3.463   4.200  0.1792  0.4716  0.0922
11098TIP3    H154709   4.884   3.378   4.166 -0.2647  1.2239 -1.4944
11098TIP3    H254710   5.010   3.454   4.202  0.2803  0.5682 -1.9955
11099TIP3   OH254711   5.773   5.942  12.430 -0.2796 -0.3124 -0.5646
11099TIP3    H154712   5.686   5.962  12.463 -0.8795 -1.5967 -1.2919
11099TIP3    H254713   5.816   6.027  12.421 -2.1716  0.5442 -2.1471
11100TIP3   OH254714   1.634   5.795  13.639  0.2200 -0.3948 -0.3446
11100TIP3    H154715   1.695   5.844  13.694  1.2912 -0.1534 -1.7042
11100TIP3    H254716   1.598   5.728  13.697  2.5469 -1.2080  0.2520
11101TIP3   OH254717   4.645   4.339   6.175 -0.1258  0.4105 -0.9051
11101TIP3    H154718   4.721   4.307   6.224  0.5349 -1.0358 -2.7549
11101TIP3    H254719   4.656   4.434   6.175  0.8534  0.3268  0.1355
11102TIP3   OH254720   5.413   2.211   0.231  0.7554  0.4620 -0.4100
11102TIP3    H154721   5.426   2.192   0.324 -2.3205  0.5874  0.1635
11102TIP3    H254722   5.449   2.299   0.219 -2.5196  2.3232  1.8398
11103TIP3   OH254723   6.717   1.022   5.445 -0.7230 -0.4940 -0.2063
11103TIP3    H154724   6.672   1.012   5.361 -0.8320  1.1805 -0.3790
11103TIP3    H254725   6.780   1.093   5.429  0.9295 -1.7599  0.4600
11104TIP3   OH254726   3.452   3.793  11.928  0.1716 -0.4389  0.6521
11104TIP3    H154727   3.474   3.712  11.882  0.8680 -0.1584  0.4849
11104TIP3    H254728   3.530   3.814  11.980  0.7180  1.0937 -0.7090
11105TIP3   OH254729   5.196   0.141  14.416  0.1372 -0.0366 -0.4026
11105TIP3    H154730   5.170   0.194  14.491 -1.1292  1.6361 -1.9511
11105TIP3    H254731   5.239   0.064  14.455 -0.0783  0.9694  1.9861
11106TIP3   OH254732   4.423   0.195   2.815 -0.4795 -0.7016  0.2115
11106TIP3    H154733   4.335   0.206   2.780 -0.1775  1.1376 -0.0584
11106TIP3    H254734   4.425   0.248   2.894  0.6978  0.2036 -0.3979
11107TIP3   OH254735   3.913   5.240   3.065  0.0111  0.4495 -0.1805
11107TIP3    H154736   3.858   5.172   3.027  2.8748 -1.4264 -1.3386
11107TIP3    H254737   3.920   5.306   2.997 -0.3262  0.4051 -0.2598
11108TIP3   OH254738   1.865   0.325  16.526  0.3936 -0.2185  0.5389
11108TIP3    H154739   1.792   0.362  16.574 -1.3382 -1.4422 -1.0014
11108TIP3    H254740   1.888   0.392  16.462 -2.9656 -1.5894 -2.4850
11109TIP3   OH254741   3.995   2.293   5.534  0.0561  0.1777  0.5318
11109TIP3    H154742   3.929   2.335   5.590  1.1994  2.5637  0.2073
11109TIP3    H254743   3.967   2.314   5.445 -0.5258 -1.6891  0.2346
11110TIP3   OH254744   6.459   6.403  13.109 -0.5136 -0.2092  0.2763
11110TIP3    H154745   6.422   6.439  13.189 -0.3695  0.6301 -0.0203
11110TIP3    H254746   6.520   6.336  13.139 -3.9371 -3.4370  0.7274
11111TIP3   OH254747   0.110   1.588  13.869  0.4154 -0.1361 -0.4423
11111TIP3    H154748   0.121   1.526  13.941 -0.5319  0.2969  0.0986
11111TIP3    H254749   0.160   1.551  13.796  1.9872 -0.2214  0.6438
11112TIP3   OH254750   0.295   6.268   1.211  0.1740  0.3197 -0.1317
11112TIP3    H154751   0.245   6.258   1.130 -1.1326  1.1498  0.5487
11112TIP3    H254752   0.316   6.362   1.214  3.4627 -0.2287 -1.3348
11113TIP3   OH254753   0.724   1.999   2.502 -0.2109  0.5939 -0.1048
11113TIP3    H154754   0.729   2.018   2.409 -2.2974  0.1902 -0.3521
11113TIP3    H254755   0.662   2.064   2.536  0.9939  1.1431  1.1422
11114TIP3   OH254756   3.125   6.754  11.956  0.0624  0.2660 -0.4299
11114TIP3    H154757   3.100   6.788  11.870 -1.0841 -0.3332 -0.3616
11114TIP3    H254758   3.144   6.661  11.940 -0.6749  0.0261  0.0388
11115TIP3   OH254759   3.692   1.571  10.928  0.5033 -0.0752 -0.7924
11115TIP3    H154760   3.632   1.595  10.998  1.7075  2.3126 -0.4518
11115TIP3    H254761   3.644   1.588  10.847 -0.6086 -2.0688 -0.6061
11116TIP3   OH254762   5.650   3.633  11.877  0.3447 -0.9025 -0.0470
11116TIP3    H154763   5.686   3.618  11.789 -3.0391  0.8899 -1.9249
11116TIP3    H254764   5.706   3.701  11.914  1.1387 -0.8590 -1.2502
11117TIP3   OH254765   2.834   6.043  14.251 -0.0332  0.6396  0.3286
11117TIP3    H154766   2.801   6.133  14.250  1.8048  1.3686 -1.1589
11117TIP3    H254767   2.859   6.027  14.342 -1.8270  1.0238  0.9307
11118TIP3   OH254768   0.314   4.464   2.617  0.1894 -0.1961 -0.1016
11118TIP3    H154769   0.248   4.461   2.548 -2.8085  0.6173  2.4624
11118TIP3    H254770   0.354   4.551   2.608 -0.9265  0.3271 -0.2227
11119TIP3   OH254771   2.573   1.331   4.951 -0.9851 -0.0306  0.0449
11119TIP3    H154772   2.570   1.405   4.891  0.3997 -0.4590 -0.6060
11119TIP3    H254773   2.666   1.307   4.955 -1.1050 -0.3821  1.9213
11120TIP3   OH254774   5.423   3.669   6.414 -0.1149  0.1597 -0.4389
11120TIP3    H154775   5.339   3.649   6.455  0.9014 -0.1001  1.6436
11120TIP3    H254776   5.413   3.759   6.381 -0.9034  0.4829  0.6261
11121TIP3   OH254777   6.110   5.298   1.887 -0.1828 -0.6075  0.3077
11121TIP3    H154778   6.103   5.228   1.822 -0.6407 -0.0070 -0.3103
11121TIP3    H254779   6.075   5.375   1.842 -0.1064 -0.0869  1.1296
11122TIP3   OH254780   6.393   0.172   3.879 -0.5167 -0.1362 -0.2597
11122TIP3    H154781   6.357   0.108   3.941 -1.4595 -0.4439 -1.0955
11122TIP3    H254782   6.486   0.151   3.875 -0.4988 -0.3083  0.8192
11123TIP3   OH254783   6.419   4.294   2.717  0.0162 -0.5027  0.1398
11123TIP3    H154784   6.481   4.237   2.763  0.0258  0.0077  0.7708
11123TIP3    H254785   6.333   4.271   2.754  0.2116  1.1685  1.7871
11124TIP3   OH254786   0.709   1.294  12.105  0.3731 -0.1886 -0.2457
11124TIP3    H154787   0.784   1.234  12.103  0.6496  0.0976  0.9254
11124TIP3    H254788   0.653   1.265  12.032  0.6812 -1.6306  0.0628
11125TIP3   OH254789   6.556   2.001   0.961 -0.7294  0.0259 -0.4398
11125TIP3    H154790   6.512   2.018   0.878 -1.5792 -2.6828 -0.6380
11125TIP3    H254791   6.491   1.954   1.013  0.4513 -0.0687  1.0144
11126TIP3   OH254792   3.623   1.050   0.416  0.2082  0.4275  0.2486
11126TIP3    H154793   3.594   1.056   0.507 -1.8518  0.3279 -0.3488
11126TIP3    H254794   3.560   1.102   0.367 -0.5407 -1.9049 -1.4644
11127TIP3   OH254795   2.816   5.767   0.532 -0.2589  0.4146 -0.1090
11127TIP3    H154796   2.805   5.839   0.594  1.3909  0.4770  0.1529
11127TIP3    H254797   2.858   5.698   0.583 -2.7815 -1.2119 -0.0641
11128TIP3   OH254798   5.133   3.924   4.321 -0.1016  0.0537 -0.7018
11128TIP3    H154799   5.089   3.895   4.402 -2.4486  0.5124 -1.7137
11128TIP3    H254800   5.064   3.920   4.255  1.8987 -0.9357 -2.8655
11129TIP3   OH254801   6.248   3.816   2.434 -0.5221 -0.3142  0.4580
11129TIP3    H154802   6.326   3.781   2.393 -1.0778 -0.3276 -0.6128
11129TIP3    H254803   6.178   3.799   2.371 -1.4195 -0.4549  1.4694
11130TIP3   OH254804   2.693   0.136  12.696 -0.1312  0.2484 -0.0630
11130TIP3    H154805   2.689   0.133  12.791 -1.7342 -2.2494 -0.0953
11130TIP3    H254806   2.763   0.197  12.676  1.0319 -0.0460  2.7230
11131TIP3   OH254807   2.155   4.764   5.427 -0.0588 -0.6197 -0.4359
11131TIP3    H154808   2.236   4.721   5.399 -0.6762 -1.7691 -0.5203
11131TIP3    H254809   2.129   4.717   5.506 -0.0960  0.4394  0.2007
11132TIP3   OH254810   1.683   6.221  16.014 -0.4603 -0.6275  0.7999
11132TIP3    H154811   1.760   6.222  15.958 -0.9069 -1.9579  0.1296
11132TIP3    H254812   1.706   6.279  16.087  0.7817 -0.2273  0.1243
11133TIP3   OH254813   1.191   2.054  11.144  0.1164  0.3430 -0.7366
11133TIP3    H154814   1.153   2.118  11.204  1.8903  0.7430  0.0280
11133TIP3    H254815   1.194   2.099  11.059  3.4543  2.2771  0.2373
11134TIP3   OH254816   4.712   3.991   4.525  0.1391 -0.0250  0.0306
11134TIP3    H154817   4.662   3.910   4.514 -2.5445  1.7602 -2.7711
11134TIP3    H254818   4.670   4.034   4.599  0.8628 -0.6656  0.8344
11135TIP3   OH254819   6.523   5.075   5.296 -0.4229 -0.3891  0.2844
11135TIP3    H154820   6.530   5.071   5.201  0.2642 -2.1718  0.3732
11135TIP3    H254821   6.597   5.130   5.324 -1.0882  0.8051 -0.2194
11136TIP3   OH254822   1.764   0.364   4.259 -0.1991  0.3515 -0.6436
11136TIP3    H154823   1.722   0.310   4.192  0.9119 -0.5052 -0.6720
11136TIP3    H254824   1.706   0.359   4.334 -0.5566 -0.1540 -0.9455
11137TIP3   OH254825   2.462   0.942   2.434  0.7253 -0.0260 -0.0591
11137TIP3    H154826   2.389   1.003   2.425 -0.8075 -1.7495 -0.0270
11137TIP3    H254827   2.447   0.899   2.518  0.2471 -2.2219 -1.1964
11138TIP3   OH254828   5.568   6.631   3.345 -0.1858  0.2936 -0.1289
11138TIP3    H154829   5.542   6.584   3.266 -2.0456  1.3810 -0.2353
11138TIP3    H254830   5.501   6.608   3.410 -0.3596  1.6680  0.2205
11139TIP3   OH254831   1.697   6.656   6.026  0.4481 -0.2218  0.3121
11139TIP3    H154832   1.706   6.630   6.118 -0.7514  0.1733  0.5674
11139TIP3    H254833   1.674   6.749   6.030  0.4623 -0.1843 -0.3925
11140TIP3   OH254834   1.475   5.374  12.820 -0.0783  0.3152 -0.0482
11140TIP3    H154835   1.433   5.345  12.902  1.0977 -0.7522  0.1968
11140TIP3    H254836   1.460   5.303  12.759  1.0577  0.0812 -0.0644
11141TIP3   OH254837   5.848   0.167   0.789 -0.4316  0.7189 -0.1993
11141TIP3    H154838   5.933   0.204   0.765 -0.1201 -0.9708 -2.0499
11141TIP3    H254839   5.785   0.214   0.735 -0.4182  0.6664 -0.2613
11142TIP3   OH254840   1.663   2.208  12.712 -0.4210 -0.0912  1.0139
11142TIP3    H154841   1.748   2.240  12.744 -0.1398 -0.4925  0.6688
11142TIP3    H254842   1.613   2.191  12.792  0.0739 -0.5272  1.2333
11143TIP3   OH254843   0.567   2.066  16.214 -0.1783 -0.1462 -0.0550
11143TIP3    H154844   0.476   2.073  16.244 -0.7923 -2.3456 -1.2192
11143TIP3    H254845   0.561   2.059  16.119  1.2811  0.2705 -0.2035
11144TIP3   OH254846   1.405   2.959  15.252  0.2323  0.4955 -0.2711
11144TIP3    H154847   1.406   3.055  15.249 -1.6878  0.5314 -1.9358
11144TIP3    H254848   1.458   2.933  15.177  0.0077  0.2687 -0.3518
11145TIP3   OH254849   3.854   1.259  11.775 -0.6031 -0.2482  0.2256
11145TIP3    H154850   3.851   1.198  11.849 -0.3581  1.0446  1.3567
11145TIP3    H254851   3.930   1.231  11.724  1.0140  0.5058  2.0641
11146TIP3   OH254852   2.725   1.501   3.564 -0.9693 -0.4187  0.0200
11146TIP3    H154853   2.814   1.470   3.549 -0.5212  0.8923 -0.1942
11146TIP3    H254854   2.735   1.576   3.623 -1.8917 -0.0786 -0.2272
11147TIP3   OH254855   2.051   3.444  15.224  0.6744  0.0938  0.2478
11147TIP3    H154856   2.137   3.472  15.193  0.4036  1.2919  0.5425
11147TIP3    H254857   2.062   3.432  15.319  1.1353 -2.1883 -0.0393
11148TIP3   OH254858   6.288   2.051  11.006  0.2709 -0.2751 -1.3954
11148TIP3    H154859   6.271   1.979  11.067  1.2307 -0.7961 -1.7161
11148TIP3    H254860   6.227   2.120  11.032  0.9585 -0.3116  0.4486
11149TIP3   OH254861   4.417   0.408  14.519  0.0470  0.4171 -0.2265
11149TIP3    H154862   4.465   0.443  14.594  1.3349 -0.9096 -0.4004
11149TIP3    H254863   4.476   0.345  14.479 -0.9835  0.3962 -1.8160
11150TIP3   OH254864   2.869   2.599  13.649 -0.0080  0.0812 -0.2528
11150TIP3    H154865   2.844   2.517  13.607 -1.5725 -0.3219  1.3183
11150TIP3    H254866   2.843   2.667  13.587  1.0451 -0.5784 -1.4515
11151TIP3   OH254867   2.075   3.851  14.610  0.2841  0.0489 -0.0079
11151TIP3    H154868   1.990   3.889  14.632 -0.2372 -2.0191  2.0900
11151TIP3    H254869   2.133   3.926  14.597 -1.5860  1.5091 -0.3827
11152TIP3   OH254870   2.489   0.320  13.231 -0.3015 -0.2574  0.0807
11152TIP3    H154871   2.474   0.409  13.263 -0.5318  0.3901 -1.6802
11152TIP3    H254872   2.583   0.305  13.247 -0.2646  0.2879  0.4101
11153TIP3   OH254873   2.897   2.273  12.428 -0.0437  0.0311  0.4298
11153TIP3    H154874   2.840   2.350  12.428 -1.5474 -1.0101  2.4784
11153TIP3    H254875   2.838   2.199  12.417  1.1664 -0.9837  0.4848
11154TIP3   OH254876   5.872   1.344   3.811 -0.0707  0.0178 -0.4226
11154TIP3    H154877   5.832   1.312   3.730 -1.8902  2.2954 -0.5356
11154TIP3    H254878   5.957   1.299   3.815 -0.8966 -1.9383 -2.3324
11155TIP3   OH254879   3.749   0.189   3.076 -0.2368  0.3136 -0.0582
11155TIP3    H154880   3.833   0.195   3.031  0.5093  0.7428  1.3524
11155TIP3    H254881   3.757   0.112   3.132 -1.4484 -0.6859 -1.1840
11156TIP3   OH254882   1.570   4.032   6.822  0.2731 -0.0769 -0.2019
11156TIP3    H154883   1.500   4.076   6.869  0.0607 -0.8736  0.2497
11156TIP3    H254884   1.613   4.101   6.772 -0.5699  0.4879 -0.1614
11157TIP3   OH254885   4.732   4.917  15.479 -0.1084 -0.8291 -0.0638
11157TIP3    H154886   4.738   4.968  15.560  1.2907 -1.1016  0.0215
11157TIP3    H254887   4.651   4.867  15.488  0.7624 -2.0058  1.8721
11158TIP3   OH254888   5.285   4.457  15.920  0.3234 -0.7504 -0.5525
11158TIP3    H154889   5.265   4.400  15.994 -0.6616  0.8497  0.4756
11158TIP3    H254890   5.336   4.528  15.958  0.3404 -0.2295 -1.5343
11159TIP3   OH254891   4.772   1.208   2.905  0.0119  0.0423  0.1371
11159TIP3    H154892   4.746   1.165   2.987  0.3153 -0.1104  0.1563
11159TIP3    H254893   4.767   1.138   2.839 -0.1531  0.1443  0.0431
11160TIP3   OH254894   3.411   1.323  12.918  0.3866  0.4423 -0.3293
11160TIP3    H154895   3.452   1.403  12.886  2.8335 -0.5215  0.1520
11160TIP3    H254896   3.436   1.256  12.853  0.7260 -0.4360  0.6792
11161TIP3   OH254897   1.381   4.463   5.577 -0.1229  0.1000  0.5407
11161TIP3    H154898   1.437   4.467   5.655  0.3598 -0.0949  0.2051
11161TIP3    H254899   1.345   4.374   5.579 -0.1079  0.0938  0.5386
11162TIP3   OH254900   4.556   5.537   5.217  0.3753  0.3288 -0.6646
11162TIP3    H154901   4.544   5.445   5.238  0.5493  0.1361 -1.4039
11162TIP3    H254902   4.601   5.573   5.294  1.6847 -0.5284 -0.9929
11163TIP3   OH254903   3.557   1.817   6.736  1.1412 -0.3527  0.2822
11163TIP3    H154904   3.562   1.722   6.749  3.2578 -0.3429 -0.1138
11163TIP3    H254905   3.475   1.831   6.688  1.1466 -2.0579 -0.2849
11164TIP3   OH254906   5.757   3.450  13.865 -0.3767  0.0830  0.7991
11164TIP3    H154907   5.663   3.457  13.851 -0.0529  1.7620 -0.8525
11164TIP3    H254908   5.786   3.540  13.882  0.6730 -0.6571  3.3622
11165TIP3   OH254909   3.872   2.798  13.540  0.4946  0.0546  0.4213
11165TIP3    H154910   3.817   2.786  13.617  0.0736 -0.6448  0.0154
11165TIP3    H254911   3.922   2.878  13.559 -0.4906  0.5807  0.8897
11166TIP3   OH254912   2.342   4.028  17.070  0.3216  0.4311  0.3009
11166TIP3    H154913   2.319   3.956  17.011 -0.5955 -0.0890  1.2439
11166TIP3    H254914   2.420   3.999  17.116 -0.6836 -0.5102  1.5004
11167TIP3   OH254915   2.781   6.704  17.195  0.8357 -0.7687  0.0713
11167TIP3    H154916   2.800   6.708  17.102 -1.7005  0.6729 -0.4610
11167TIP3    H254917   2.846   6.762  17.235  0.2472  0.8359 -1.1745
11168TIP3   OH254918   1.482   3.740   4.801  0.3552 -0.0517  0.2663
11168TIP3    H154919   1.477   3.665   4.861  2.2276 -0.3744  0.0916
11168TIP3    H254920   1.414   3.800   4.831 -2.0870 -2.3294 -0.3548
11169TIP3   OH254921   4.470   0.391  12.284  0.3321  0.3773 -0.3220
11169TIP3    H154922   4.417   0.332  12.338 -0.7772  0.1672 -1.5983
11169TIP3    H254923   4.517   0.445  12.347 -0.1673 -0.5174  0.8594
11170TIP3   OH254924   1.987   0.495   1.754  0.0161 -0.0413  0.3696
11170TIP3    H154925   1.936   0.574   1.737  0.2400 -0.2302 -1.2738
11170TIP3    H254926   1.950   0.461   1.836  0.5405  2.2342  1.6447
11171TIP3   OH254927   5.118   2.147   3.177  0.5538  0.4108 -0.2748
11171TIP3    H154928   5.210   2.123   3.163  0.7538  0.4689  0.7900
11171TIP3    H254929   5.073   2.063   3.185  0.7191  0.3707  0.3250
11172TIP3   OH254930   3.629   5.582  12.211  0.0855 -0.2653  0.0184
11172TIP3    H154931   3.607   5.655  12.153  0.3633  0.2117  0.5049
11172TIP3    H254932   3.646   5.509  12.152 -0.6705 -0.0658 -0.4563
11173TIP3   OH254933   1.130   4.295   4.698  0.0740 -0.0614  0.4132
11173TIP3    H154934   1.146   4.375   4.748  0.0253 -0.2031  0.6564
11173TIP3    H254935   1.107   4.230   4.764 -0.2183 -0.1898  0.1858
11174TIP3   OH254936   2.858   1.228   4.420  0.1428 -0.7204 -0.3600
11174TIP3    H154937   2.864   1.157   4.483 -1.3769 -0.0155  0.6446
11174TIP3    H254938   2.863   1.308   4.474  0.1450 -0.0906 -1.2714
11175TIP3   OH254939   4.852   2.909  16.335 -0.3322  0.5984 -0.3923
11175TIP3    H154940   4.802   2.838  16.374  1.4234  0.4931  1.8697
11175TIP3    H254941   4.788   2.959  16.283 -2.3682 -0.4782  0.9905
11176TIP3   OH254942   4.980   3.396   0.675  0.5093 -0.1119 -0.2187
11176TIP3    H154943   4.945   3.442   0.751  0.0959 -0.8874  0.0685
11176TIP3    H254944   4.990   3.464   0.608  1.0624  0.6154  0.5805
11177TIP3   OH254945   0.210   5.254  14.274  0.7274  0.0162  0.6005
11177TIP3    H154946   0.149   5.233  14.203 -0.0626  1.2932  0.8727
11177TIP3    H254947   0.294   5.222  14.243 -0.1328 -2.2365  0.4100
11178TIP3   OH254948   0.806   3.809   2.486 -0.0802  0.1591  0.2047
11178TIP3    H154949   0.774   3.777   2.571  1.1941  1.1675  1.0986
11178TIP3    H254950   0.883   3.755   2.468 -1.1022 -0.9662 -1.0109
11179TIP3   OH254951   2.832   0.756  15.283  0.3658  0.0147  0.0189
11179TIP3    H154952   2.794   0.791  15.202  1.4095 -0.1360 -0.5518
11179TIP3    H254953   2.771   0.686  15.310 -1.1989  1.5370  0.6240
11180TIP3   OH254954   6.493   2.512   3.814  0.6158 -0.2479 -0.2486
11180TIP3    H154955   6.448   2.505   3.730  0.0670 -0.3675  0.0471
11180TIP3    H254956   6.533   2.599   3.813  0.8774 -0.3686 -0.7560
11181TIP3   OH254957   5.146   4.561   4.324  0.3232 -0.8153 -0.5377
11181TIP3    H154958   5.132   4.640   4.271 -1.5370  0.4860  1.7188
11181TIP3    H254959   5.136   4.489   4.261  0.8650  0.6776 -2.4391
11182TIP3   OH254960   4.967   5.765   3.834  0.1375 -0.3303 -0.2065
11182TIP3    H154961   4.970   5.697   3.901 -0.1419 -1.6175 -1.4351
11182TIP3    H254962   5.055   5.764   3.796  0.4921  0.8420  0.5355
11183TIP3   OH254963   4.926   0.661  11.102 -0.1517  0.2211 -0.1514
11183TIP3    H154964   5.006   0.698  11.137 -1.4691  1.7069  1.5016
11183TIP3    H254965   4.904   0.715  11.027  0.2010  0.0284 -0.3941
11184TIP3   OH254966   4.617   5.248   6.270 -0.3455 -0.3799 -0.3566
11184TIP3    H154967   4.538   5.257   6.323  1.0498  0.6601  1.6298
11184TIP3    H254968   4.610   5.318   6.205 -1.1084 -0.4016 -0.3144
11185TIP3   OH254969   5.035   4.445  14.023 -0.1151 -0.7038  0.0121
11185TIP3    H154970   5.017   4.433  14.117 -0.0163 -1.0608 -0.0108
11185TIP3    H254971   4.955   4.483  13.988  0.0080 -0.1518  0.3227
11186TIP3   OH254972   3.078   6.267   4.778 -0.3168 -0.1153  0.0416
11186TIP3    H154973   3.068   6.236   4.688 -0.2290 -0.4240  0.1363
11186TIP3    H254974   3.002   6.323   4.792 -0.8534 -0.8347  0.0909
11187TIP3   OH254975   0.527   1.380   4.110  0.0928  0.5879  0.5413
11187TIP3    H154976   0.444   1.404   4.151 -0.2956  1.7563 -0.8504
11187TIP3    H254977   0.513   1.292   4.075 -0.9534  1.1698 -0.5986
11188TIP3   OH254978   4.284   2.857   5.333  1.0976 -0.7729  0.0020
11188TIP3    H154979   4.333   2.813   5.403 -0.2899 -1.8002  0.3882
11188TIP3    H254980   4.193   2.828   5.346  0.5812  0.1101 -1.4019
11189TIP3   OH254981   2.879   6.148  12.283 -0.4095 -0.4098 -0.8199
11189TIP3    H154982   2.878   6.103  12.368 -2.6477 -1.1828 -1.1734
11189TIP3    H254983   2.946   6.104  12.232  0.2558 -0.6069  0.2040
11190TIP3   OH254984   2.189   2.622  17.253 -0.1333 -0.6943  0.4726
11190TIP3    H154985   2.119   2.646  17.191 -1.2084 -1.2624  1.4157
11190TIP3    H254986   2.265   2.607  17.198 -0.6969  0.1267 -0.5854
11191TIP3   OH254987   1.231   0.132  15.899  0.2157 -0.0378  0.0498
11191TIP3    H154988   1.175   0.137  15.977  1.3865  1.4583  0.8293
11191TIP3    H254989   1.175   0.164  15.828 -0.8709 -1.4372  0.2144
11192TIP3   OH254990   5.493   5.181  12.453 -0.0786 -0.0365 -0.5310
11192TIP3    H154991   5.446   5.255  12.493 -0.6589 -0.3754 -0.5785
11192TIP3    H254992   5.428   5.111  12.449  0.2897 -0.3514 -1.0727
11193TIP3   OH254993   6.293   6.271  15.313 -0.0665 -0.1259  0.2140
11193TIP3    H154994   6.337   6.341  15.265  0.8287 -0.5766  0.3564
11193TIP3    H254995   6.352   6.250  15.386 -1.1303  0.1538  1.1926
11194TIP3   OH254996   6.435   0.628  14.624 -0.0603  0.2367 -0.6224
11194TIP3    H154997   6.498   0.597  14.560  0.8178 -2.9280  1.5256
11194TIP3    H254998   6.487   0.674  14.690 -0.5814  1.1068 -0.8007
11195TIP3   OH254999   0.454   6.405  14.478 -0.3208  0.7893 -0.5176
11195TIP3    H155000   0.530   6.347  14.469 -1.7247 -1.0334 -1.4451
11195TIP3    H255001   0.399   6.384  14.402 -2.3102  1.1543  0.7392
11196TIP3   OH255002   1.173   2.179   2.303  0.1119  0.4941 -0.1698
11196TIP3    H155003   1.224   2.191   2.223  0.6197  1.8074  0.3281
11196TIP3    H255004   1.141   2.267   2.325 -1.1082 -0.0581  0.3630
11197TIP3   OH255005   1.446   4.613  11.884  0.0439  0.4692  0.7029
11197TIP3    H155006   1.485   4.527  11.864 -3.0563 -0.8101 -0.5579
11197TIP3    H255007   1.467   4.628  11.976  0.6695 -1.6718  0.9757
11198TIP3   OH255008   2.839   4.796  10.516  0.1881 -0.2716  0.2168
11198TIP3    H155009   2.744   4.806  10.517  0.3222  1.2028  0.2117
11198TIP3    H255010   2.866   4.807  10.607  0.4003 -0.0369  0.1297
11199TIP3   OH255011   5.057   1.798   1.539  0.3626  0.1162 -0.2290
11199TIP3    H155012   5.134   1.773   1.488  0.7177  0.2126  0.2627
11199TIP3    H255013   5.057   1.740   1.614 -1.1078 -1.1944 -1.1637
11200TIP3   OH255014   5.593   6.145  13.941  0.0629 -0.5090  0.5567
11200TIP3    H155015   5.510   6.105  13.968 -0.9059 -0.8377 -2.4998
11200TIP3    H255016   5.655   6.072  13.940 -0.5647 -1.0589 -0.6173
11201TIP3   OH255017   2.424   0.576   4.082  0.5172 -0.0289  0.2731
11201TIP3    H155018   2.492   0.583   4.149 -0.5808  2.1425  1.2549
11201TIP3    H255019   2.392   0.486   4.090  1.0461 -0.0929  2.0479
11202TIP3   OH255020   6.558   3.952  13.142 -0.0227 -0.4555  0.2911
11202TIP3    H155021   6.639   3.906  13.162  0.5408  1.1481  1.8661
11202TIP3    H255022   6.574   3.992  13.056  1.2968  0.7379  1.0545
11203TIP3   OH255023   2.509   6.658   0.025  0.4969  0.5828 -0.4407
11203TIP3    H155024   2.605   6.664   0.019  0.5976  0.3347  0.6022
11203TIP3    H255025   2.492   6.564   0.032  0.2875  0.6914  0.6651
11204TIP3   OH255026   5.471   1.995  11.577  0.1417 -0.3813  0.2518
11204TIP3    H155027   5.566   1.983  11.579 -0.0273 -1.7201  1.1959
11204TIP3    H255028   5.454   2.029  11.489  1.4297 -0.6822 -0.1403
11205TIP3   OH255029   0.530   2.921  11.364  0.3451 -0.7251 -0.6853
11205TIP3    H155030   0.626   2.922  11.371  0.3333  1.3131 -0.3365
11205TIP3    H255031   0.500   2.938  11.453 -0.2592  1.3479 -1.2419
11206TIP3   OH255032   4.240   1.538   2.839 -0.1312 -0.4254 -0.0310
11206TIP3    H155033   4.301   1.556   2.767 -0.6737 -1.2918 -0.7348
11206TIP3    H255034   4.267   1.597   2.909  4.2939 -3.5869  1.3631
11207TIP3   OH255035   4.716   4.387   4.476  0.6784 -0.0576  0.6728
11207TIP3    H155036   4.723   4.458   4.412  2.0348 -1.5503 -0.9351
11207TIP3    H255037   4.699   4.431   4.559  1.6431  2.1568 -0.2348
11208TIP3   OH255038   0.665   4.667  12.775 -0.2946 -0.0113 -0.0953
11208TIP3    H155039   0.712   4.732  12.723 -0.2852  0.0346 -0.0285
11208TIP3    H255040   0.656   4.707  12.861  0.6853 -0.5417  0.2660
11209TIP3   OH255041   4.953   3.764  14.770  0.4951  0.3451  0.1602
11209TIP3    H155042   5.036   3.776  14.725 -0.3087  1.4418 -1.0950
11209TIP3    H255043   4.937   3.669  14.765  0.1840  0.4650 -2.4028
11210TIP3   OH255044   4.455   5.478   1.428  0.6341 -0.6079  0.2298
11210TIP3    H155045   4.421   5.566   1.413  1.7737 -0.2331 -0.3651
11210TIP3    H255046   4.427   5.455   1.516  1.5213  0.9563  0.9733
11211TIP3   OH255047   0.725   6.425  13.302 -0.4118  0.0195 -0.4057
11211TIP3    H155048   0.808   6.451  13.343 -0.8399  0.4530  0.2043
11211TIP3    H255049   0.741   6.434  13.208 -0.1764  1.4125 -0.2556
11212TIP3   OH255050   1.965   5.691  13.284 -0.6478 -0.8329 -0.2517
11212TIP3    H155051   1.931   5.714  13.197 -2.0836 -1.6266  0.0707
11212TIP3    H255052   2.059   5.701  13.276 -0.8902  1.1056 -1.3114
11213TIP3   OH255053   1.919   3.537  14.318  0.3637 -0.1774 -0.1890
11213TIP3    H155054   2.005   3.505  14.290 -0.0286 -1.2782 -0.1883
11213TIP3    H255055   1.933   3.630  14.335  1.6405 -0.3951  0.1144
11214TIP3   OH255056   3.125   4.487  14.500 -0.7447  0.1477 -0.0178
11214TIP3    H155057   3.153   4.564  14.451  0.8379 -0.0081  0.5740
11214TIP3    H255058   3.123   4.516  14.591  1.1390 -0.7989  0.3700
11215TIP3   OH255059   6.395   2.991   3.813  0.6980  0.2936 -0.4057
11215TIP3    H155060   6.328   2.997   3.881  1.3155 -0.0404  0.2497
11215TIP3    H255061   6.347   2.995   3.730 -0.0000  1.5229  0.0383
11216TIP3   OH255062   3.600   3.823   6.552  0.2694 -0.2397 -0.4341
11216TIP3    H155063   3.647   3.878   6.490  1.0244  0.9186  1.1136
11216TIP3    H255064   3.554   3.884   6.609 -1.3066 -1.3017 -0.4867
11217TIP3   OH255065   0.391   4.222   0.407  0.3286 -0.1674 -0.1125
11217TIP3    H155066   0.319   4.267   0.449  0.1804 -0.5916  0.0920
11217TIP3    H255067   0.377   4.235   0.313 -0.3627 -0.7650 -0.1023
11218TIP3   OH255068   3.083   3.140  13.974  0.0451  0.4532  0.4229
11218TIP3    H155069   3.000   3.107  14.007  0.6426 -0.7266  0.7812
11218TIP3    H255070   3.078   3.130  13.879 -0.5303  1.1649  0.3646
11219TIP3   OH255071   2.323   5.148   1.915 -0.4034 -0.0304 -0.3617
11219TIP3    H155072   2.283   5.235   1.928 -1.5614 -0.6725  0.6611
11219TIP3    H255073   2.250   5.087   1.925  0.8013 -1.2768  1.5860
11220TIP3   OH255074   2.447   1.006  15.576  0.6583 -0.5987 -0.1010
11220TIP3    H155075   2.528   1.020  15.526  0.8922 -0.6080  0.2701
11220TIP3    H255076   2.465   0.928  15.628  0.0454 -1.1945 -0.7545
11221TIP3   OH255077   0.267   4.507   0.221  0.0111  0.1536  0.2420
11221TIP3    H155078   0.195   4.568   0.204 -0.4615 -0.3956  0.2408
11221TIP3    H255079   0.237   4.423   0.185 -0.1211 -0.5310  1.8769
11222TIP3   OH255080   0.520   3.614   4.841 -0.3714  0.0328 -0.1546
11222TIP3    H155081   0.536   3.685   4.779  0.7148  0.4596  0.5739
11222TIP3    H255082   0.425   3.609   4.847 -0.4839  0.6708 -1.0654
11223TIP3   OH255083   6.768   6.280  13.741  0.4162  0.7381 -0.2109
11223TIP3    H155084   6.863   6.268  13.741  0.3493  0.2039  0.1515
11223TIP3    H255085   6.733   6.196  13.714 -0.0095  0.4115  1.2470
11224TIP3   OH255086   6.720   5.212   4.411  0.7641 -0.2184 -0.4140
11224TIP3    H155087   6.739   5.241   4.322  0.2381  0.0727 -0.4353
11224TIP3    H255088   6.776   5.265   4.467  1.4012 -0.6914 -0.5938
11225TIP3   OH255089   4.222   2.392   1.478  0.2758 -0.4325  0.2253
11225TIP3    H155090   4.179   2.345   1.407  2.6521 -1.5096 -0.5845
11225TIP3    H255091   4.231   2.482   1.446 -0.4429 -0.4258  0.0206
11226TIP3   OH255092   0.273   3.962  11.542 -0.2655 -0.4974 -0.2836
11226TIP3    H155093   0.364   3.981  11.566 -0.3327 -2.9571  2.3532
11226TIP3    H255094   0.280   3.917  11.458  0.7125  1.0771 -1.1088
11227TIP3   OH255095   1.226   3.850   1.998 -0.5868  0.6359 -0.2248
11227TIP3    H155096   1.278   3.852   2.078  0.2836 -0.4202 -0.7325
11227TIP3    H255097   1.144   3.809   2.024 -0.9966  1.8458  0.4730
11228TIP3   OH255098   4.714   1.916   5.312 -0.2066  0.2962  0.2736
11228TIP3    H155099   4.635   1.968   5.295 -0.1066  1.1567  2.2033
11228TIP3    H255100   4.687   1.851   5.376  0.0382 -1.1743 -1.0458
11229TIP3   OH255101   1.654   0.559  16.443 -0.0596  0.3246  0.0221
11229TIP3    H155102   1.682   0.564  16.534 -1.7475  3.0729  0.5208
11229TIP3    H255103   1.569   0.513  16.446 -0.2201  0.6081 -0.1369
11230TIP3   OH255104   5.899   5.322  10.875 -0.2115 -0.6760 -0.1314
11230TIP3    H155105   5.897   5.258  10.946 -0.6920 -1.5878 -0.9377
11230TIP3    H255106   5.991   5.343  10.862 -0.1478 -0.2263  0.9879
11231TIP3   OH255107   1.682   5.338   4.615  0.3935 -0.4283  0.1084
11231TIP3    H155108   1.680   5.281   4.692 -0.1937 -0.2029  0.2642
11231TIP3    H255109   1.670   5.426   4.650  0.0359 -0.3318 -0.2506
11232TIP3   OH255110   1.201   6.007   1.192 -1.0111 -0.5544  0.8245
11232TIP3    H155111   1.270   6.057   1.147 -1.8901  1.5186  1.7181
11232TIP3    H255112   1.194   5.926   1.140 -0.3955  0.7372 -1.4112
11233TIP3   OH255113   6.104   3.448   5.464 -0.4468 -0.3256  0.0028
11233TIP3    H155114   6.146   3.505   5.529 -3.3217  0.4899  1.2808
11233TIP3    H255115   6.167   3.377   5.452  0.5398 -0.1603  3.1904
11234TIP3   OH255116   0.172   1.130   5.810 -0.0863 -0.4900 -0.1486
11234TIP3    H155117   0.221   1.187   5.868  0.6728 -0.7219 -0.5522
11234TIP3    H255118   0.089   1.114   5.856 -0.1819  0.6763  0.0953
11235TIP3   OH255119   3.230   5.205  12.406 -0.4445 -0.0535  0.4712
11235TIP3    H155120   3.309   5.168  12.443  0.1578  0.0424 -0.6641
11235TIP3    H255121   3.249   5.299  12.397  0.0570 -0.3106 -1.5429
11236TIP3   OH255122   0.380   3.659  14.288 -0.2341 -0.0384  0.3252
11236TIP3    H155123   0.438   3.734  14.281 -1.5754  1.2669  2.3048
11236TIP3    H255124   0.419   3.604  14.356  1.1512 -1.6128 -1.6320
11237TIP3   OH255125   5.112   1.838  12.810  0.4401  0.8007 -0.9631
11237TIP3    H155126   5.108   1.792  12.894 -0.2840  2.4006 -0.0762
11237TIP3    H255127   5.050   1.791  12.754  1.4875 -0.7500 -0.8801
11238TIP3   OH255128   5.193   3.003  11.745  0.1321 -0.0538 -0.0399
11238TIP3    H155129   5.175   3.090  11.712 -1.7379 -0.0286  0.9388
11238TIP3    H255130   5.208   2.950  11.667  1.9226  1.2127 -0.6292
11239TIP3   OH255131   2.070   6.306   4.594 -0.3229 -0.0521  0.4520
11239TIP3    H155132   2.146   6.250   4.604 -1.8651 -2.7915 -1.7932
11239TIP3    H255133   2.083   6.349   4.509 -0.3118  1.2270  1.0631
11240TIP3   OH255134   3.467   0.354  16.043  0.0358 -0.1961 -0.0897
11240TIP3    H155135   3.383   0.370  15.999  1.1157 -1.3434 -2.8200
11240TIP3    H255136   3.470   0.259  16.056  1.2125 -0.2864 -0.8283
11241TIP3   OH255137   2.256   2.521  13.110  0.0278  0.1061 -0.3590
11241TIP3    H155138   2.344   2.509  13.075 -0.1188 -0.8933 -0.4310
11241TIP3    H255139   2.262   2.598  13.166  0.5892  0.9474 -1.5303
11242TIP3   OH255140   5.672   6.190   4.002  0.0036  0.2321 -0.0600
11242TIP3    H155141   5.698   6.106   4.040  0.6886  1.0185  1.2628
11242TIP3    H255142   5.749   6.246   4.011 -0.6376  1.1879 -0.3608
11243TIP3   OH255143   0.722   1.971   3.515  0.0786  0.3813  0.1201
11243TIP3    H155144   0.687   1.983   3.427  2.1664 -0.2124 -0.8537
11243TIP3    H255145   0.760   1.883   3.514  0.6347  0.5840  1.4480
11244TIP3   OH255146   5.323   1.044   6.156 -0.2937  0.1564 -0.6014
11244TIP3    H155147   5.229   1.026   6.164 -0.0340 -1.0977 -0.0127
11244TIP3    H255148   5.333   1.134   6.188 -1.2978  0.3300 -0.7325
11245TIP3   OH255149   5.641   0.008  12.873 -0.3276  0.0869  0.7391
11245TIP3    H155150   5.545   0.010  12.868 -0.2684  0.2149 -0.6768
11245TIP3    H255151   5.659  -0.014  12.964 -1.7146 -1.2601  0.7369
11246TIP3   OH255152   0.202   3.162  16.920  0.2130  0.3142 -0.0978
11246TIP3    H155153   0.206   3.180  17.014 -0.3822  0.4699 -0.0977
11246TIP3    H255154   0.110   3.176  16.897  0.1708 -0.6310 -0.5274
11247TIP3   OH255155   5.258   1.071  11.292  0.9634 -0.2999  0.0963
11247TIP3    H155156   5.330   1.072  11.229  1.1476 -0.2729  0.3104
11247TIP3    H255157   5.295   1.034  11.371  0.5326 -1.0519 -0.0458
11248TIP3   OH255158   3.701   0.296  13.053  0.2050  0.6316  0.3574
11248TIP3    H155159   3.768   0.303  13.121 -0.4744  0.9768  1.0134
11248TIP3    H255160   3.671   0.205  13.058  1.0011  0.3276 -0.3125
11249TIP3   OH255161   3.661   3.547  12.417 -0.0800  0.7195  0.3923
11249TIP3    H155162   3.737   3.565  12.361 -0.9401 -1.3505 -1.6246
11249TIP3    H255163   3.586   3.577  12.365 -0.8039  0.2292  1.1373
11250TIP3   OH255164   4.738   1.627  13.237  0.1647 -0.2556 -0.1386
11250TIP3    H155165   4.652   1.661  13.211  0.0800  0.7507  1.3191
11250TIP3    H255166   4.718   1.544  13.281 -0.2304  0.6151  1.3879
11251TIP3   OH255167   2.217   3.820  11.091  0.3667  0.4133  0.3689
11251TIP3    H155168   2.207   3.751  11.026  0.6993  1.5487 -0.9433
11251TIP3    H255169   2.138   3.873  11.082  0.4385  0.6106  0.8660
11252TIP3   OH255170   0.518   3.834  14.587 -0.4356 -0.6386  0.0856
11252TIP3    H155171   0.563   3.770  14.532 -1.2301 -0.8722 -0.3158
11252TIP3    H255172   0.526   3.917  14.540  1.6870 -0.1406  1.2146
11253TIP3   OH255173   5.156   4.856  11.421 -0.1827 -0.2930  0.6276
11253TIP3    H155174   5.223   4.803  11.379  0.3051  1.6707 -1.2272
11253TIP3    H255175   5.074   4.827  11.382 -0.1639 -0.9801  1.0710
11254TIP3   OH255176   5.088   0.999   2.110  0.1488 -0.2779  0.1449
11254TIP3    H155177   5.019   1.026   2.050  0.0937  0.7592  0.6509
11254TIP3    H255178   5.147   1.074   2.114  1.1879 -1.0688 -0.1040
11255TIP3   OH255179   5.644   2.569   2.070 -0.5772  0.3752  0.0829
11255TIP3    H155180   5.660   2.558   2.164 -0.7696 -2.4197 -0.1104
11255TIP3    H255181   5.551   2.549   2.060 -0.2278 -0.8971 -0.8472
11256TIP3   OH255182   2.872   0.420   1.432  0.2298 -0.7355 -0.0217
11256TIP3    H155183   2.841   0.329   1.430  1.2136 -1.0672 -1.7394
11256TIP3    H255184   2.968   0.412   1.438  0.2828  0.2116  0.5315
11257TIP3   OH255185   0.493   0.228  17.070  0.1568 -0.4545  0.0043
11257TIP3    H155186   0.533   0.239  17.156  1.4575  0.1035 -0.6432
11257TIP3    H255187   0.522   0.304  17.020  0.8137 -1.6053 -1.4415
11258TIP3   OH255188   5.804   1.514  17.073 -0.0789 -0.2300 -0.3207
11258TIP3    H155189   5.806   1.594  17.020 -1.4380  1.5481  2.0763
11258TIP3    H255190   5.718   1.476  17.056  0.5933 -1.2921 -1.5102
11259TIP3   OH255191   6.093   5.546   0.582 -0.3905  0.1792 -0.2357
11259TIP3    H155192   6.096   5.617   0.646 -1.2625 -0.0601  0.0855
11259TIP3    H255193   6.051   5.584   0.505 -0.2672  0.1834 -0.3022
11260TIP3   OH255194   4.689   2.404  15.361  0.0769  0.5376  0.3487
11260TIP3    H155195   4.629   2.478  15.361 -0.6046  0.0050  0.7731
11260TIP3    H255196   4.632   2.327  15.373  0.6945 -0.1180 -0.7707
11261TIP3   OH255197   0.133   6.294  11.972  0.0742 -0.0858 -0.1940
11261TIP3    H155198   0.207   6.313  11.914  0.2753 -1.9833 -0.6305
11261TIP3    H255199   0.170   6.301  12.060  1.6691 -3.7666 -0.3965
11262TIP3   OH255200   3.005   0.621   0.572  0.3219  0.1889  0.4292
11262TIP3    H155201   2.912   0.634   0.550  0.3711 -0.7057 -0.3620
11262TIP3    H255202   3.052   0.670   0.504  0.4469 -0.7114 -0.1379
11263TIP3   OH255203   3.188   6.226   1.732 -0.2691 -0.1048  0.1430
11263TIP3    H155204   3.136   6.241   1.652 -0.0015 -0.9637 -0.2064
11263TIP3    H255205   3.224   6.312   1.753  1.3364 -0.2182 -1.8531
11264TIP3   OH255206   6.745   6.220   3.023  0.7381 -0.4358  0.3705
11264TIP3    H155207   6.790   6.263   2.950  1.2427 -0.3925  0.7044
11264TIP3    H255208   6.752   6.126   3.004 -2.0756 -0.4308 -1.4066
11265TIP3   OH255209   4.116   5.314   0.492 -0.8016  0.0390  0.6042
11265TIP3    H155210   4.063   5.392   0.476  0.0497  0.3834 -0.6504
11265TIP3    H255211   4.098   5.256   0.418  1.8528  0.9017 -0.8483
11266TIP3   OH255212   4.293   3.931   6.668 -0.2906 -0.2345 -0.1570
11266TIP3    H155213   4.344   3.879   6.730 -1.0190  0.2575  0.8687
11266TIP3    H255214   4.359   3.985   6.623  0.1471  0.1354  0.9007
11267TIP3   OH255215   6.363   5.813  16.209 -0.0973 -0.2266  0.4302
11267TIP3    H155216   6.367   5.725  16.247  1.0984  0.0215  0.9225
11267TIP3    H255217   6.399   5.870  16.277 -1.3058  0.7357  0.3172
11268TIP3   OH255218   2.942   3.395  11.132 -0.2531  0.1296  0.5296
11268TIP3    H155219   3.009   3.368  11.195  0.4163  0.8089  0.1371
11268TIP3    H255220   2.866   3.341  11.152  0.5412 -0.9296  0.7329
11269TIP3   OH255221   0.262   4.442   4.592 -0.3165  0.1438 -0.0344
11269TIP3    H155222   0.322   4.369   4.608  0.3181  0.6178 -0.2092
11269TIP3    H255223   0.232   4.469   4.679 -4.4443 -3.4262 -0.0158
11270TIP3   OH255224   2.456   3.115  16.015 -0.0471  0.2664  0.3522
11270TIP3    H155225   2.423   3.205  16.010 -1.6471 -0.2814  0.5757
11270TIP3    H255226   2.526   3.112  15.950 -0.7633  1.3610 -0.5065
11271TIP3   OH255227   5.472   6.103  11.896  0.2252 -0.3001  0.0471
11271TIP3    H155228   5.385   6.065  11.909 -0.1466  0.4755 -0.0764
11271TIP3    H255229   5.530   6.028  11.884 -0.5077 -0.8224 -0.3312
11272TIP3   OH255230   3.468   3.665  12.232 -0.2808 -0.2647 -0.0805
11272TIP3    H155231   3.415   3.597  12.190  0.5423 -1.7430  1.2149
11272TIP3    H255232   3.538   3.682  12.169 -0.8166 -0.1418 -0.6680
11273TIP3   OH255233   5.193   1.369   5.868 -0.1259  0.0600  0.4091
11273TIP3    H155234   5.152   1.326   5.944 -0.1655  0.3672  0.5629
11273TIP3    H255235   5.242   1.442   5.906 -1.5763  1.3088 -0.0060
11274TIP3   OH255236   6.370   2.711   1.072 -0.0124  0.1451 -0.3591
11274TIP3    H155237   6.453   2.741   1.109 -0.4031 -1.2552  1.8928
11274TIP3    H255238   6.394   2.644   1.009  0.6169  1.4138 -1.5271
11275TIP3   OH255239   2.832   4.531  15.148  0.2692  0.1393 -0.1638
11275TIP3    H155240   2.888   4.469  15.195  2.0861  1.2178 -0.8294
11275TIP3    H255241   2.892   4.590  15.104 -1.4044  2.0433 -0.0569
11276TIP3   OH255242   4.368   5.770   3.690  0.5884  0.4793  0.3224
11276TIP3    H155243   4.341   5.841   3.748  2.0596  0.2454  1.3505
11276TIP3    H255244   4.453   5.742   3.724  0.5124 -1.0956 -0.6810
11277TIP3   OH255245   0.459   5.656   5.554  0.1188 -0.3026 -0.1973
11277TIP3    H155246   0.468   5.745   5.589 -1.6469  0.0811 -0.6349
11277TIP3    H255247   0.456   5.600   5.632 -0.0368  0.1509  0.1301
11278TIP3   OH255248   4.511   2.396   0.974  0.0469  0.5894  0.4566
11278TIP3    H155249   4.511   2.482   0.933 -1.4439  0.8856  1.0240
11278TIP3    H255250   4.586   2.397   1.033  1.1077  0.8242 -0.8414
11279TIP3   OH255251   1.886   1.519  13.055 -0.3453 -0.2346  0.4171
11279TIP3    H155252   1.800   1.477  13.056 -0.2332 -0.5849 -1.3751
11279TIP3    H255253   1.943   1.455  13.012  0.6017  0.3974  0.7035
11280TIP3   OH255254   4.367   5.794   1.111  0.0818 -0.2027 -0.0907
11280TIP3    H155255   4.335   5.815   1.024 -2.2076 -1.8598  0.2526
11280TIP3    H255256   4.448   5.745   1.095 -0.1569 -0.2417 -1.2647
11281TIP3   OH255257   1.297   1.747   1.697  0.3872  0.0155 -0.4583
11281TIP3    H155258   1.342   1.696   1.765 -0.6751 -0.7750 -0.3328
11281TIP3    H255259   1.265   1.681   1.635 -1.9687  0.3820  0.2707
11282TIP3   OH255260   3.978   1.474  11.938 -0.5402  0.2060  0.1160
11282TIP3    H155261   3.982   1.557  11.891 -1.1870  0.5943  0.7235
11282TIP3    H255262   3.893   1.437  11.915 -1.1386  0.6977  1.4406
11283TIP3   OH255263   6.271   0.781  11.856 -0.2692  0.0077  0.1943
11283TIP3    H155264   6.260   0.737  11.772 -0.2595 -0.7832  0.5925
11283TIP3    H255265   6.182   0.793  11.889 -0.3755  1.7697 -0.6321
11284TIP3   OH255266   6.603   6.672   3.892 -0.0278  0.7887  0.3938
11284TIP3    H155267   6.664   6.598   3.891 -0.9961 -0.0557  1.2905
11284TIP3    H255268   6.578   6.684   3.801 -1.4180 -1.3558  0.4231
11285TIP3   OH255269   6.516   1.904   4.116 -0.0142 -0.3056 -0.1565
11285TIP3    H155270   6.600   1.943   4.094  0.3538 -0.7386  0.4372
11285TIP3    H255271   6.538   1.823   4.162 -0.7564 -0.9586 -0.9046
11286TIP3   OH255272   6.247   0.398   0.649 -0.6516  0.4282 -0.0340
11286TIP3    H155273   6.236   0.443   0.565 -2.3844 -0.0171 -0.0755
11286TIP3    H255274   6.259   0.469   0.713 -0.9768  0.8509 -0.4355
11287TIP3   OH255275   0.949   0.110  11.254 -0.4644 -0.2564  0.0544
11287TIP3    H155276   0.923   0.041  11.316 -0.7980  0.9047  1.2564
11287TIP3    H255277   0.876   0.117  11.193 -1.9528  1.2562  1.9117
11288TIP3   OH255278   5.724   5.816  10.732 -0.2390  0.0043 -0.3445
11288TIP3    H155279   5.715   5.744  10.670  1.4882  0.5301 -1.2522
11288TIP3    H255280   5.730   5.773  10.818  0.1742 -0.9025 -0.8148
11289TIP3   OH255281   0.316   3.227   2.945  0.4777 -0.5348  0.1525
11289TIP3    H155282   0.315   3.307   2.893  2.9925  0.0837  0.8868
11289TIP3    H255283   0.244   3.237   3.007  1.8907  2.1846  1.5390
11290TIP3   OH255284   4.478   4.718   2.283 -0.1126 -0.1505 -0.0966
11290TIP3    H155285   4.482   4.798   2.231  2.1050  1.0185  1.6762
11290TIP3    H255286   4.392   4.721   2.325 -0.6401  0.5181 -1.1786
11291TIP3   OH255287   0.318   6.551   4.494 -0.0041 -0.3240  0.3953
11291TIP3    H155288   0.388   6.602   4.453 -0.6828 -0.4938 -1.0426
11291TIP3    H255289   0.332   6.461   4.464 -2.1081 -0.0147 -1.8714
11292TIP3   OH255290   4.965   3.106   1.115 -0.6038 -0.6880  0.4906
11292TIP3    H155291   4.964   3.172   1.045  2.6714  0.1324  1.0480
11292TIP3    H255292   4.971   3.022   1.070 -0.2181 -0.2658 -0.2619
11293TIP3   OH255293   3.704   3.337   1.037 -0.0978  0.3728 -0.2322
11293TIP3    H155294   3.640   3.388   0.988 -0.8639  1.1643  1.4745
11293TIP3    H255295   3.735   3.270   0.976 -0.7853  1.4605 -1.8194
11294TIP3   OH255296   5.604   5.787   4.857 -0.4106  0.1897 -0.0316
11294TIP3    H155297   5.567   5.822   4.776  0.4616  0.3450 -0.3728
11294TIP3    H255298   5.555   5.831   4.927 -0.5320  0.7643 -0.4668
11295TIP3   OH255299   1.205   1.394  12.380 -0.3987 -0.4021  0.0980
11295TIP3    H155300   1.220   1.461  12.314  2.3254  0.5675  1.5398
11295TIP3    H255301   1.138   1.432  12.437  0.2779  0.6218  0.2433
11296TIP3   OH255302   6.239   2.572  11.021 -0.2581 -0.3653  1.0387
11296TIP3    H155303   6.251   2.619  10.938 -1.0379 -0.9305  0.5961
11296TIP3    H255304   6.261   2.636  11.088 -0.0878  0.2473  0.4086
11297TIP3   OH255305   1.121   0.842  12.985  0.0328 -0.5397  0.6720
11297TIP3    H155306   1.045   0.897  13.004 -1.0608 -2.6314  2.9859
11297TIP3    H255307   1.090   0.752  12.999  2.8336 -1.4995  1.4864
11298TIP3   OH255308   3.763   1.102   2.644  0.4114 -0.9280 -0.4464
11298TIP3    H155309   3.784   1.195   2.653  0.5331 -1.0885  1.1984
11298TIP3    H255310   3.667   1.098   2.651  0.5203 -1.2991  4.9453
11299TIP3   OH255311   1.650   0.370  15.789  0.2826  0.2151 -0.0478
11299TIP3    H155312   1.637   0.282  15.825  1.8877  0.2302  0.6451
11299TIP3    H255313   1.574   0.419  15.821 -0.1990 -0.6910  0.2631
11300TIP3   OH255314   6.059   4.225   2.178  0.7262 -0.6998 -0.8064
11300TIP3    H155315   6.084   4.139   2.144  0.7056 -2.0950  2.3381
11300TIP3    H255316   6.141   4.262   2.210  0.3694 -0.6185  0.0159
11301TIP3   OH255317   3.376   5.037  12.070 -0.2095  0.0618  0.7172
11301TIP3    H155318   3.404   5.018  11.980  0.0732  0.4978  0.7126
11301TIP3    H255319   3.293   4.990  12.079  0.1194 -0.5799  0.4647
11302TIP3   OH255320   4.238   3.833  11.937  0.3175 -0.4540  0.1324
11302TIP3    H155321   4.262   3.742  11.920  2.1209  0.1261 -0.6994
11302TIP3    H255322   4.319   3.874  11.967 -0.1667  1.1213 -0.5883
11303TIP3   OH255323   4.202   5.278  14.948 -0.6125 -0.1706  0.3593
11303TIP3    H155324   4.206   5.182  14.945  0.6302 -0.2308  2.3151
11303TIP3    H255325   4.140   5.297  15.018  2.1722  0.3034  2.9157
11304TIP3   OH255326   6.541   4.609   5.230  0.0562  0.2202 -0.1168
11304TIP3    H155327   6.548   4.559   5.311 -0.5432 -0.7178 -0.6382
11304TIP3    H255328   6.600   4.684   5.244 -0.1182  0.1435  1.2206
11305TIP3   OH255329   0.267   6.299  13.762 -0.7411  0.1040  0.3929
11305TIP3    H155330   0.355   6.323  13.790 -0.1696 -1.8126  0.4181
11305TIP3    H255331   0.276   6.285  13.667 -0.6068 -1.5284  0.6095
11306TIP3   OH255332   4.150   5.614   0.367  0.0511  0.0107 -0.1983
11306TIP3    H155333   4.179   5.704   0.382 -0.6882  0.1643  0.3901
11306TIP3    H255334   4.065   5.623   0.323  0.5024 -0.4219 -1.1925
11307TIP3   OH255335   3.071   3.193  15.259  0.1892  0.1364  0.2517
11307TIP3    H155336   3.104   3.213  15.171 -2.9416  2.0214 -0.6654
11307TIP3    H255337   3.021   3.112  15.249 -0.9869  0.8612 -0.0277
11308TIP3   OH255338   2.620   5.349   4.973  0.2798  0.8799 -0.0933
11308TIP3    H155339   2.704   5.337   5.017 -0.3259  2.6325  1.6973
11308TIP3    H255340   2.555   5.319   5.036 -0.5048 -1.6919 -1.9357
11309TIP3   OH255341   6.377   1.290   0.188 -0.0491 -0.4403  0.3194
11309TIP3    H155342   6.281   1.290   0.183 -0.2859  1.8224  2.5890
11309TIP3    H255343   6.397   1.241   0.268  0.7776 -1.4153 -0.4535
11310TIP3   OH255344   0.103   3.034   5.603  0.6968 -0.1589  0.6524
11310TIP3    H155345   0.015   3.010   5.633  0.1246  1.6696  0.5569
11310TIP3    H255346   0.147   3.065   5.681 -0.0412  2.4744  0.1095
11311TIP3   OH255347   3.028   5.942   1.280 -0.5151 -0.3615 -0.0393
11311TIP3    H155348   3.069   5.913   1.199  2.3468  1.5254  0.6106
11311TIP3    H255349   3.097   5.938   1.346 -2.2482 -0.0555  1.9263
11312TIP3   OH255350   0.237   4.929   3.198  0.1961  0.1610  0.1692
11312TIP3    H155351   0.321   4.912   3.155  0.5626  0.6109  0.6970
11312TIP3    H255352   0.172   4.888   3.141  0.8525 -1.0171  0.2347
11313TIP3   OH255353   3.874   6.226  12.735 -0.0279  0.0885  0.7768
11313TIP3    H155354   3.933   6.166  12.779  1.0368  0.2359 -0.3818
11313TIP3    H255355   3.931   6.293  12.698 -0.8612  0.0265 -0.7164
11314TIP3   OH255356   4.130   3.097  11.081  0.6566  0.6145  0.3562
11314TIP3    H155357   4.087   3.025  11.036  0.7267  0.2543  0.8612
11314TIP3    H255358   4.091   3.176  11.043 -0.4323  0.2992  0.7926
11315TIP3   OH255359   0.734   2.222   4.723 -0.0939  0.0657  0.1730
11315TIP3    H155360   0.697   2.157   4.782 -3.9312  1.7617 -0.0675
11315TIP3    H255361   0.725   2.305   4.770  1.0008  0.9159 -1.0473
11316TIP3   OH255362   5.327   5.383  14.634 -0.1675 -0.0440  0.0974
11316TIP3    H155363   5.263   5.453  14.626 -0.3647 -0.1343  0.8400
11316TIP3    H255364   5.286   5.308  14.592 -0.4432 -0.0282  0.3345
11317TIP3   OH255365   2.980   2.883  17.077 -0.3804  0.4014  0.3159
11317TIP3    H155366   2.968   2.796  17.114 -1.2830  0.3833  0.0175
11317TIP3    H255367   3.017   2.866  16.990  0.5350  0.3832  0.6965
11318TIP3   OH255368   0.637   0.703  15.494 -0.0957  0.0694 -0.5981
11318TIP3    H155369   0.635   0.641  15.567 -2.0292  0.9865  0.2133
11318TIP3    H255370   0.717   0.755  15.508  0.1054 -0.4616  0.2639
11319TIP3   OH255371   0.017   3.327   5.636  0.8315 -0.0682  0.2790
11319TIP3    H155372   0.065   3.396   5.590  0.0613 -0.2282 -0.8262
11319TIP3    H255373   0.042   3.247   5.591  0.4369 -0.2936  0.4555
11320TIP3   OH255374   5.477   6.343   3.907 -0.1147 -0.0765 -0.0116
11320TIP3    H155375   5.516   6.269   3.955  0.2812  0.4062  0.4197
11320TIP3    H255376   5.552   6.396   3.880 -0.3709 -0.0541 -0.7046
11321TIP3   OH255377   5.262   1.746   3.163 -0.3609 -0.5382  0.2443
11321TIP3    H155378   5.209   1.778   3.236  0.1141  0.8652  0.0074
11321TIP3    H255379   5.228   1.659   3.145 -0.9321 -0.6435  1.7033
11322TIP3   OH255380   4.623   5.121  16.233  0.5151  0.2990  0.3402
11322TIP3    H155381   4.583   5.200  16.270  1.3152  0.0597  1.7993
11322TIP3    H255382   4.604   5.052  16.297  0.5727 -0.5086 -0.4874
11323TIP3   OH255383   1.094   5.669  16.104 -0.1734  0.2715  0.1680
11323TIP3    H155384   1.133   5.593  16.148 -0.5862  0.0807  0.2094
11323TIP3    H255385   1.026   5.699  16.165 -0.5108  0.2228 -0.1829
11324TIP3   OH255386   2.390   5.392   4.507 -0.5271  0.0414 -0.0261
11324TIP3    H155387   2.437   5.423   4.584 -0.2233 -2.0148  0.6809
11324TIP3    H255388   2.414   5.453   4.437  0.5571  0.9476  1.1007
11325TIP3   OH255389   1.538   0.082  16.918 -0.3682 -0.1422  0.6580
11325TIP3    H155390   1.626   0.117  16.932 -1.2594  1.7933  1.8052
11325TIP3    H255391   1.492   0.150  16.870 -1.1889 -1.2590 -0.1889
11326TIP3   OH255392   6.338   5.676  14.053 -0.2675 -0.2099 -0.6176
11326TIP3    H155393   6.289   5.601  14.019 -0.7151  0.0112 -0.4622
11326TIP3    H255394   6.361   5.651  14.143  1.6493 -1.1539 -1.3030
11327TIP3   OH255395   3.789   2.030   6.659 -0.7035 -0.3956  0.4961
11327TIP3    H155396   3.699   1.999   6.659 -0.7773 -0.2269  1.5948
11327TIP3    H255397   3.796   2.083   6.579 -1.4231 -0.8171  0.1427
11328TIP3   OH255398   5.066   3.525  15.402  0.1868  0.1597  0.4058
11328TIP3    H155399   5.025   3.591  15.347  0.3095  1.2281  1.5605
11328TIP3    H255400   5.129   3.573  15.455 -1.1758 -0.4985  2.7642
11329TIP3   OH255401   6.018   5.826  15.455 -0.1824 -0.0261 -0.3326
11329TIP3    H155402   6.062   5.909  15.437 -2.6497  1.7451  1.2534
11329TIP3    H255403   5.978   5.802  15.371 -0.2567  0.9015 -0.5751
11330TIP3   OH255404   1.994   3.363  16.327  0.2778  0.9041  0.4342
11330TIP3    H155405   1.932   3.436  16.326  0.3451  1.0432  2.4427
11330TIP3    H255406   1.945   3.291  16.366  0.7270  0.3475 -0.0125
11331TIP3   OH255407   5.134   4.249  11.379 -0.2493  0.3766  0.1473
11331TIP3    H155408   5.092   4.290  11.453 -0.4973  0.0951  0.1649
11331TIP3    H255409   5.116   4.307  11.305 -2.9918 -1.0246 -0.4245
11332TIP3   OH255410   6.145   2.172   2.547 -0.0114 -0.3029 -0.0791
11332TIP3    H155411   6.065   2.169   2.494 -0.6564  0.0891  0.8487
11332TIP3    H255412   6.172   2.080   2.554 -1.3240 -0.6412  0.9797
11333TIP3   OH255413   3.194   3.035  11.492 -0.1605 -0.6207 -0.1360
11333TIP3    H155414   3.138   2.978  11.545 -0.8857 -0.7353 -0.9846
11333TIP3    H255415   3.264   3.062  11.551 -2.4750  1.6710  1.7776
11334TIP3   OH255416   0.835   1.479   1.668  0.1932 -0.0215  0.6142
11334TIP3    H155417   0.894   1.451   1.597 -0.4777  0.6399 -0.2180
11334TIP3    H255418   0.857   1.571   1.682 -1.2820  0.5146 -0.3796
11335TIP3   OH255419   4.797   0.175  16.078 -0.3307 -0.2267  0.7831
11335TIP3    H155420   4.824   0.089  16.046 -0.2346 -0.1121  0.5534
11335TIP3    H255421   4.878   0.217  16.106 -0.2951  0.0228  0.3222
11336TIP3   OH255422   1.426   5.928   0.854  0.1400 -0.4185 -0.5559
11336TIP3    H155423   1.384   5.970   0.779  1.0307 -0.7011 -1.2398
11336TIP3    H255424   1.414   5.989   0.926  0.4192  0.4835 -1.2536
11337TIP3   OH255425   0.462   0.779   1.898 -0.0268  0.2290  0.0595
11337TIP3    H155426   0.540   0.764   1.844  1.4323  0.0111  2.0811
11337TIP3    H255427   0.422   0.693   1.907  1.4024 -0.3177  1.6622
11338TIP3   OH255428   6.191   0.190  14.381  0.3238 -0.3680 -0.5889
11338TIP3    H155429   6.174   0.095  14.382 -0.3592 -0.2502 -0.0623
11338TIP3    H255430   6.286   0.197  14.390  0.3377 -1.0002 -0.1520
11339TIP3   OH255431   4.572   6.063  17.049  0.3323 -0.2387 -0.2612
11339TIP3    H155432   4.631   6.137  17.037 -1.7693  1.4269 -0.8770
11339TIP3    H255433   4.540   6.072  17.139  0.6763 -0.8959 -0.0643
11340TIP3   OH255434   5.862   1.582   4.113 -0.1452  0.5843  0.0327
11340TIP3    H155435   5.825   1.646   4.174  0.5921 -0.0349  1.1587
11340TIP3    H255436   5.916   1.525   4.167 -1.8373 -1.8813 -0.6720
11341TIP3   OH255437   4.619   4.917  17.060 -0.2088 -0.1450 -0.1208
11341TIP3    H155438   4.640   4.931  17.152  1.2026 -0.9524 -0.2946
11341TIP3    H255439   4.568   4.836  17.059  0.4949 -0.5974 -0.1155
11342TIP3   OH255440   3.082   5.197  11.574  0.0914 -0.2790  0.6917
11342TIP3    H155441   3.010   5.197  11.637  0.3403  1.1819  1.0135
11342TIP3    H255442   3.089   5.107  11.545 -2.8798 -0.2118 -0.5125
11343TIP3   OH255443   5.349   5.944   2.852 -0.1876 -0.1954 -0.3187
11343TIP3    H155444   5.385   5.888   2.920  0.4079  0.5504 -0.0205
11343TIP3    H255445   5.289   5.886   2.803 -1.4088 -0.4869  1.4336
11344TIP3   OH255446   3.213   1.080  11.792 -0.1356  0.1875  0.0055
11344TIP3    H155447   3.178   1.052  11.876 -1.2595 -0.6878 -0.7298
11344TIP3    H255448   3.164   1.160  11.771  0.2747  0.5099  0.2542
11345TIP3   OH255449   3.059   4.791  13.384  0.1187 -0.0947 -0.8139
11345TIP3    H155450   3.140   4.743  13.371  0.3764  0.4521 -1.2697
11345TIP3    H255451   3.079   4.881  13.358 -0.6348  0.0429 -0.9629
11346TIP3   OH255452   0.875   2.854  15.171 -0.3909  0.0182 -0.5896
11346TIP3    H155453   0.801   2.904  15.136  0.8108  1.5315 -1.0513
11346TIP3    H255454   0.861   2.765  15.138 -2.1495  0.1925 -0.4244
11347TIP3   OH255455   0.546   3.316  13.474  0.5433  0.2325  0.3156
11347TIP3    H155456   0.569   3.342  13.563 -0.5592 -1.5161  1.1575
11347TIP3    H255457   0.587   3.231  13.462  0.1775  0.1675 -0.6397
11348TIP3   OH255458   4.074   1.453   3.817  0.5280  0.1021  0.5128
11348TIP3    H155459   4.019   1.461   3.739 -0.3690  0.0625  1.1188
11348TIP3    H255460   4.158   1.491   3.792  0.6341 -0.9708 -0.8254
11349TIP3   OH255461   1.600   4.899  16.084 -0.0796  0.0314 -0.1059
11349TIP3    H155462   1.616   4.895  15.989  0.3303 -2.4993  0.0008
11349TIP3    H255463   1.518   4.851  16.096  0.8227 -1.3215  0.9589
11350TIP3   OH255464   2.301   0.584  14.726  0.4034 -0.2660 -0.1022
11350TIP3    H155465   2.346   0.547  14.802 -1.2927 -2.1196  0.0799
11350TIP3    H255466   2.372   0.605  14.665  1.6034 -2.9428  0.2087
11351TIP3   OH255467   6.600   2.569   2.564  0.2542  0.5706 -0.1268
11351TIP3    H155468   6.685   2.550   2.603 -0.2770 -2.4454 -0.2162
11351TIP3    H255469   6.606   2.532   2.476 -0.0048  3.5410 -1.5113
11352TIP3   OH255470   4.290   5.465   6.089 -0.2211  0.1611 -0.1230
11352TIP3    H155471   4.374   5.484   6.047 -0.7588 -0.4975 -1.5933
11352TIP3    H255472   4.307   5.389   6.145  0.5296  1.0986  0.9657
11353TIP3   OH255473   2.166   4.242   4.132 -0.3184  0.2228 -0.0653
11353TIP3    H155474   2.236   4.178   4.142 -0.5664 -0.0552 -0.0650
11353TIP3    H255475   2.160   4.256   4.037  0.2856  0.8723 -0.0105
11354TIP3   OH255476   5.658   6.399  14.890 -0.2354  0.6238  0.3017
11354TIP3    H155477   5.579   6.451  14.879  0.2090  0.8102 -2.9142
11354TIP3    H255478   5.660   6.341  14.814  2.1427 -0.1596  0.8576
11355TIP3   OH255479   0.138   4.594  11.938 -0.0840 -0.1584 -0.3899
11355TIP3    H155480   0.126   4.685  11.912  2.1705 -0.2046 -1.8270
11355TIP3    H255481   0.180   4.599  12.024  0.8958  0.2110 -0.8746
11356TIP3   OH255482   0.958   5.323   0.512  0.7883 -0.1428 -0.5710
11356TIP3    H155483   0.981   5.387   0.445 -0.4572 -1.5379 -2.4309
11356TIP3    H255484   1.027   5.331   0.578  0.4617  3.3365 -0.4916
11357TIP3   OH255485   0.698   6.154   4.295  0.1847 -0.4319  0.1813
11357TIP3    H155486   0.645   6.100   4.354 -0.4236  0.6738  0.6957
11357TIP3    H255487   0.766   6.190   4.351  0.0763  0.0012  0.0387
11358TIP3   OH255488   1.267   4.786   4.034 -0.1558  0.0268 -0.2133
11358TIP3    H155489   1.206   4.794   3.960  0.0461 -0.2692 -0.4135
11358TIP3    H255490   1.234   4.848   4.099 -0.7640 -0.2443 -0.2598
11359TIP3   OH255491   5.834   0.408  12.754  0.4242 -0.0731 -0.6482
11359TIP3    H155492   5.764   0.473  12.742  0.2821 -0.3086 -1.1275
11359TIP3    H255493   5.837   0.361  12.670  1.5276  0.3011 -0.8285
11360TIP3   OH255494   3.262   1.519  13.066 -0.1042 -0.4444 -0.0047
11360TIP3    H155495   3.291   1.453  13.003  0.7467 -1.1657  1.1113
11360TIP3    H255496   3.339   1.538  13.119 -0.6415  0.6018  0.4322
11361TIP3   OH255497   2.600   1.565  16.008 -0.0428 -0.1397  0.4635
11361TIP3    H155498   2.508   1.537  16.002 -0.7284  2.1124 -0.6416
11361TIP3    H255499   2.647   1.503  15.952 -1.1949 -0.2134 -0.4653
11362TIP3   OH255500   2.597   1.435  10.695  0.7438  0.3175  0.0551
11362TIP3    H155501   2.505   1.456  10.711 -0.0011 -2.7687  0.5128
11362TIP3    H255502   2.595   1.365  10.630  2.6281 -0.9953  1.2830
11363TIP3   OH255503   5.725   4.605  15.955  0.2326 -0.2114 -0.0296
11363TIP3    H155504   5.799   4.662  15.978  1.0420 -1.0549 -0.4446
11363TIP3    H255505   5.649   4.646  15.996  0.6526  1.5472 -0.9123
11364TIP3   OH255506   0.852   2.044  12.185 -0.1560 -0.4325 -0.2911
11364TIP3    H155507   0.823   2.082  12.102 -1.0578 -0.3405  0.0500
11364TIP3    H255508   0.775   1.996  12.218  0.1861 -0.4732  0.4824
11365TIP3   OH255509   1.385   1.845  13.712 -0.6351 -0.2572 -0.4274
11365TIP3    H155510   1.474   1.812  13.714 -0.5484 -0.1226  2.7675
11365TIP3    H255511   1.334   1.776  13.669  0.9052 -0.3922 -2.1523
11366TIP3   OH255512   2.523   5.646  13.896  0.1281 -0.0886 -0.2760
11366TIP3    H155513   2.489   5.607  13.816  0.7568  0.8007 -1.0003
11366TIP3    H255514   2.615   5.663  13.877  0.2403  0.3027  0.5703
11367TIP3   OH255515   3.107   3.715   2.871 -0.5701 -0.2170 -0.2584
11367TIP3    H155516   3.096   3.633   2.824 -0.0825 -0.2491 -0.3227
11367TIP3    H255517   3.114   3.782   2.803  2.3358 -0.5184 -0.3543
11368TIP3   OH255518   0.791   5.680   2.399  0.7909 -0.2205  0.0363
11368TIP3    H155519   0.701   5.653   2.420  0.9005 -0.7253 -0.1274
11368TIP3    H255520   0.825   5.608   2.346  0.2844  1.3536 -2.5395
11369TIP3   OH255521   5.908   2.697   5.631 -0.2613  0.3860  0.9987
11369TIP3    H155522   5.934   2.725   5.719 -1.6222  3.1584  0.6275
11369TIP3    H255523   5.815   2.679   5.637 -0.6592  1.8183 -0.0580
11370TIP3   OH255524   4.086   3.699  16.738 -0.4719 -0.1909  0.1339
11370TIP3    H155525   4.011   3.655  16.698 -1.7340  0.9045  1.2089
11370TIP3    H255526   4.048   3.754  16.806  1.0216  2.5196 -1.0722
11371TIP3   OH255527   6.364   6.199  14.997 -0.2767  0.5302 -0.4607
11371TIP3    H155528   6.276   6.163  14.985 -0.8570  2.0901 -1.1321
11371TIP3    H255529   6.364   6.279  14.945  2.0120 -0.1368 -1.6119
11372TIP3   OH255530   3.493   6.439  10.583  0.1142 -0.4632  0.2484
11372TIP3    H155531   3.564   6.378  10.560  2.0721  1.1293  1.7153
11372TIP3    H255532   3.517   6.520  10.538 -0.5152  0.2470  1.1683
11373TIP3   OH255533   0.861   3.494  15.146  0.1298  0.0545 -0.1935
11373TIP3    H155534   0.775   3.536  15.150  0.1455  0.0434  0.3665
11373TIP3    H255535   0.923   3.567  15.139  0.1469  0.1291  0.6222
11374TIP3   OH255536   2.507   4.692  15.266  0.1072 -0.2348 -0.0739
11374TIP3    H155537   2.418   4.713  15.295  0.2483  0.3087 -0.0195
11374TIP3    H255538   2.524   4.605  15.300  0.3761  0.4925  1.7345
11375TIP3   OH255539   5.311   6.221   3.715  0.2128 -0.5417 -0.0994
11375TIP3    H155540   5.355   6.278   3.779  0.2011 -1.1400  0.4517
11375TIP3    H255541   5.267   6.155   3.769  0.9617 -1.6038 -0.7668
11376TIP3   OH255542   3.407   5.253  13.066  0.2231 -0.1269 -0.3027
11376TIP3    H155543   3.346   5.232  12.995  0.1288  0.1065 -0.2877
11376TIP3    H255544   3.482   5.195  13.049  0.1994 -0.0785 -0.5923
11377TIP3   OH255545   5.580   3.925  12.648  0.3070  0.5562  0.2219
11377TIP3    H155546   5.531   3.980  12.587 -0.7372 -2.3550 -1.8208
11377TIP3    H255547   5.666   3.914  12.606 -0.2935 -1.1643 -0.6866
11378TIP3   OH255548   5.006   0.145  13.562 -0.0527  0.0301 -0.2830
11378TIP3    H155549   5.018   0.238  13.544 -2.1114  0.5398  0.6958
11378TIP3    H255550   5.047   0.101  13.487 -1.8189  1.8162 -2.4826
11379TIP3   OH255551   3.783   6.134  15.026  0.0947 -0.2788 -0.1124
11379TIP3    H155552   3.771   6.219  14.984  1.1297 -0.7916 -1.5098
11379TIP3    H255553   3.746   6.145  15.114  0.2029  1.6079 -0.2715
11380TIP3   OH255554   3.376   0.453  16.698 -0.1096 -0.5735 -0.6060
11380TIP3    H155555   3.453   0.444  16.755  1.1895  1.6070 -1.8891
11380TIP3    H255556   3.393   0.393  16.626  1.1604  0.9091 -1.6024
11381TIP3   OH255557   3.913   3.014   0.227 -0.1021  0.4067  0.4690
11381TIP3    H155558   3.902   3.016   0.131 -1.6073 -0.4040  0.5858
11381TIP3    H255559   3.914   3.106   0.253 -1.0960  0.6295 -0.2155
11382TIP3   OH255560   0.578   6.250   5.416 -0.5112 -0.1895  0.1504
11382TIP3    H155561   0.601   6.168   5.459 -0.8845 -1.3690 -1.8057
11382TIP3    H255562   0.497   6.277   5.459 -0.9543 -1.4041  0.1243
11383TIP3   OH255563   1.279   3.882   1.498 -0.5657 -0.1674 -0.4377
11383TIP3    H155564   1.346   3.922   1.553  0.1445  0.1169 -1.4972
11383TIP3    H255565   1.326   3.852   1.420 -1.6151 -0.2128 -1.0737
11384TIP3   OH255566   3.598   5.283   0.615 -0.3349 -0.5945  0.6710
11384TIP3    H155567   3.600   5.188   0.602  0.8389 -0.4008 -0.8539
11384TIP3    H255568   3.683   5.303   0.654 -0.9622 -0.2566  1.9174
11385TIP3   OH255569   2.351   0.075   4.021  0.0311  0.2568 -0.5478
11385TIP3    H155570   2.294   0.126   4.079  2.2224  3.5466 -1.0144
11385TIP3    H255571   2.439   0.108   4.039  1.7435 -3.6387 -0.8152
11386TIP3   OH255572   6.149   2.804   3.893 -0.5481  0.1648 -0.0695
11386TIP3    H155573   6.192   2.721   3.871 -0.4801  0.3467 -0.6470
11386TIP3    H255574   6.183   2.827   3.979  1.0408  0.6388 -0.7841
11387TIP3   OH255575   1.655   5.552   1.595  0.0878  0.7263 -0.0940
11387TIP3    H155576   1.561   5.571   1.594 -0.1852 -0.4990 -1.6853
11387TIP3    H255577   1.696   5.633   1.626 -1.5629  0.6997  2.4067
11388TIP3   OH255578   2.940   0.189  10.856  0.2905 -0.1966  0.1173
11388TIP3    H155579   2.923   0.096  10.872 -0.3013 -0.3551 -1.3174
11388TIP3    H255580   2.862   0.233  10.890 -0.2455 -0.3914 -0.8363
11389TIP3   OH255581   3.019   3.990  16.215 -0.3600 -0.3124  0.1650
11389TIP3    H155582   2.980   4.012  16.131 -0.6508  0.9531  0.6065
11389TIP3    H255583   3.005   3.896  16.224 -2.5070 -0.0669 -0.1063
11390TIP3   OH255584   5.501   1.477   0.665  0.6161 -0.0548  0.3413
11390TIP3    H155585   5.418   1.504   0.706  0.5366 -0.4786  0.4652
11390TIP3    H255586   5.480   1.470   0.571  0.8670  1.1765  0.1766
11391TIP3   OH255587   3.312   1.029   4.792 -0.5427  0.4026 -0.4817
11391TIP3    H155588   3.240   0.999   4.848  0.5153  0.3631  0.9053
11391TIP3    H255589   3.344   0.949   4.749 -1.8847  0.5480 -1.8484
11392TIP3   OH255590   1.358   0.069  14.499 -0.1729 -0.0932  0.0451
11392TIP3    H155591   1.373   0.087  14.406 -0.6053 -1.9407 -0.4225
11392TIP3    H255592   1.430   0.011  14.524 -0.3616 -0.0410  0.7240
11393TIP3   OH255593   6.317   4.760  12.718 -0.2740 -0.1471 -0.3752
11393TIP3    H155594   6.266   4.679  12.731  1.4145 -1.6229 -2.2292
11393TIP3    H255595   6.258   4.830  12.746 -2.2180 -1.9416  0.3155
11394TIP3   OH255596   2.360   5.802  12.737  0.0703  0.7676  0.3296
11394TIP3    H155597   2.293   5.735  12.748  0.2128  0.4022 -0.9252
11394TIP3    H255598   2.359   5.850  12.820 -2.2882  1.2926  0.0491
11395TIP3   OH255599   5.265   5.689   0.103 -0.7303 -0.4867  0.8366
11395TIP3    H155600   5.211   5.729   0.035 -1.4128  0.4550  1.9042
11395TIP3    H255601   5.338   5.649   0.055  0.3442  2.5508 -0.2735
11396TIP3   OH255602   1.353   1.224  15.483  0.0657 -0.1866  0.2678
11396TIP3    H155603   1.279   1.257  15.432  0.6260  0.8470  0.1084
11396TIP3    H255604   1.328   1.240  15.574 -0.1371 -0.3329  0.2382
11397TIP3   OH255605   6.427   2.257  13.983 -0.2070  0.2494  0.4670
11397TIP3    H155606   6.488   2.249  14.056 -0.6534 -2.1407  0.6627
11397TIP3    H255607   6.346   2.290  14.022 -0.7519 -1.9084  1.3429
11398TIP3   OH255608   0.369   3.527   1.982  0.3955  0.2283  0.5774
11398TIP3    H155609   0.443   3.514   1.923  0.7322 -0.0146  1.0483
11398TIP3    H255610   0.347   3.620   1.972 -0.4170 -0.0835 -0.9201
11399TIP3   OH255611   2.590   6.264  11.899 -0.7959 -0.5597 -0.8107
11399TIP3    H155612   2.519   6.326  11.919  0.6144  0.0201  3.3947
11399TIP3    H255613   2.630   6.246  11.984  3.3703 -1.7984 -2.7950
11400TIP3   OH255614   4.363   4.754   0.083 -0.2292 -0.1874  0.5471
11400TIP3    H155615   4.357   4.758  -0.013 -0.1066 -2.2680  0.4046
11400TIP3    H255616   4.457   4.757   0.101 -0.1798 -1.1744  0.4929
11401TIP3   OH255617   4.643   4.149   5.602  0.0195 -0.3835  0.9824
11401TIP3    H155618   4.563   4.095   5.605 -0.6154  0.5558  1.5996
11401TIP3    H255619   4.682   4.130   5.517 -0.3416 -1.5903  1.0649
11402TIP3   OH255620   2.467   3.718  13.980  0.1132  0.1004  0.1293
11402TIP3    H155621   2.458   3.807  13.946  0.1854 -0.3390 -1.0919
11402TIP3    H255622   2.379   3.681  13.972  0.1839 -0.0884  0.2210
11403TIP3   OH255623   2.648   5.168  11.652  0.1435 -0.3582 -0.4524
11403TIP3    H155624   2.611   5.115  11.723 -1.8518  0.6823 -0.6445
11403TIP3    H255625   2.672   5.251  11.694  1.0743 -0.5513 -0.5882
11404TIP3   OH255626   3.913   5.037  13.563 -0.2221 -0.6013 -0.5781
11404TIP3    H155627   3.941   5.091  13.489 -0.4192 -1.4343 -1.2756
11404TIP3    H255628   3.986   5.041  13.625 -0.4511  0.8934 -0.3595
11405TIP3   OH255629   5.739   3.007   5.633 -0.4208 -0.7832 -0.5359
11405TIP3    H155630   5.808   3.066   5.664 -0.3586 -1.6441  1.0820
11405TIP3    H255631   5.769   2.978   5.547 -0.3062  1.2648 -1.2388
11406TIP3   OH255632   2.277   5.590   0.724  0.0303  0.4845 -0.2862
11406TIP3    H155633   2.363   5.587   0.766 -0.6252  0.2644  1.1289
11406TIP3    H255634   2.243   5.677   0.745 -1.4078 -0.5462  2.0772
11407TIP3   OH255635   5.464   0.601   2.695  0.2924 -0.3715 -0.1959
11407TIP3    H155636   5.416   0.548   2.758  1.7471 -0.8368  0.5820
11407TIP3    H255637   5.556   0.586   2.717  0.7809  1.2556 -0.9829
11408TIP3   OH255638   4.019   3.517   6.032  0.3178  0.1524 -0.0105
11408TIP3    H155639   4.030   3.447   5.967  0.9018 -0.7791  1.0697
11408TIP3    H255640   3.924   3.529   6.037  0.1519 -1.1158  0.3373
11409TIP3   OH255641   1.652   6.005  12.344 -0.3206 -0.0134  0.2101
11409TIP3    H155642   1.620   6.082  12.295  0.3335  0.0298 -0.1643
11409TIP3    H255643   1.735   5.983  12.301 -0.0917 -0.4172  0.8533
11410TIP3   OH255644   2.997   2.613   2.322  0.2343 -0.4542  0.2729
11410TIP3    H155645   3.081   2.641   2.356  1.0410 -1.6623 -0.6170
11410TIP3    H255646   3.004   2.627   2.227 -0.7210 -0.1955  0.2313
11411TIP3   OH255647   5.109   2.823   4.994 -0.6025  0.2307  0.4280
11411TIP3    H155648   5.146   2.900   4.951  0.0239  0.3859  1.2252
11411TIP3    H255649   5.108   2.845   5.087 -1.7610 -0.1750  0.5259
11412TIP3   OH255650   6.448   2.595   2.879 -0.3111 -0.3888  0.0770
11412TIP3    H155651   6.489   2.645   2.808 -2.9849  0.6423 -0.8497
11412TIP3    H255652   6.416   2.516   2.836  2.4567 -2.2966  1.2283
11413TIP3   OH255653   0.008   6.568   5.641  0.1275  0.1802 -0.0661
11413TIP3    H155654   0.085   6.513   5.623  0.6735  0.7130  0.6226
11413TIP3    H255655  -0.063   6.523   5.596  0.6442 -0.8777  0.1401
11414TIP3   OH255656   4.241   0.896   2.567 -0.0582 -0.4050  0.1382
11414TIP3    H155657   4.226   0.865   2.478  2.4582  1.7562 -1.1739
11414TIP3    H255658   4.179   0.968   2.578  0.3388  0.0164 -0.3109
11415TIP3   OH255659   4.644   5.076  15.222 -0.6069 -0.2219  0.0935
11415TIP3    H155660   4.706   5.142  15.188  0.4965 -1.4159 -0.3311
11415TIP3    H255661   4.651   5.084  15.317  0.9841 -0.9873  0.0776
11416TIP3   OH255662   0.790   3.859   1.851 -0.1186 -0.5051 -0.0330
11416TIP3    H155663   0.875   3.856   1.894 -0.9826 -2.7208  1.6705
11416TIP3    H255664   0.746   3.934   1.890  1.3982  1.4472 -1.8231
11417TIP3   OH255665   5.807   5.640   0.934  0.0770 -0.3208  0.2529
11417TIP3    H155666   5.773   5.560   0.974 -0.0920  0.0252  0.8160
11417TIP3    H255667   5.820   5.700   1.008  0.6145  0.0240 -0.1089
11418TIP3   OH255668   0.414   2.591   3.686  0.7921 -0.0747  0.3705
11418TIP3    H155669   0.331   2.547   3.703  0.2245 -0.1576 -2.1759
11418TIP3    H255670   0.477   2.545   3.741 -0.7265 -0.3597  1.9577
11419TIP3   OH255671   5.613   3.411   0.290 -0.0814  0.4017 -0.0507
11419TIP3    H155672   5.585   3.483   0.234 -1.3047 -0.0777 -0.0890
11419TIP3    H255673   5.583   3.435   0.378  0.0196  0.2050  0.0393
11420TIP3   OH255674   3.652   5.717  16.902  0.1141  0.3899 -0.1387
11420TIP3    H155675   3.688   5.685  16.985  0.9148  1.6023  0.0141
11420TIP3    H255676   3.729   5.743  16.851 -0.4238  0.6860 -0.8193
11421TIP3   OH255677   4.488   0.452   6.092 -0.7310 -0.6766 -0.0134
11421TIP3    H155678   4.550   0.393   6.135 -0.8025  0.2577  1.4532
11421TIP3    H255679   4.494   0.533   6.143 -3.1192 -0.5428  0.1486
11422TIP3   OH255680   3.302   2.001   0.546  0.3947  0.3457 -0.4829
11422TIP3    H155681   3.266   2.090   0.539  0.4893  0.3172 -1.5475
11422TIP3    H255682   3.372   2.008   0.610 -0.5848  0.7039  0.5902
11423TIP3   OH255683   1.443   6.049  12.723 -0.2011  0.2257  0.2388
11423TIP3    H155684   1.458   6.002  12.805  1.4373  0.1877 -0.0560
11423TIP3    H255685   1.529   6.082  12.698 -1.1134  2.5294 -0.1062
11424TIP3   OH255686   5.617   1.775   2.241 -0.2243  0.5536 -0.1692
11424TIP3    H155687   5.698   1.822   2.219 -0.3475  1.2258  0.7526
11424TIP3    H255688   5.608   1.710   2.172  1.6804 -0.2756  0.2980
11425TIP3   OH255689   2.284   1.854   0.720  0.2533  0.0969 -0.0198
11425TIP3    H155690   2.318   1.876   0.633 -0.3049  0.6657 -0.0986
11425TIP3    H255691   2.241   1.934   0.750  1.5842  0.3474  1.3451
11426TIP3   OH255692   5.028   5.128   1.449 -0.1270  0.1542 -0.1699
11426TIP3    H155693   4.984   5.208   1.420 -0.3393 -0.5091 -1.7926
11426TIP3    H255694   4.992   5.059   1.393 -0.3592 -1.1970  1.5704
11427TIP3   OH255695   5.134   6.182   4.246  0.8489 -0.3096  0.1287
11427TIP3    H155696   5.067   6.116   4.265  0.7303 -0.2141  0.0511
11427TIP3    H255697   5.132   6.241   4.321  0.0884  0.3044 -0.3483
11428TIP3   OH255698   6.607   1.130  11.992 -0.0875  0.5751  0.3077
11428TIP3    H155699   6.659   1.071  11.938 -1.1574  0.1244 -0.2663
11428TIP3    H255700   6.616   1.216  11.950 -0.4328  0.3465 -0.2416
11429TIP3   OH255701   6.127   6.443  16.674 -0.0824 -0.5600 -0.4295
11429TIP3    H155702   6.127   6.498  16.596 -1.1250  0.0464 -0.0163
11429TIP3    H255703   6.219   6.439  16.700  0.0555  0.7000 -0.6658
11430TIP3   OH255704   4.335   4.497   0.612 -0.3726  0.3135  0.1667
11430TIP3    H155705   4.425   4.486   0.643 -0.4719 -1.0662  0.0245
11430TIP3    H255706   4.316   4.590   0.625  2.4676  1.6697 -3.5322
11431TIP3   OH255707   6.259   1.898   0.952  0.1889 -0.1155  0.1655
11431TIP3    H155708   6.315   1.829   0.987 -1.5957 -1.4416  0.5497
11431TIP3    H255709   6.206   1.927   1.027 -0.2683  0.4638 -0.3676
11432TIP3   OH255710   0.741   0.814  11.802 -0.2077 -0.2320  0.3002
11432TIP3    H155711   0.798   0.738  11.790  0.8167  0.4586  0.6157
11432TIP3    H255712   0.713   0.808  11.894  1.1871  0.6256  0.8039
11433TIP3   OH255713   0.269   1.864  11.639  0.0805  0.1148 -0.4677
11433TIP3    H155714   0.196   1.903  11.688  0.7425  1.4376 -0.4921
11433TIP3    H255715   0.339   1.928  11.647  1.5371 -1.4952  0.2345
11434TIP3   OH255716   5.739   6.336  17.096  0.4046  0.5034  0.1816
11434TIP3    H155717   5.792   6.370  17.168  0.5526  1.8062 -0.5257
11434TIP3    H255718   5.733   6.408  17.034 -0.7072 -0.2150 -0.5821
11435TIP3   OH255719   3.667   6.190  15.788 -0.4322  0.2073 -0.6953
11435TIP3    H155720   3.664   6.121  15.854 -2.4022 -0.6967 -1.6367
11435TIP3    H255721   3.760   6.212  15.780  0.3224 -2.5533 -0.5808
11436TIP3   OH255722   3.288   2.671   2.487  0.2707 -0.3649  0.0395
11436TIP3    H155723   3.336   2.599   2.528 -0.1889 -0.6635  0.0597
11436TIP3    H255724   3.342   2.697   2.413  1.3412  0.4840  1.0828
11437TIP3   OH255725   5.096   2.258  14.107  0.5322  0.1336 -0.5678
11437TIP3    H155726   5.053   2.339  14.079 -1.1428 -0.6798 -0.4786
11437TIP3    H255727   5.153   2.235  14.034  1.2824  1.5412 -0.4672
11438TIP3   OH255728   1.401   5.293   2.028 -0.9029  0.1235  0.1856
11438TIP3    H155729   1.329   5.343   2.068 -0.5538  1.8296 -1.1947
11438TIP3    H255730   1.360   5.213   1.997 -1.7040 -0.0292  1.5460
11439TIP3   OH255731   1.976   3.562   3.747  0.0001  0.1107  0.1532
11439TIP3    H155732   1.989   3.469   3.728 -0.7581 -0.3102  1.5476
11439TIP3    H255733   1.901   3.587   3.694 -1.0033 -0.5945  1.1900
11440TIP3   OH255734   6.153   3.413   0.276 -0.1108 -0.7681  0.2959
11440TIP3    H155735   6.122   3.430   0.187 -0.5301 -1.2425  0.3441
11440TIP3    H255736   6.247   3.427   0.272 -0.3898  1.3274  0.2896
11441TIP3   OH255737   0.216   0.483   4.546  0.1425 -0.5615  0.0226
11441TIP3    H155738   0.258   0.491   4.632  1.2786 -1.5421 -0.4037
11441TIP3    H255739   0.281   0.519   4.485 -0.8197  0.4970 -0.4024
11442TIP3   OH255740   2.104   2.178  17.092 -0.4633  0.3155 -0.1691
11442TIP3    H155741   2.081   2.095  17.049 -0.4331  1.1216 -1.8062
11442TIP3    H255742   2.023   2.228  17.093 -0.3225  0.5385  0.1519
11443TIP3   OH255743   3.118   3.197   2.569 -0.1397 -0.0758 -0.2500
11443TIP3    H155744   3.192   3.149   2.607 -0.1141 -0.1910 -0.4451
11443TIP3    H255745   3.043   3.138   2.579 -0.3162  0.2602  0.4389
11444TIP3   OH255746   6.400   0.063   1.283 -0.4636  0.0152 -0.2147
11444TIP3    H155747   6.325   0.112   1.249 -0.3513  1.6141  1.6145
11444TIP3    H255748   6.415   0.101   1.370  0.5315 -2.3823  0.7490
11445TIP3   OH255749   2.533   6.239  11.361  0.1145 -0.2820  0.0644
11445TIP3    H155750   2.455   6.187  11.342 -1.1477  1.3994  0.4753
11445TIP3    H255751   2.604   6.193  11.314 -1.1466 -1.6657 -0.5773
11446TIP3   OH255752   3.442   4.392  15.356 -0.1589  0.0384 -0.4304
11446TIP3    H155753   3.473   4.405  15.446 -0.2633 -1.4554 -0.1647
11446TIP3    H255754   3.522   4.377  15.305 -0.2112 -0.8789 -0.2605
11447TIP3   OH255755   0.432   1.174  15.588 -0.2505  0.2919  0.0323
11447TIP3    H155756   0.404   1.152  15.676 -1.0670  0.6954 -0.1184
11447TIP3    H255757   0.455   1.090  15.548  2.1330  0.2788  1.2745
11448TIP3   OH255758   2.815   5.321   5.321  0.2053  0.6149 -0.0425
11448TIP3    H155759   2.799   5.358   5.408 -1.1182  1.4817 -0.6306
11448TIP3    H255760   2.854   5.392   5.271 -0.8062  0.7211 -0.7016
11449TIP3   OH255761   0.103   0.092   0.181  0.5898  0.3663 -0.9497
11449TIP3    H155762   0.174   0.146   0.216  0.0849 -0.3408  1.3249
11449TIP3    H255763   0.023   0.137   0.207  0.1796 -0.8511  0.0042
11450TIP3   OH255764   4.937   4.566  14.255  0.3798  0.1790  0.0422
11450TIP3    H155765   4.906   4.613  14.333 -0.0121  0.1768 -0.1090
11450TIP3    H255766   5.005   4.622  14.219  0.8183  0.0028  0.5913
11451TIP3   OH255767   4.054   1.750  11.516 -0.2576 -0.2281 -0.1338
11451TIP3    H155768   4.123   1.702  11.469 -0.3521  1.5140 -2.2203
11451TIP3    H255769   3.981   1.689  11.521  0.4936 -1.1697 -0.4267
11452TIP3   OH255770   5.823   5.604  11.410 -0.1247  0.3004 -0.2589
11452TIP3    H155771   5.807   5.555  11.329  2.0335 -0.1210 -0.4906
11452TIP3    H255772   5.825   5.537  11.479 -0.5159  0.4734 -0.0810
11453TIP3   OH255773   3.255   5.693   5.687  0.1863 -0.1948  0.4472
11453TIP3    H155774   3.289   5.766   5.634 -1.3650  0.0939 -0.2197
11453TIP3    H255775   3.214   5.634   5.623 -1.0472 -0.2196  1.2225
11454TIP3   OH255776   0.029   5.122   3.109 -0.7624 -0.4048  0.3522
11454TIP3    H155777   0.088   5.108   3.183 -1.2029 -0.2782  0.7349
11454TIP3    H255778   0.087   5.136   3.034 -0.2247  2.4468  1.1781
11455TIP3   OH255779   4.656   6.279   4.485  0.2219 -0.5912  0.1895
11455TIP3    H155780   4.620   6.193   4.462  1.3250 -0.8248 -0.7750
11455TIP3    H255781   4.582   6.327   4.520 -0.6153 -1.6498 -0.0638
11456TIP3   OH255782   2.975   6.610   4.949 -0.1495  0.1341  0.5423
11456TIP3    H155783   2.980   6.595   4.855  0.9342 -0.6880  0.7029
11456TIP3    H255784   2.882   6.624   4.967 -0.5643 -1.1021 -0.4632
11457TIP3   OH255785   0.332   2.495   6.204 -0.1243 -0.2218  0.0718
11457TIP3    H155786   0.345   2.448   6.286 -1.0208  2.1148  1.6527
11457TIP3    H255787   0.395   2.566   6.207 -0.9856  0.5893 -0.6954
11458TIP3   OH255788   1.239   0.707  14.140  0.6485 -0.4181  0.1405
11458TIP3    H155789   1.311   0.769  14.148  0.7721 -0.4558 -0.5501
11458TIP3    H255790   1.272   0.640  14.079  0.0658 -0.4817 -0.1100
11459TIP3   OH255791   2.829   1.718  11.617  0.1341  0.3913 -0.0565
11459TIP3    H155792   2.820   1.793  11.676 -1.9000 -0.7224  1.1569
11459TIP3    H255793   2.904   1.669  11.651  1.2876  1.6699 -0.6798
11460TIP3   OH255794   4.131   1.295   3.170 -0.1820 -0.0261 -0.0324
11460TIP3    H155795   4.091   1.303   3.083 -0.9308  1.0797  0.3835
11460TIP3    H255796   4.198   1.228   3.160  0.8770  1.2039 -1.9073
11461TIP3   OH255797   5.958   3.257   1.943 -0.4677 -0.5493 -0.3824
11461TIP3    H155798   5.901   3.282   1.871 -0.7763 -0.5298 -0.1322
11461TIP3    H255799   6.001   3.340   1.969 -0.4689 -0.5298 -0.4438
11462TIP3   OH255800   0.872   5.608  16.510 -0.1271 -0.3217  0.8065
11462TIP3    H155801   0.942   5.555  16.549 -0.1025 -1.2350 -0.4082
11462TIP3    H255802   0.796   5.551  16.511 -0.2740 -0.1427  0.0668
11463TIP3   OH255803   5.712   2.811   4.424 -0.4251 -0.1209  0.0990
11463TIP3    H155804   5.778   2.854   4.371 -0.9098  0.1579 -0.2802
11463TIP3    H255805   5.667   2.883   4.470 -0.7738 -0.2699 -0.0049
11464TIP3   OH255806   4.077   4.115  16.680  0.5681 -0.0755 -0.1237
11464TIP3    H155807   4.135   4.072  16.743  2.7899  0.0910 -1.9106
11464TIP3    H255808   4.094   4.070  16.597 -0.8989  0.8838 -0.9947
11465TIP3   OH255809   5.889   1.107   4.295 -0.5122 -0.3671  0.1763
11465TIP3    H155810   5.930   1.178   4.345 -2.2749 -0.0184  1.2246
11465TIP3    H255811   5.855   1.047   4.362 -2.0755 -0.3999 -0.5877
11466TIP3   OH255812   0.253   6.052   0.683 -0.2893  0.2047 -0.2874
11466TIP3    H155813   0.294   6.138   0.686  1.8303 -0.7577  2.8840
11466TIP3    H255814   0.211   6.042   0.768  0.2408 -2.1848 -0.2474
11467TIP3   OH255815   2.470   2.548  12.944 -0.0610 -0.3735  0.2848
11467TIP3    H155816   2.565   2.557  12.948 -0.0174 -1.0175  0.9000
11467TIP3    H255817   2.455   2.474  12.884 -0.1319 -0.9190  0.9695
11468TIP3   OH255818   0.507   4.209  17.136  0.2125  0.1752  0.0181
11468TIP3    H155819   0.595   4.173  17.147 -0.6507 -1.8347  0.8680
11468TIP3    H255820   0.487   4.194  17.043  0.2457 -0.6710  0.1405
11469TIP3   OH255821   1.383   4.862  10.893  0.2727 -0.3685  0.5492
11469TIP3    H155822   1.443   4.883  10.821 -1.6532 -1.2997 -1.4491
11469TIP3    H255823   1.357   4.947  10.928  0.7228  0.1562 -0.3549
11470TIP3   OH255824   2.202   3.802   0.594  0.0098  0.0156 -0.1616
11470TIP3    H155825   2.264   3.730   0.588  2.8498  2.2701 -0.3588
11470TIP3    H255826   2.164   3.809   0.506  0.4390 -0.6103 -0.3976
11471TIP3   OH255827   6.173   4.722  14.354  0.7468  0.6434 -0.2340
11471TIP3    H155828   6.124   4.644  14.377  1.3380  0.6280  1.0350
11471TIP3    H255829   6.217   4.700  14.272 -1.7053  0.8360 -1.6921
11472TIP3   OH255830   4.842   4.712  12.673 -0.6763  0.4242 -0.0411
11472TIP3    H155831   4.770   4.774  12.663 -1.1743 -0.2557 -0.7811
11472TIP3    H255832   4.895   4.724  12.594 -0.2494  0.5588  0.2589
11473TIP3   OH255833   2.223   4.009  16.316  0.1378  0.2230  0.3719
11473TIP3    H155834   2.127   4.015  16.307  0.0558 -0.2802  0.8798
11473TIP3    H255835   2.245   3.924  16.279  0.6310  1.1245 -1.5213
11474TIP3   OH255836   4.105   5.373  11.064  0.5429 -0.4090 -0.7607
11474TIP3    H155837   4.035   5.308  11.063  1.7908 -1.9403  1.8703
11474TIP3    H255838   4.184   5.324  11.045  1.1913  0.9446 -1.7427
11475TIP3   OH255839   2.406   0.866   0.084  0.2390 -0.6192  0.1189
11475TIP3    H155840   2.334   0.809   0.111  0.9974 -0.7654  1.9380
11475TIP3    H255841   2.432   0.912   0.164  2.0095 -0.3820 -0.5489
11476TIP3   OH255842   3.920   3.160  10.714  0.5374 -0.5283  0.1957
11476TIP3    H155843   4.010   3.129  10.722  0.0397 -1.9764  0.3585
11476TIP3    H255844   3.928   3.256  10.715  1.9511 -0.6158  1.7238
11477TIP3   OH255845   4.078   4.571   2.835 -0.3706  0.4979  0.2491
11477TIP3    H155846   4.079   4.530   2.921  0.3148  0.2236  0.1134
11477TIP3    H255847   3.991   4.549   2.800  0.6234 -2.6561 -0.6476
11478TIP3   OH255848   2.414   5.572   2.128 -0.0019  0.6647 -0.0970
11478TIP3    H155849   2.507   5.590   2.141 -0.3068  1.7592  0.7688
11478TIP3    H255850   2.390   5.622   2.050 -0.0611  1.1295  0.2173
11479TIP3   OH255851   3.567   5.711   2.939  0.5102  0.9436 -0.8278
11479TIP3    H155852   3.567   5.714   2.843  1.0639 -0.9589 -0.9118
11479TIP3    H255853   3.658   5.724   2.963  1.6774 -4.5921 -0.9374
11480TIP3   OH255854   4.520   2.172  15.348  0.6828 -0.1623 -0.1499
11480TIP3    H155855   4.559   2.092  15.383 -0.4892 -0.2557  1.0222
11480TIP3    H255856   4.509   2.155  15.255  1.9970 -0.7079 -0.2188
11481TIP3   OH255857   0.960   2.354   2.095  0.3305 -0.0955  0.4178
11481TIP3    H155858   0.950   2.437   2.048 -1.2650 -0.8012 -0.5882
11481TIP3    H255859   1.031   2.370   2.156  0.3297  1.8937 -0.0124
11482TIP3   OH255860   3.964   5.830   5.916 -0.2856  0.1147 -0.4356
11482TIP3    H155861   3.989   5.880   5.994  2.6520 -1.6770 -0.0693
11482TIP3    H255862   3.902   5.886   5.870 -2.6530  1.0008  3.4509
11483TIP3   OH255863   5.961   3.202   5.640 -0.1680 -0.1320 -0.1887
11483TIP3    H155864   6.044   3.181   5.598 -0.3136 -1.0600 -0.0450
11483TIP3    H255865   5.984   3.225   5.730  0.0715  1.1125 -0.5605
11484TIP3   OH255866   0.972   0.175  11.887  0.1014  0.9242 -1.0366
11484TIP3    H155867   1.040   0.149  11.950 -1.8735  2.7150  2.0468
11484TIP3    H255868   0.897   0.119  11.908 -0.1480  0.4344 -2.9959
11485TIP3   OH255869   1.497   2.728  11.794  0.0081  0.1118  0.6661
11485TIP3    H155870   1.528   2.641  11.818  2.1442  0.5101 -0.4312
11485TIP3    H255871   1.429   2.712  11.728 -1.7792 -0.7582  2.6011
11486TIP3   OH255872   0.403   5.157  13.026  0.1748 -0.4056 -0.5459
11486TIP3    H155873   0.398   5.092  13.096  1.7008 -0.0170 -0.0492
11486TIP3    H255874   0.487   5.140  12.983  0.5274  1.0946 -0.5228
11487TIP3   OH255875   1.969   2.315   3.183 -0.2972 -0.0363 -0.2337
11487TIP3    H155876   1.986   2.285   3.272 -0.9617  0.7369  0.1583
11487TIP3    H255877   1.961   2.410   3.190 -1.4283 -0.0604 -0.9391
11488TIP3   OH255878   0.550   4.092   2.276  0.6456 -0.2001 -0.4078
11488TIP3    H155879   0.482   4.025   2.279  0.6843 -0.2531 -0.7025
11488TIP3    H255880   0.592   4.088   2.362 -1.7122  1.9173  0.9863
11489TIP3   OH255881   5.073   3.316   1.889 -0.0190 -0.6576  0.5036
11489TIP3    H155882   5.113   3.232   1.914 -0.3299 -1.0958 -0.4479
11489TIP3    H255883   5.108   3.334   1.802 -0.8531 -0.3788  0.2180
11490TIP3   OH255884   1.336   2.349  13.632  0.0747 -0.2540 -0.1049
11490TIP3    H155885   1.354   2.258  13.652 -0.6544 -0.5262 -0.6465
11490TIP3    H255886   1.395   2.370  13.560  2.7699  0.7535  2.1968
11491TIP3   OH255887   1.720   4.309   3.179 -0.3658 -0.0254 -0.5176
11491TIP3    H155888   1.672   4.274   3.104  0.0828  0.5961 -1.1074
11491TIP3    H255889   1.656   4.366   3.223 -0.4232  0.1483 -0.8228
11492TIP3   OH255890   0.154   4.146   5.789 -0.2088 -0.1495 -0.1048
11492TIP3    H155891   0.172   4.240   5.777  0.1677 -0.1543  0.3791
11492TIP3    H255892   0.113   4.141   5.875  0.1745 -0.4793  0.0601
11493TIP3   OH255893   3.812   5.689   4.625 -0.0645 -0.2115 -0.8758
11493TIP3    H155894   3.726   5.733   4.625  0.0961  0.1047 -1.2669
11493TIP3    H255895   3.871   5.753   4.664 -0.4431 -1.3215  1.7065
11494TIP3   OH255896   3.542   5.031   1.811  0.1470 -0.0070  0.2878
11494TIP3    H155897   3.503   5.057   1.894 -0.9054 -0.1025 -0.1660
11494TIP3    H255898   3.502   5.088   1.746 -0.0998 -0.8746 -0.3420
11495TIP3   OH255899   3.397   5.800   0.828 -0.2961 -0.4742 -0.2111
11495TIP3    H155900   3.451   5.737   0.780 -2.5564 -2.3930 -0.4529
11495TIP3    H255901   3.360   5.856   0.759 -0.1135 -0.4031 -0.2512
11496TIP3   OH255902   0.092   6.669   4.188  0.0438 -0.2681 -0.3822
11496TIP3    H155903   0.101   6.748   4.242 -1.6109  0.1639 -0.6851
11496TIP3    H255904   0.156   6.681   4.118 -0.0936  0.7610 -0.3551
11497TIP3   OH255905   6.225   3.476  16.936  0.7364 -0.1046  0.2503
11497TIP3    H155906   6.141   3.514  16.907 -0.1023 -1.9974  0.0463
11497TIP3    H255907   6.225   3.387  16.899  3.5807  0.3393 -1.1391
11498TIP3   OH255908   6.394   6.282   0.866  0.0025  0.1399 -0.5247
11498TIP3    H155909   6.353   6.358   0.907 -2.0379 -1.3946  0.4851
11498TIP3    H255910   6.433   6.316   0.785  0.9331  2.5762  0.8498
11499TIP3   OH255911   4.436   0.209   0.332  0.0294 -0.2899 -0.1716
11499TIP3    H155912   4.500   0.270   0.368 -0.7299 -0.6221  1.8409
11499TIP3    H255913   4.479   0.123   0.338 -0.1251 -0.3547  0.0115
11500TIP3   OH255914   0.023   6.589   6.085 -0.1235  0.0383 -0.2497
11500TIP3    H155915  -0.023   6.556   6.162 -0.3592 -0.1541 -0.4667
11500TIP3    H255916   0.008   6.521   6.018  1.7347 -0.7799  0.0962
11501TIP3   OH255917   0.436   1.614   0.449 -0.3203  0.2909  0.4717
11501TIP3    H155918   0.382   1.670   0.393  2.3952  2.5140 -0.2019
11501TIP3    H255919   0.487   1.561   0.388 -0.0392 -0.0281  0.9767
11502TIP3   OH255920   5.464   0.566   0.831 -0.5052 -0.1686 -0.1635
11502TIP3    H155921   5.547   0.519   0.834 -0.9096 -1.0235 -1.5515
11502TIP3    H255922   5.476   0.639   0.893  1.9191  0.7744 -1.5879
11503TIP3   OH255923   6.736   0.927  17.106  0.5213 -0.3352  0.4089
11503TIP3    H155924   6.675   0.891  17.041 -0.5169  0.0864  1.1245
11503TIP3    H255925   6.784   0.851  17.138 -2.5096 -1.4415  2.8307
11504TIP3   OH255926   5.496   5.568  12.972  0.0793 -0.2010 -0.1811
11504TIP3    H155927   5.499   5.559  13.067  0.8877  0.0628 -0.1709
11504TIP3    H255928   5.545   5.493  12.938  2.8032  1.4451 -0.2412
11505TIP3   OH255929   4.939   4.756   3.369  0.1340  0.1306  0.0511
11505TIP3    H155930   4.861   4.704   3.390 -1.2667  2.2817  0.4402
11505TIP3    H255931   4.984   4.705   3.302 -0.6154 -2.0540  1.1191
11506TIP3   OH255932   5.452   0.812  16.325 -0.1814  0.1353 -0.3083
11506TIP3    H155933   5.438   0.719  16.307 -0.2773  0.4223 -1.9512
11506TIP3    H255934   5.426   0.856  16.243  0.5412  1.5403  0.1785
11507TIP3   OH255935   1.779   4.505  11.553  0.7500  0.0247 -0.0553
11507TIP3    H155936   1.832   4.584  11.562  0.2817  0.3083  0.2383
11507TIP3    H255937   1.829   4.437  11.598  1.3467  0.0547 -0.6528
11508TIP3   OH255938   6.299   1.914   5.533  0.0604  0.3486 -0.0247
11508TIP3    H155939   6.208   1.942   5.522  0.6302  2.1956 -0.3651
11508TIP3    H255940   6.295   1.818   5.534 -1.8966  0.3986  0.1295
11509TIP3   OH255941   2.357   2.201   4.275 -0.2677  0.0070  0.3355
11509TIP3    H155942   2.282   2.165   4.322  0.3281 -1.5923  0.1167
11509TIP3    H255943   2.434   2.165   4.319  0.3852  1.2694  0.2880
11510TIP3   OH255944   0.226   4.277  14.150 -0.2390 -0.3092 -0.2419
11510TIP3    H155945   0.315   4.279  14.113 -0.1826 -0.9242 -0.1500
11510TIP3    H255946   0.234   4.324  14.233  0.3508 -1.6124  0.4843
11511TIP3   OH255947   4.881   3.194   3.070 -0.1730  0.0026  0.2749
11511TIP3    H155948   4.808   3.173   3.129  2.7507  1.0716  4.7903
11511TIP3    H255949   4.890   3.289   3.076 -0.5982  0.4180 -3.3671
11512TIP3   OH255950   3.471   3.529   1.420 -0.5480 -0.1099  0.1573
11512TIP3    H155951   3.390   3.482   1.401 -0.5194  0.8119 -2.6608
11512TIP3    H255952   3.463   3.612   1.373  1.6777  0.3770  0.5164
11513TIP3   OH255953   6.641   2.572   1.327 -0.4202  0.0930 -0.8039
11513TIP3    H155954   6.612   2.643   1.270 -2.9619  0.8845  1.2685
11513TIP3    H255955   6.575   2.504   1.316 -0.2286 -0.2728  0.2184
11514TIP3   OH255956   0.413   4.311   2.151  0.1776 -0.1495  0.0452
11514TIP3    H155957   0.378   4.258   2.079 -1.3035 -2.4467  2.2521
11514TIP3    H255958   0.468   4.250   2.201 -1.0701  0.4954  2.3526
11515TIP3   OH255959   1.229   0.261  13.688 -0.3778 -0.9491  0.1926
11515TIP3    H155960   1.136   0.245  13.670 -1.0434 -1.4533  3.3812
11515TIP3    H255961   1.239   0.356  13.678 -1.2601 -0.8686 -0.0370
11516TIP3   OH255962   2.165   1.590   4.260  0.4072 -0.5001 -0.2278
11516TIP3    H155963   2.164   1.673   4.308 -1.9494 -2.0317  2.7001
11516TIP3    H255964   2.146   1.614   4.170 -0.5285  2.1232  0.5774
11517TIP3   OH255965   1.627   4.590  12.925  0.6421 -0.7309 -0.7620
11517TIP3    H155966   1.672   4.668  12.957  0.1114 -0.0433 -1.6439
11517TIP3    H255967   1.612   4.537  13.003  0.7371  0.1963 -0.1012
11518TIP3   OH255968   3.178   2.048  15.305  0.1329 -0.0021  0.4982
11518TIP3    H155969   3.083   2.037  15.317  0.2127 -2.8939 -0.6992
11518TIP3    H255970   3.201   2.122  15.362 -3.0538  1.8401 -0.3460
11519TIP3   OH255971   0.206   6.201  12.530 -0.3743 -0.3444  0.4884
11519TIP3    H155972   0.140   6.270  12.529  0.6316  0.6972 -1.9112
11519TIP3    H255973   0.159   6.123  12.500 -0.5397  0.4076 -1.3029
11520TIP3   OH255974   5.444   5.302   3.524  0.1177 -0.1108  0.5654
11520TIP3    H155975   5.517   5.257   3.567 -0.0170  0.4970  1.4722
11520TIP3    H255976   5.487   5.365   3.466  0.3140 -0.2945  0.5084
11521TIP3   OH255977   0.703   3.079  13.378  0.6848 -0.2636 -0.2164
11521TIP3    H155978   0.738   2.998  13.340 -0.5054 -1.0862  0.3399
11521TIP3    H255979   0.776   3.140  13.377  1.7754 -1.5101 -0.1880
11522TIP3   OH255980   6.532   0.163   0.798 -0.2315  0.0629  0.1379
11522TIP3    H155981   6.539   0.208   0.714 -0.8200  0.6455  0.3945
11522TIP3    H255982   6.535   0.233   0.863  3.1944 -0.5459  0.8219
11523TIP3   OH255983   4.257   3.095   2.541  0.1128  0.0792  0.2059
11523TIP3    H155984   4.252   3.028   2.472 -0.2583  2.1547 -1.9057
11523TIP3    H255985   4.308   3.054   2.610  1.3671 -1.7975 -1.7066
11524TIP3   OH255986   2.654   3.770   4.701 -0.1090  0.0459  0.0933
11524TIP3    H155987   2.585   3.806   4.646 -0.1774  0.0644  0.1904
11524TIP3    H255988   2.672   3.840   4.764 -0.3868 -0.1682  0.4143
11525TIP3   OH255989   1.341   4.830  11.738  0.2597 -0.4677 -0.9955
11525TIP3    H155990   1.306   4.770  11.672 -4.5515 -0.6305  1.2533
11525TIP3    H255991   1.391   4.775  11.797 -1.7305 -1.8309 -0.5002
11526TIP3   OH255992   0.012   6.426  12.978  0.2946  0.1728  0.0740
11526TIP3    H155993  -0.039   6.394  12.904  0.1337  0.1436  0.1949
11526TIP3    H255994   0.103   6.421  12.950  0.1636  2.0389 -0.8876
11527TIP3   OH255995   4.076   3.126   2.246 -0.3625  0.1105  0.1774
11527TIP3    H155996   4.141   3.073   2.292 -1.1401  1.1504  2.6376
11527TIP3    H255997   4.005   3.065   2.226  0.3432 -0.5340 -0.3920
11528TIP3   OH255998   2.795   4.420   0.331 -0.2074 -0.5252  0.2911
11528TIP3    H155999   2.760   4.332   0.323  0.4866 -0.9061  1.3708
11528TIP3    H256000   2.830   4.425   0.419  0.5873  0.5339 -0.0619
11529TIP3   OH256001   4.582   0.176   6.493 -0.0913  0.5029  0.0416
11529TIP3    H156002   4.527   0.115   6.443  1.6321  0.2835 -1.7316
11529TIP3    H256003   4.642   0.120   6.541 -1.1128  0.7513  1.6843
11530TIP3   OH256004   3.294   5.232   0.973 -0.0231  0.1205  0.1908
11530TIP3    H156005   3.334   5.145   0.970  0.3519  0.3170 -0.9828
11530TIP3    H256006   3.200   5.215   0.982  0.0927 -0.3897  0.4657
11531TIP3   OH256007   3.828   5.378   5.335  0.0741 -0.4478  0.1568
11531TIP3    H156008   3.807   5.463   5.373 -0.6719 -1.4615  2.0861
11531TIP3    H256009   3.745   5.332   5.330  0.3259 -0.7838 -1.7134
11532TIP3   OH256010   3.664   2.374  14.616 -0.5905  0.0634 -0.1661
11532TIP3    H156011   3.735   2.437  14.617  0.0099 -0.5854 -0.7424
11532TIP3    H256012   3.642   2.360  14.708  1.0474 -0.8452  0.1305
11533TIP3   OH256013   2.878   1.158  13.587 -0.2842 -0.3713 -0.2780
11533TIP3    H156014   2.914   1.230  13.639  1.0462 -0.8420 -0.5112
11533TIP3    H256015   2.801   1.196  13.544  0.3178  0.8838 -0.2961
11534TIP3   OH256016   1.144   0.081   5.584 -0.0062 -0.2566 -0.3634
11534TIP3    H156017   1.139   0.045   5.495  1.0515  1.1738 -1.0437
11534TIP3    H256018   1.102   0.015   5.639  0.7905 -1.9720 -1.7003
11535TIP3   OH256019   0.331   5.444   2.739  0.0352  0.1469 -0.2720
11535TIP3    H156020   0.314   5.519   2.682 -1.5897  0.6185  0.7637
11535TIP3    H256021   0.249   5.431   2.787  0.7151 -1.4656  0.5391
11536TIP3   OH256022   4.360   5.310  14.118 -0.3601 -0.3584 -0.2608
11536TIP3    H156023   4.380   5.300  14.024  0.1166 -1.9993 -0.0097
11536TIP3    H256024   4.340   5.403  14.128  0.6673  0.0681 -1.7984
11537TIP3   OH256025   3.207   6.642   1.107  0.2311 -0.9044  0.8184
11537TIP3    H156026   3.129   6.603   1.147  0.0607 -0.8442  0.5477
11537TIP3    H256027   3.177   6.676   1.023  0.2876  0.1551  1.2087
11538TIP3   OH256028   2.328   1.358  16.235  0.2906  0.3250  0.3845
11538TIP3    H156029   2.413   1.322  16.210 -0.8761 -1.7008 -0.8475
11538TIP3    H256030   2.281   1.369  16.153 -1.6535 -1.3463  1.1812
11539TIP3   OH256031   4.410   2.447   6.564  0.0177  0.8042 -0.3231
11539TIP3    H156032   4.477   2.391   6.605  0.3665  1.9014  0.6447
11539TIP3    H256033   4.332   2.392   6.562  0.4915  0.0930  0.1209
11540TIP3   OH256034   6.776   2.253   5.068 -0.2094 -0.6819 -0.0948
11540TIP3    H156035   6.699   2.293   5.027 -0.0599  0.3725  0.6314
11540TIP3    H256036   6.812   2.321   5.124  0.9510 -1.3429 -0.0058
11541TIP3   OH256037   4.302   5.229   6.224  0.3745  0.3438  0.3948
11541TIP3    H156038   4.227   5.170   6.224 -0.5988  1.5236 -0.6170
11541TIP3    H256039   4.342   5.217   6.310  0.9353 -2.6161 -0.1423
11542TIP3   OH256040   4.568   3.349  12.997 -0.0117 -0.3057 -0.4001
11542TIP3    H156041   4.551   3.410  12.925  0.8742 -0.4188 -0.7179
11542TIP3    H256042   4.639   3.389  13.046 -0.8987 -0.0150  0.6877
11543TIP3   OH256043   3.692   2.105  13.319 -0.1275 -0.0775  0.2758
11543TIP3    H156044   3.758   2.036  13.320  0.5184  0.4769 -1.5803
11543TIP3    H256045   3.741   2.185  13.301 -0.9981  0.7525  1.4261
11544TIP3   OH256046   2.986   3.725   6.616  0.2034  0.1381  0.4511
11544TIP3    H156047   3.065   3.703   6.666  0.0992  1.3540  1.1659
11544TIP3    H256048   3.019   3.774   6.540  0.1864 -0.0502  0.3184
11545TIP3   OH256049   6.403   3.994  11.584  0.2427  0.0297 -0.0867
11545TIP3    H156050   6.379   4.083  11.556  2.6406  0.7541 -0.0135
11545TIP3    H256051   6.392   3.941  11.506 -1.6488  0.2303 -0.0264
11546TIP3   OH256052   6.145   2.155  14.933 -0.5150 -0.0104  0.0935
11546TIP3    H156053   6.060   2.156  14.891  0.3495  0.5528 -1.7183
11546TIP3    H256054   6.126   2.141  15.026 -2.6048  0.8941 -0.1592
11547TIP3   OH256055   1.554   4.917  14.230 -0.3335  0.7142  0.1969
11547TIP3    H156056   1.518   4.828  14.235  1.1519  0.1564  2.8869
11547TIP3    H256057   1.480   4.974  14.251 -1.0314  0.0444 -0.3689
11548TIP3   OH256058   3.463   1.551   3.500 -0.2356 -0.0084  0.6713
11548TIP3    H156059   3.501   1.514   3.580  0.0876  1.6749  1.3517
11548TIP3    H256060   3.530   1.613   3.468 -1.4511  1.3471  0.6414
11549TIP3   OH256061   1.209   5.279  16.030  0.5772 -0.1751 -0.7554
11549TIP3    H156062   1.175   5.348  15.973 -0.0977  0.1168 -0.0173
11549TIP3    H256063   1.247   5.215  15.970 -0.5032 -0.0837 -1.5588
11550TIP3   OH256064   2.682   6.639  11.621 -0.8744  0.7747 -0.7945
11550TIP3    H156065   2.704   6.579  11.550 -1.3804 -0.2811 -0.0836
11550TIP3    H256066   2.587   6.652  11.613 -1.0041  0.3180 -0.0734
11551TIP3   OH256067   1.053   2.645  13.988  0.0235 -0.0114 -0.3645
11551TIP3    H156068   1.129   2.703  13.985  0.4573 -0.4845  0.8231
11551TIP3    H256069   1.051   2.613  14.078 -1.5215 -0.1025 -0.4066
11552TIP3   OH256070   3.952   2.278  11.081  0.0849 -0.0770 -0.2369
11552TIP3    H156071   3.978   2.368  11.059  3.9579 -1.1089 -0.7448
11552TIP3    H256072   3.960   2.230  10.999 -1.4034 -1.0255  0.1377
11553TIP3   OH256073   0.349   4.461   5.211 -0.2140  0.8155  0.3099
11553TIP3    H156074   0.348   4.556   5.196  2.0768  1.3603  2.8965
11553TIP3    H256075   0.441   4.439   5.220 -0.6406 -1.8727 -0.9187
11554TIP3   OH256076   4.679   5.917   4.949 -0.5007 -0.1171 -0.7606
11554TIP3    H156077   4.646   5.971   4.876 -0.1957  0.0681 -0.7631
11554TIP3    H256078   4.639   5.831   4.935 -0.6971  0.0052 -0.9665
11555TIP3   OH256079   6.673   0.044   1.124  0.4946 -1.0626 -0.6827
11555TIP3    H156080   6.584   0.067   1.153  0.3054  0.7856 -2.5017
11555TIP3    H256081   6.668  -0.049   1.104 -0.8332 -1.1524 -0.0811
11556TIP3   OH256082   6.643   4.471  11.929 -0.3570  0.0809 -0.0055
11556TIP3    H156083   6.705   4.397  11.933 -0.2272  0.1891  0.0060
11556TIP3    H256084   6.686   4.540  11.979  1.3147  1.4860 -3.0624
11557TIP3   OH256085   4.749   6.231  13.510 -0.1264  0.6373  0.1166
11557TIP3    H156086   4.716   6.320  13.497  1.5177  1.4447  1.1159
11557TIP3    H256087   4.795   6.210  13.428 -1.0883  0.4140 -0.3821
11558TIP3   OH256088   0.979   4.234  11.770 -0.1422  0.1546  0.3679
11558TIP3    H156089   0.979   4.313  11.716  1.2793  0.9178  1.4131
11558TIP3    H256090   1.030   4.258  11.847 -0.7807 -1.3988  1.3153
11559TIP3   OH256091   2.769   1.991  17.240  0.0822  0.7192 -0.5060
11559TIP3    H156092   2.758   2.043  17.161 -3.1440 -0.1852 -0.7962
11559TIP3    H256093   2.680   1.973  17.270  1.1544  0.1896  2.8231
11560TIP3   OH256094   2.455   2.800  10.338  0.3714 -0.3621  0.6800
11560TIP3    H156095   2.545   2.770  10.350  0.3262 -0.0990  1.7582
11560TIP3    H256096   2.422   2.749  10.264  0.9325 -1.5329  1.2148
11561TIP3   OH256097   2.794   2.773   2.517 -0.5778  0.5029  0.1273
11561TIP3    H156098   2.744   2.699   2.552  0.1826 -0.6639 -1.1437
11561TIP3    H256099   2.885   2.747   2.528 -0.2978  1.2657 -0.3422
11562TIP3   OH256100   1.694   1.890   1.627 -0.1688 -0.2953  0.3238
11562TIP3    H156101   1.653   1.922   1.547 -0.5190  1.2127  1.0696
11562TIP3    H256102   1.692   1.794   1.619 -0.0767 -0.1713 -1.5026
11563TIP3   OH256103   1.263   1.681   2.060  0.2085 -0.2851  0.5134
11563TIP3    H156104   1.186   1.644   2.016 -0.8519  0.5313  1.6104
11563TIP3    H256105   1.238   1.686   2.152  0.5604  2.3758  0.5430
11564TIP3   OH256106   0.817   4.667  16.885  0.2878 -0.4034 -0.1738
11564TIP3    H156107   0.785   4.592  16.936  0.7156  0.1483  0.9458
11564TIP3    H256108   0.823   4.738  16.948 -0.9500  0.8513 -1.3971
11565TIP3   OH256109   6.538   3.020   1.935 -0.4770 -0.1852 -0.2465
11565TIP3    H156110   6.613   3.078   1.923 -0.1179 -0.9702 -2.2978
11565TIP3    H256111   6.464   3.079   1.950  0.3692  0.6365  0.8759
11566TIP3   OH256112   3.032   1.504  16.765 -0.4336  0.8703  0.7126
11566TIP3    H156113   2.995   1.511  16.677  0.0779  2.0462  0.5643
11566TIP3    H256114   3.016   1.414  16.791  0.3820  0.1670 -1.0387
11567TIP3   OH256115   1.023   4.102   3.562  0.2502 -0.2588  0.0645
11567TIP3    H156116   1.031   4.019   3.609 -0.9631 -0.0101  0.7525
11567TIP3    H256117   1.020   4.168   3.631 -0.8306  0.1757 -0.3866
11568TIP3   OH256118   4.392   5.915  15.702  0.4005 -0.2880  0.0731
11568TIP3    H156119   4.297   5.903  15.701  0.2718  0.3970  1.6342
11568TIP3    H256120   4.406   5.995  15.752  1.8798 -1.1237  1.0666
11569TIP3   OH256121   4.946   1.426   1.995  0.0869  0.2601 -0.4950
11569TIP3    H156122   4.914   1.502   1.947  0.4256  0.7540  0.0453
11569TIP3    H256123   4.929   1.352   1.937 -2.7549  0.3576  0.0669
11570TIP3   OH256124   1.866   1.766   0.997 -0.3695 -0.4267  0.7776
11570TIP3    H156125   1.817   1.718   1.063 -1.3417 -1.0262 -0.3265
11570TIP3    H256126   1.810   1.762   0.919 -0.4281  2.3914  0.5902
11571TIP3   OH256127   1.029   0.528   1.631  0.6543  0.3316  0.3018
11571TIP3    H156128   1.062   0.594   1.570 -1.0124  0.9206 -0.0342
11571TIP3    H256129   0.963   0.480   1.581  0.8700 -0.6956  0.9661
11572TIP3   OH256130   5.263   5.285   6.311 -0.0092 -0.4108  0.4070
11572TIP3    H156131   5.339   5.316   6.360  0.9441 -1.7376 -0.1563
11572TIP3    H256132   5.208   5.242   6.376 -0.5272  0.9446  0.8973
11573TIP3   OH256133   2.945   5.421  16.956 -0.6284  0.8613  0.2402
11573TIP3    H156134   2.851   5.405  16.951 -0.4117 -1.5830  1.9528
11573TIP3    H256135   2.984   5.333  16.954  1.5032  1.7250  1.0734
11574TIP3   OH256136   5.196   3.190  17.098  0.5654  0.2571 -0.2854
11574TIP3    H156137   5.277   3.168  17.052  1.4692  2.2324  0.2415
11574TIP3    H256138   5.164   3.107  17.133  1.7319 -0.7274 -1.4855
11575TIP3   OH256139   4.559   6.116   4.771  0.1375  0.0941  0.6024
11575TIP3    H156140   4.505   6.108   4.692 -0.7603  0.5788  1.1471
11575TIP3    H256141   4.497   6.105   4.843  1.1778 -1.8877  1.2663
11576TIP3   OH256142   3.069   0.080   3.901 -0.5615 -0.1876 -0.0463
11576TIP3    H156143   3.116   0.096   3.819 -0.5967 -0.2661 -0.0820
11576TIP3    H256144   3.130   0.106   3.969 -0.2244 -0.8928 -0.0720
11577TIP3   OH256145   1.025   4.750  15.175  0.2098  0.1376 -0.3742
11577TIP3    H156146   0.937   4.711  15.179  0.3507 -0.2574 -0.9258
11577TIP3    H256147   1.010   4.843  15.191  0.0137 -0.2712  2.2372
11578TIP3   OH256148   4.793   5.266   0.840 -0.7407  0.1694  0.0611
11578TIP3    H156149   4.881   5.273   0.803 -0.8868  0.5008 -0.2273
11578TIP3    H256150   4.734   5.280   0.765 -1.0475 -1.3434 -0.0041
11579TIP3   OH256151   2.272   2.304  13.899 -0.1907 -0.0822  0.3604
11579TIP3    H156152   2.367   2.300  13.884 -0.2244  1.5039 -0.4839
11579TIP3    H256153   2.258   2.254  13.979  1.4858  0.3920  0.9909
11580TIP3   OH256154   4.374   0.476  16.226 -0.1072  0.0919  0.2281
11580TIP3    H156155   4.285   0.447  16.243 -0.1976  0.0322 -0.3491
11580TIP3    H256156   4.430   0.403  16.252 -0.3296 -0.6119 -1.1944
11581TIP3   OH256157   4.431   4.696  17.063 -0.4599 -0.6661  0.0030
11581TIP3    H156158   4.362   4.724  17.003 -0.9402 -1.2745  0.2562
11581TIP3    H256159   4.446   4.604  17.039  1.4971 -0.0862 -1.2150
11582TIP3   OH256160   1.844   2.166   0.590  0.1218  0.1349  0.3340
11582TIP3    H156161   1.821   2.235   0.652 -0.0373 -0.0733  0.5084
11582TIP3    H256162   1.874   2.213   0.512  0.7159  0.3970  0.7096
11583TIP3   OH256163   0.458   6.379  15.364  0.6759  0.1639 -0.3925
11583TIP3    H156164   0.544   6.420  15.358 -0.0401  1.7492 -0.4372
11583TIP3    H256165   0.419   6.392  15.278 -0.4004  1.3676  0.2450
11584TIP3   OH256166   0.669   3.099  12.728 -0.2906 -0.8551  0.5956
11584TIP3    H156167   0.701   3.189  12.718  1.8559 -1.3568  2.1405
11584TIP3    H256168   0.690   3.077  12.819 -0.1984 -3.1218  0.0728
11585TIP3   OH256169   5.351   5.484   1.084 -1.0421  0.3424 -0.1988
11585TIP3    H156170   5.419   5.461   1.148 -1.5003  1.5188  0.7527
11585TIP3    H256171   5.399   5.506   1.005 -0.2233  1.9283  0.6960
11586TIP3   OH256172   3.493   4.372  11.290 -0.2066 -0.1091  0.6322
11586TIP3    H156173   3.436   4.437  11.249 -0.7397  0.6224  2.4390
11586TIP3    H256174   3.568   4.422  11.322  0.3055 -0.7011  0.3914
11587TIP3   OH256175   4.077   5.778   4.399  0.2967 -0.2233  0.2184
11587TIP3    H156176   4.003   5.776   4.340  1.0067 -1.6226 -0.6910
11587TIP3    H256177   4.149   5.816   4.348  1.0810 -2.0101 -0.0890
11588TIP3   OH256178   1.429   0.589  17.135  0.0339 -0.1574  0.1370
11588TIP3    H156179   1.342   0.549  17.123 -0.1860  0.2557  0.3274
11588TIP3    H256180   1.489   0.515  17.135 -0.5741 -0.7474  2.8334
11589TIP3   OH256181   5.709   1.016   4.878 -0.1933  0.1905 -0.5069
11589TIP3    H156182   5.618   0.995   4.900 -0.0307 -0.3727 -0.3564
11589TIP3    H256183   5.761   0.951   4.926  0.1879 -0.8235 -2.1996
11590TIP3   OH256184   4.841   0.871  15.980 -0.8424 -0.0852  0.2832
11590TIP3    H156185   4.764   0.873  15.923 -0.2422 -1.1048 -0.5959
11590TIP3    H256186   4.861   0.963  15.997 -1.7761  0.2084 -0.1269
11591TIP3   OH256187   4.058   1.340   2.914 -0.9911  0.1874  0.6038
11591TIP3    H156188   4.053   1.252   2.877 -0.8397  0.6789 -0.6091
11591TIP3    H256189   4.117   1.388   2.855 -1.5294  1.2658  0.9172
11592TIP3   OH256190   3.966   5.371  16.285  0.1824  0.0405 -0.2883
11592TIP3    H156191   3.874   5.388  16.262  0.6729  2.4808 -0.6326
11592TIP3    H256192   4.014   5.382  16.203  0.8956 -0.5472  0.0345
11593TIP3   OH256193   4.826   1.312  12.042  0.6406  0.4583  0.0395
11593TIP3    H156194   4.869   1.239  11.997  0.1410  0.0199  0.2636
11593TIP3    H256195   4.792   1.274  12.123  0.1694  0.8818  0.0437
11594TIP3   OH256196   2.878   3.669   3.742  0.1085  0.5926  0.4104
11594TIP3    H156197   2.913   3.728   3.810  0.0356  2.5565 -1.1561
11594TIP3    H256198   2.946   3.667   3.675  0.0087 -0.9975  0.3253
11595TIP3   OH256199   3.467   0.022   3.702 -0.3333 -0.4148 -0.3153
11595TIP3    H156200   3.546   0.064   3.668  0.6144 -2.0897 -0.2804
11595TIP3    H256201   3.441   0.076   3.776  0.9153  0.0500 -0.1872
11596TIP3   OH256202   6.603   5.901  17.121 -0.4328 -0.2781  0.6343
11596TIP3    H156203   6.613   5.835  17.052  1.1972  0.4807  0.1084
11596TIP3    H256204   6.514   5.934  17.108 -0.5236 -0.8829 -0.4491
11597TIP3   OH256205   1.174   5.708   3.075  0.4066  0.5352 -0.2090
11597TIP3    H156206   1.166   5.753   2.991 -0.2757  1.1496  0.1787
11597TIP3    H256207   1.252   5.747   3.116  1.8929 -1.0883 -1.3289
11598TIP3   OH256208   2.757   6.443  13.786  0.4854  0.3033  0.2144
11598TIP3    H156209   2.810   6.364  13.788 -0.5262 -0.5119 -1.9941
11598TIP3    H256210   2.706   6.441  13.867  1.2493 -0.7300  0.6840
11599TIP3   OH256211   6.222   6.363  16.212 -0.7330 -0.9995  0.5114
11599TIP3    H156212   6.246   6.413  16.133  1.0029  1.5617  2.4936
11599TIP3    H256213   6.285   6.291  16.214 -0.1208 -0.4906  0.0792
11600TIP3   OH256214   4.603   4.883  16.461 -0.7279 -0.1970 -0.2057
11600TIP3    H156215   4.678   4.891  16.402 -1.2831 -2.0107 -1.2384
11600TIP3    H256216   4.633   4.919  16.544  0.4577  1.3802 -1.2603
11601TIP3   OH256217   2.592   1.262  14.242  0.2109  0.8413  0.0493
11601TIP3    H156218   2.570   1.313  14.320 -0.0361  0.2300  0.3843
11601TIP3    H256219   2.645   1.322  14.189 -0.2432  1.5127  0.3359
11602TIP3   OH256220   3.752   0.792  15.432  0.0735 -0.4519  0.4713
11602TIP3    H156221   3.730   0.699  15.426 -1.1326 -0.2305  1.1070
11602TIP3    H256222   3.786   0.815  15.346  1.2250 -1.6749  0.5612
11603TIP3   OH256223   2.579   1.014   1.329  0.6028  0.1494 -0.3829
11603TIP3    H156224   2.542   1.017   1.240 -1.3859 -2.6217  0.2164
11603TIP3    H256225   2.506   1.036   1.386  1.2875 -0.1888  0.6483
11604TIP3   OH256226   1.714   1.319  15.865 -0.4899  0.2309  0.4941
11604TIP3    H156227   1.750   1.232  15.881 -2.6150 -0.9844 -0.8644
11604TIP3    H256228   1.758   1.349  15.785  1.0067  0.9080  1.5326
11605TIP3   OH256229   2.755   5.407  11.710  0.1314  0.0646  0.3296
11605TIP3    H156230   2.846   5.383  11.725 -0.0923 -0.5066  0.8454
11605TIP3    H256231   2.757   5.498  11.682  0.6763  0.9308  2.9474
11606TIP3   OH256232   5.905   4.793  16.321 -0.4718 -1.2663 -0.2026
11606TIP3    H156233   5.938   4.865  16.375 -1.4329 -0.8107 -0.2020
11606TIP3    H256234   5.888   4.723  16.384 -1.9579 -0.6063  0.1875
11607TIP3   OH256235   5.044   3.132   1.375  0.1924 -0.4263  0.0810
11607TIP3    H156236   5.056   3.045   1.412 -0.4811 -0.3204  0.5656
11607TIP3    H256237   5.010   3.116   1.287 -0.0544 -0.6476  0.2158
11608TIP3   OH256238   3.639   6.644  11.838 -0.1467 -0.1457 -0.2831
11608TIP3    H156239   3.671   6.711  11.777  1.5408 -0.7255 -0.0755
11608TIP3    H256240   3.584   6.693  11.900 -0.4309  0.7345 -1.1941
11609TIP3   OH256241   3.278   4.247  16.867 -0.2626 -0.8413 -0.0326
11609TIP3    H156242   3.229   4.242  16.785 -0.0059  0.4287 -0.2951
11609TIP3    H256243   3.219   4.210  16.933 -0.2883 -2.3074 -0.8486
11610TIP3   OH256244   1.454   1.853  13.300 -0.3395 -0.2007 -0.0703
11610TIP3    H156245   1.513   1.803  13.356 -0.7196 -0.0503  0.4682
11610TIP3    H256246   1.376   1.797  13.292  0.5091 -1.2059 -2.2004
11611TIP3   OH256247   4.875   2.532   2.301  0.2014 -0.3439 -1.0221
11611TIP3    H156248   4.940   2.584   2.254 -0.2425  0.4974 -0.7318
11611TIP3    H256249   4.923   2.456   2.332  1.0139  0.1829 -0.9549
11612TIP3   OH256250   3.406   6.748   1.969 -0.1808 -0.7272  0.1823
11612TIP3    H156251   3.388   6.657   1.991  1.4468 -1.2965 -0.7180
11612TIP3    H256252   3.331   6.775   1.916 -4.0034  0.5194  5.3503
11613TIP3   OH256253   3.293   2.974  15.034 -0.0683  0.0658 -0.3290
11613TIP3    H156254   3.204   2.965  15.068 -0.2493  0.0353 -0.7965
11613TIP3    H256255   3.282   3.020  14.951  0.4027  0.4960 -0.1580
11614TIP3   OH256256   0.599   4.082   5.938 -0.2156 -0.1591  0.3212
11614TIP3    H156257   0.571   4.094   6.029  0.0149  2.3567  0.1263
11614TIP3    H256258   0.691   4.108   5.937  0.4621 -2.3390 -0.2590
11615TIP3   OH256259   4.631   6.254   0.212  0.2244 -0.1874 -0.3051
11615TIP3    H156260   4.707   6.213   0.170 -1.0267 -1.8242 -1.0565
11615TIP3    H256261   4.624   6.210   0.297  0.5443  0.5178  0.1030
11616TIP3   OH256262   4.423   0.814   6.065 -0.5084 -0.2525  0.5551
11616TIP3    H156263   4.480   0.786   6.136 -1.0715 -0.4079  0.9557
11616TIP3    H256264   4.341   0.768   6.081 -0.9984  0.5598  0.4284
11617TIP3   OH256265   2.946   6.390   0.431 -0.6787 -0.3776 -0.8546
11617TIP3    H156266   3.018   6.340   0.393 -1.1910 -0.9132 -1.1398
11617TIP3    H256267   2.909   6.333   0.498  1.3372  1.2190  1.8021
11618TIP3   OH256268   6.133   6.576  14.142 -0.1983  0.2124  0.1104
11618TIP3    H156269   6.188   6.498  14.140 -1.3617 -0.6726  0.8417
11618TIP3    H256270   6.170   6.630  14.212  1.8083  1.3012 -1.6887
11619TIP3   OH256271   6.331   1.516  13.711  0.6637  0.3736 -0.3589
11619TIP3    H156272   6.286   1.513  13.627  2.8377  1.7479 -1.6471
11619TIP3    H256273   6.411   1.565  13.695  1.6465 -0.1469  2.3072
11620TIP3   OH256274   3.666   2.938   5.384 -0.1721  0.4226 -0.2094
11620TIP3    H156275   3.736   2.877   5.405 -0.9155 -0.4828 -0.3125
11620TIP3    H256276   3.704   3.025   5.399  0.8215 -0.0681  0.1514
11621TIP3   OH256277   2.107   5.883   3.957  0.0741  0.2484  0.3637
11621TIP3    H156278   2.086   5.891   4.050  1.2205  1.0662  0.5738
11621TIP3    H256279   2.125   5.789   3.945 -1.1483 -0.0450  0.7062
11622TIP3   OH256280   6.592   3.055  15.006 -0.3797 -0.2228 -0.1643
11622TIP3    H156281   6.535   3.113  14.956 -0.6053 -0.5764 -0.3235
11622TIP3    H256282   6.618   2.987  14.944 -0.3045 -0.4200  0.0820
11623TIP3   OH256283   1.616   6.692  15.342  0.2920 -0.0956 -0.5784
11623TIP3    H156284   1.629   6.684  15.437  1.1747 -1.0042 -0.7587
11623TIP3    H256285   1.655   6.777  15.319  1.1252 -0.3942 -0.2949
11624TIP3   OH256286   3.341   3.542   5.790  0.7590 -0.6629 -0.5157
11624TIP3    H156287   3.351   3.475   5.723  0.7734 -0.1733 -1.0062
11624TIP3    H256288   3.298   3.615   5.745  0.4321 -0.4698  0.0941
11625TIP3   OH256289   5.873   3.382   0.416  0.4002  0.5351  0.0738
11625TIP3    H156290   5.823   3.367   0.336 -1.1095 -3.2494  1.4943
11625TIP3    H256291   5.962   3.401   0.386 -0.4254  0.7499 -2.4506
11626TIP3   OH256292   2.344   4.490  16.194  0.1181 -0.2029 -0.0214
11626TIP3    H156293   2.328   4.549  16.120 -0.2783  0.9608  0.9491
11626TIP3    H256294   2.377   4.548  16.263 -2.8794 -0.5788  1.9123
11627TIP3   OH256295   1.255   2.261  12.499  0.4635 -0.3274 -0.0751
11627TIP3    H156296   1.185   2.279  12.436  0.9277 -0.9543 -0.7849
11627TIP3    H256297   1.332   2.303  12.462  0.3385  0.9317  1.0375
11628TIP3   OH256298   3.796   5.725   2.652 -0.1573 -0.1262  0.2399
11628TIP3    H156299   3.880   5.732   2.605 -0.6216  2.6957 -0.3516
11628TIP3    H256300   3.821   5.704   2.742  1.3659  1.9137  0.3724
11629TIP3   OH256301   4.979   3.273  15.446 -0.1845 -0.4070 -0.0157
11629TIP3    H156302   4.996   3.365  15.426 -1.2808 -0.0289  0.6936
11629TIP3    H256303   5.043   3.225  15.394  0.7720  0.7790  0.0133
11630TIP3   OH256304   3.673   6.199   4.118  0.0737 -0.1369 -0.0810
11630TIP3    H156305   3.676   6.294   4.117 -0.9282 -0.0912 -1.1729
11630TIP3    H256306   3.710   6.172   4.034  2.5440 -0.8459  1.1471
11631TIP3   OH256307   6.219   5.836   5.468  0.4234 -0.5802 -0.2520
11631TIP3    H156308   6.184   5.916   5.430 -0.7132 -1.5218 -1.2960
11631TIP3    H256309   6.173   5.766   5.422  1.9987 -1.8563  0.0266
11632TIP3   OH256310   0.335   1.089  12.937  0.7925  0.5788 -0.4385
11632TIP3    H156311   0.404   1.155  12.937 -0.9799  2.5326 -1.0405
11632TIP3    H256312   0.260   1.133  12.975 -0.5071 -1.0828 -0.9707
11633TIP3   OH256313   4.887   1.876   6.643  0.3413  0.1266  0.1810
11633TIP3    H156314   4.903   1.783   6.660  1.5943  0.1939 -0.5451
11633TIP3    H256315   4.870   1.913   6.730  1.5361 -0.4638  0.6933
11634TIP3   OH256316   4.049   4.011   6.589 -0.1803 -0.1763  0.6456
11634TIP3    H156317   3.991   3.952   6.638 -1.6708  0.6373 -0.0779
11634TIP3    H256318   4.136   3.994   6.625 -1.0864 -0.2659  2.9369
11635TIP3   OH256319   0.256   4.561   3.912  0.0829 -0.2696 -0.1111
11635TIP3    H156320   0.178   4.600   3.873 -0.1002 -0.6140 -0.0915
11635TIP3    H256321   0.271   4.482   3.860 -0.0053 -0.5890  0.3511
11636TIP3   OH256322   1.328   0.534  16.618  0.2057 -0.5607 -0.1738
11636TIP3    H156323   1.282   0.469  16.564 -2.6216  1.5331 -0.5040
11636TIP3    H256324   1.289   0.524  16.705 -0.9722  1.1816 -0.4379
11637TIP3   OH256325   5.903   5.121   5.830 -0.4662 -0.2735 -0.0688
11637TIP3    H156326   5.955   5.112   5.910 -1.0771 -1.5312  0.2053
11637TIP3    H256327   5.887   5.215   5.823 -0.4989 -0.1437  1.3521
11638TIP3   OH256328   3.788   0.082   0.843  0.1589 -0.6817  0.0104
11638TIP3    H156329   3.735   0.158   0.867  0.2277 -1.2161  2.0675
11638TIP3    H256330   3.853   0.117   0.782 -0.5265  0.6670  0.0102
11639TIP3   OH256331   6.397   6.543  16.439 -0.0715 -0.3955  0.2897
11639TIP3    H156332   6.319   6.574  16.391  1.0833  0.2118 -1.2954
11639TIP3    H256333   6.390   6.448  16.437 -0.1551 -0.3771 -0.9466
11640TIP3   OH256334   3.582   5.990   4.363 -0.0309 -0.0884  0.5041
11640TIP3    H156335   3.610   6.042   4.288 -0.1027 -1.5402 -0.5658
11640TIP3    H256336   3.503   5.945   4.333  1.2518 -2.5637  0.5351
11641TIP3   OH256337   0.687   5.321  12.206 -0.4245 -0.5611 -0.6447
11641TIP3    H156338   0.647   5.408  12.197 -0.2961 -0.3702  0.4900
11641TIP3    H256339   0.756   5.320  12.139 -0.4009  0.2278 -0.6471
11642TIP3   OH256340   1.692   5.996  14.488  0.6645 -0.4011 -0.2294
11642TIP3    H156341   1.769   6.053  14.495 -0.3619  1.0677 -0.4195
11642TIP3    H256342   1.619   6.056  14.471 -0.4921 -1.7764 -0.3181
11643TIP3   OH256343   4.226   4.416  14.444 -0.8631 -0.1427  0.5536
11643TIP3    H156344   4.296   4.480  14.435  0.4602 -1.5364  0.5620
11643TIP3    H256345   4.172   4.450  14.515 -0.0277  0.7950  0.7657
11644TIP3   OH256346   4.230   2.768  16.162 -0.1843  0.2637  0.1858
11644TIP3    H156347   4.274   2.683  16.160 -1.1128 -0.2396 -1.8157
11644TIP3    H256348   4.275   2.817  16.231  2.3973 -0.7987 -0.6207
11645TIP3   OH256349   1.750   2.622   5.632  0.1013 -0.1055 -0.2102
11645TIP3    H156350   1.700   2.598   5.710  1.0920 -1.5244  0.0338
11645TIP3    H256351   1.775   2.713   5.646 -0.8455  0.0568  0.5116
11646TIP3   OH256352   6.166   3.727  12.749  0.2736 -0.0311 -0.0684
11646TIP3    H156353   6.076   3.742  12.722  0.2081  1.4260  0.8282
11646TIP3    H256354   6.215   3.801  12.712  1.4164 -1.5715 -1.8152
11647TIP3   OH256355   4.251   0.648   2.652  0.2943  0.4432 -0.0748
11647TIP3    H156356   4.337   0.607   2.646 -0.2440 -0.5546 -2.0153
11647TIP3    H256357   4.264   0.738   2.623  0.8971  0.6909  0.9331
11648TIP3   OH256358   0.588   4.826  11.499  0.0456  0.1005 -0.2587
11648TIP3    H156359   0.528   4.899  11.516 -0.4843 -0.1722 -0.8759
11648TIP3    H256360   0.675   4.864  11.506 -0.2256  0.8837 -0.8962
11649TIP3   OH256361   3.977   5.411   2.858 -0.1276 -0.2347  0.3414
11649TIP3    H156362   3.987   5.421   2.764  3.4477 -0.0379  0.5950
11649TIP3    H256363   3.961   5.499   2.890  0.8967  0.0651  0.0643
11650TIP3   OH256364   5.500   0.421   1.172 -0.4241  0.2197 -0.0625
11650TIP3    H156365   5.596   0.412   1.175 -0.5532 -1.1756  1.0692
11650TIP3    H256366   5.470   0.375   1.250 -2.1751 -1.7168 -1.7725
11651TIP3   OH256367   1.435   2.643  11.126  0.0539 -0.3730 -0.4400
11651TIP3    H156368   1.390   2.688  11.198  0.7614 -1.4720  0.7241
11651TIP3    H256369   1.369   2.634  11.058 -1.0344 -0.5256  0.6083
11652TIP3   OH256370   3.166   5.722   5.242 -0.0086  0.0907  0.5868
11652TIP3    H156371   3.168   5.761   5.329  0.5234  1.6724 -0.0991
11652TIP3    H256372   3.252   5.682   5.232  0.6796  1.6010  0.0933
11653TIP3   OH256373   5.447   2.321   6.768 -0.5752  0.2033 -0.8060
11653TIP3    H156374   5.524   2.288   6.814 -2.0913 -0.7749  1.1666
11653TIP3    H256375   5.454   2.416   6.773  0.2312  0.1152 -0.1496
11654TIP3   OH256376   3.708   2.045  14.719 -0.0079  0.9158  0.1892
11654TIP3    H156377   3.801   2.068  14.707 -0.5150  2.9732 -0.1441
11654TIP3    H256378   3.689   1.985  14.647  1.7083 -1.8403  1.8171
11655TIP3   OH256379   3.967   2.039  14.209  0.8906 -0.1700  0.0563
11655TIP3    H156380   3.981   2.007  14.119  2.4949 -1.6594  0.7835
11655TIP3    H256381   4.025   1.985  14.263  2.5399  2.8660  1.6138
11656TIP3   OH256382   0.920   5.761   3.194 -0.1580 -0.1142 -0.1636
11656TIP3    H156383   0.994   5.742   3.136  0.3527  1.4996 -0.0846
11656TIP3    H256384   0.960   5.797   3.273 -1.0111  0.7506 -0.1109
11657TIP3   OH256385   0.951   6.736  12.945 -0.0830  0.0479 -0.5766
11657TIP3    H156386   0.948   6.821  12.901 -0.3672 -0.8102 -2.3175
11657TIP3    H256387   0.872   6.691  12.915  0.2394 -0.9680  0.0347
11658TIP3   OH256388   3.868   1.751  17.113  0.1631  1.1677  0.3715
11658TIP3    H156389   3.816   1.827  17.141  0.5194  2.6361 -2.5443
11658TIP3    H256390   3.809   1.702  17.056  0.7865  0.7484  0.0855
11659TIP3   OH256391   5.927   6.485   1.695 -0.1994 -0.0645  0.5800
11659TIP3    H156392   5.842   6.521   1.722  0.0287  0.7052  0.3136
11659TIP3    H256393   5.921   6.480   1.600  0.9655  2.4862  0.2978
11660TIP3   OH256394   3.195   4.542  15.713  0.1178  0.1535 -0.5303
11660TIP3    H156395   3.174   4.577  15.627 -0.5204 -0.9989 -0.8749
11660TIP3    H256396   3.114   4.554  15.764  0.1158 -0.1790 -0.4499
11661TIP3   OH256397   6.112   3.945  17.056  0.9259  0.1961 -0.2023
11661TIP3    H156398   6.076   4.031  17.037 -1.4985 -0.5918  0.4153
11661TIP3    H256399   6.035   3.889  17.068  2.4115 -1.9066  0.0837
11662TIP3   OH256400   5.808   0.609  11.313 -0.3132 -0.6462  0.0955
11662TIP3    H156401   5.790   0.665  11.238  0.3347  0.6590  0.8910
11662TIP3    H256402   5.725   0.607  11.362 -0.8144 -1.7063 -0.7498
11663TIP3   OH256403   1.229   4.223   3.067 -0.0345 -0.3695 -0.1310
11663TIP3    H156404   1.146   4.228   3.021 -0.7202 -0.0151  1.0994
11663TIP3    H256405   1.219   4.150   3.129 -0.7770  1.7453  2.4599
11664TIP3   OH256406   6.294   1.436  12.705 -0.5828  0.4208  0.2718
11664TIP3    H156407   6.377   1.437  12.656 -1.6065  0.8284 -1.5360
11664TIP3    H256408   6.278   1.343  12.722  0.3804  0.3554  0.9367
11665TIP3   OH256409   6.485   1.979   1.269 -0.2637  0.0024  0.0988
11665TIP3    H156410   6.514   1.903   1.219  0.0434  0.9655 -1.2656
11665TIP3    H256411   6.538   1.977   1.348  0.2322 -0.8257 -0.2410
11666TIP3   OH256412   1.301   4.422   5.211 -0.1187  0.1364 -0.3481
11666TIP3    H156413   1.302   4.360   5.284 -2.2475  0.9629  0.4564
11666TIP3    H256414   1.362   4.384   5.147  0.4277 -1.5436  1.0813
11667TIP3   OH256415   5.073   4.048   5.835 -0.3107 -0.2695 -0.0782
11667TIP3    H156416   5.080   4.046   5.931  1.2087  0.7557 -0.1321
11667TIP3    H256417   5.164   4.046   5.805 -0.7421  0.3261 -1.4814
11668TIP3   OH256418   4.069   6.570   2.102  0.0348  0.0326  0.7541
11668TIP3    H156419   4.142   6.632   2.109 -0.0868  0.2961 -0.2003
11668TIP3    H256420   4.012   6.607   2.035 -1.3812  0.2154  2.0092
11669TIP3   OH256421   4.177   1.748  15.004 -0.1677 -0.3195  0.0415
11669TIP3    H156422   4.231   1.708  14.936 -0.3967  1.0047 -0.9620
11669TIP3    H256423   4.119   1.677  15.032  1.4021 -1.5045  0.4607
11670TIP3   OH256424   1.985   3.484   2.064 -0.0199  0.0599 -0.4955
11670TIP3    H156425   1.982   3.553   2.131  1.2249 -0.0704 -0.2846
11670TIP3    H256426   1.943   3.409   2.104  0.6230  0.0186  0.1145
11671TIP3   OH256427   6.184   1.523  15.168  0.4773 -0.4935 -0.1154
11671TIP3    H156428   6.092   1.545  15.154  0.1421 -1.7143  0.1010
11671TIP3    H256429   6.230   1.567  15.096  0.2446  3.2859  1.7859
11672TIP3   OH256430   0.180   1.991   5.716  0.0540  0.4474 -0.0159
11672TIP3    H156431   0.136   1.908   5.700  1.2154 -0.4068  1.0279
11672TIP3    H256432   0.256   1.968   5.769 -0.1286  2.2853  1.1615
11673TIP3   OH256433   1.986   6.573   3.467 -0.3411 -0.0631 -0.4876
11673TIP3    H156434   1.958   6.533   3.384 -2.2257  0.2845 -0.0742
11673TIP3    H256435   1.904   6.594   3.512  0.6231 -1.2284  1.9714
11674TIP3   OH256436   5.886   0.019  13.337 -0.6315 -0.2173 -0.1299
11674TIP3    H156437   5.959   0.066  13.378 -0.6595 -0.2917  0.0032
11674TIP3    H256438   5.859  -0.045  13.402 -1.5167  0.5100  0.2516
11675TIP3   OH256439   3.058   5.275   2.064 -0.5601  0.0270  0.3544
11675TIP3    H156440   3.012   5.207   2.112 -0.8024  0.1716  0.3310
11675TIP3    H256441   2.988   5.327   2.024 -0.3453 -0.5635 -0.8183
11676TIP3   OH256442   3.275   4.326   2.494 -0.1145 -0.3635 -0.0686
11676TIP3    H156443   3.201   4.333   2.555  1.6856 -5.0021  3.1768
11676TIP3    H256444   3.336   4.393   2.523 -1.0976  0.4342  0.2395
11677TIP3   OH256445   6.262   0.429  15.599  0.1391 -0.8239 -0.1749
11677TIP3    H156446   6.220   0.510  15.629  1.9012  0.1770 -0.2961
11677TIP3    H256447   6.234   0.420  15.508 -1.5434 -1.3879  0.3671
11678TIP3   OH256448   6.187   2.397   4.181  0.3506  0.1139 -0.5365
11678TIP3    H156449   6.141   2.326   4.226 -0.3239  1.4629  0.9699
11678TIP3    H256450   6.279   2.370   4.183  0.1895 -0.4098  0.6102
11679TIP3   OH256451   0.027   4.387   1.312  0.2771  0.7556  0.0608
11679TIP3    H156452  -0.012   4.328   1.376  0.5704  1.2270  0.6845
11679TIP3    H256453   0.070   4.454   1.364  1.1091  0.7734 -0.6293
11680TIP3   OH256454   3.010   0.505  12.777  0.4254  0.1684 -0.2341
11680TIP3    H156455   2.916   0.516  12.763  0.1262 -1.6785  0.0410
11680TIP3    H256456   3.029   0.417  12.745  1.9188  0.2191  0.4211
11681TIP3   OH256457   6.560   6.055  15.105  0.3490 -0.1002 -0.4815
11681TIP3    H156458   6.471   6.080  15.081  0.2818 -0.3946 -0.5537
11681TIP3    H256459   6.557   5.959  15.109  0.4616 -0.0741  0.3088
11682TIP3   OH256460   6.163   3.082  16.526  0.3697 -0.2164 -0.0338
11682TIP3    H156461   6.214   3.006  16.555  1.3944 -0.1371 -1.5158
11682TIP3    H256462   6.104   3.047  16.459  0.1519  0.1161 -0.0174
11683TIP3   OH256463   0.825   5.045   1.365 -0.4174  0.2016 -0.0357
11683TIP3    H156464   0.794   5.049   1.275 -0.9799 -0.7565  0.1104
11683TIP3    H256465   0.920   5.037   1.357 -0.5565 -1.0452 -0.5726
11684TIP3   OH256466   0.798   4.052  12.018  0.0990  0.2357 -0.2550
11684TIP3    H156467   0.845   4.092  11.945  0.2537 -1.3367 -1.0517
11684TIP3    H256468   0.710   4.089  12.013  0.2489  0.5129 -0.9421
11685TIP3   OH256469   6.253   6.191  15.667  0.1039 -0.1093 -0.1696
11685TIP3    H156470   6.304   6.271  15.676 -0.3563  0.1409  0.1874
11685TIP3    H256471   6.315   6.121  15.688 -0.2972  0.2948  2.7838
11686TIP3   OH256472   4.660   4.572   3.840  0.9205  0.0016 -0.1694
11686TIP3    H156473   4.608   4.633   3.892  0.0477 -1.7969  1.1406
11686TIP3    H256474   4.668   4.615   3.754 -0.3260  1.5815  0.4586
11687TIP3   OH256475   2.530   1.690   1.211  0.6129  0.2618 -0.4938
11687TIP3    H156476   2.542   1.618   1.272 -1.1776 -2.1858 -2.8107
11687TIP3    H256477   2.437   1.712   1.218  0.2423 -0.4123 -2.5532
11688TIP3   OH256478   0.659   0.931   3.943 -0.5776  0.4875 -0.0973
11688TIP3    H156479   0.724   0.906   3.877 -1.3291 -0.4009 -0.5225
11688TIP3    H256480   0.640   0.850   3.990 -1.0756  0.8224  0.2891
11689TIP3   OH256481   6.474   5.216   0.378 -0.2450  0.0509 -0.5810
11689TIP3    H156482   6.446   5.139   0.427 -0.7371  1.5952  1.7519
11689TIP3    H256483   6.394   5.265   0.362  0.2670  1.0070 -0.3124
11690TIP3   OH256484   5.434   3.057  16.660 -0.1088  0.4330 -0.6733
11690TIP3    H156485   5.509   2.998  16.655  0.4408  1.1509 -1.3129
11690TIP3    H256486   5.462   3.135  16.611 -1.4976  0.4857 -1.4267
11691TIP3   OH256487   5.950   6.294   0.252 -0.2071 -0.2174 -0.5890
11691TIP3    H156488   6.021   6.230   0.250  0.1522  0.0826  1.0189
11691TIP3    H256489   5.874   6.245   0.283  0.0049  0.0421  0.3889
11692TIP3   OH256490   4.566   3.639   2.584 -0.0017  0.2541  0.1765
11692TIP3    H156491   4.574   3.733   2.570 -1.1219  0.5764  1.4506
11692TIP3    H256492   4.654   3.611   2.611 -0.4654  1.7825  4.0157
11693TIP3   OH256493   2.381   1.298   3.736 -0.4539  0.1717 -0.0881
11693TIP3    H156494   2.287   1.313   3.743 -0.4795  1.0152 -1.7884
11693TIP3    H256495   2.399   1.231   3.802 -2.2679 -0.1414  0.1552
11694TIP3   OH256496   0.119   2.023  16.778 -0.3549 -0.4561 -0.2630
11694TIP3    H156497   0.156   2.005  16.865  0.9982  0.4464 -0.6120
11694TIP3    H256498   0.028   1.995  16.784 -0.2359 -0.5768  1.3939
11695TIP3   OH256499   6.255   6.736  12.596  0.2927 -0.4956  0.1160
11695TIP3    H156500   6.210   6.791  12.660  0.0712 -1.7862  1.1243
11695TIP3    H256501   6.294   6.666  12.649  1.3023 -0.8139 -1.0231
11696TIP3   OH256502   1.096   2.164   4.583  0.2840 -0.5373 -0.0883
11696TIP3    H156503   1.047   2.206   4.513  0.2808  0.9574  0.7865
11696TIP3    H256504   1.150   2.099   4.538 -1.6450 -1.4766 -1.1846
11697TIP3   OH256505   1.993   6.120   3.906 -0.0680 -0.1381  0.2158
11697TIP3    H156506   2.046   6.045   3.933  2.2661  1.3376 -0.0065
11697TIP3    H256507   2.021   6.191   3.964 -1.6157  0.7955 -0.1353
11698TIP3   OH256508   6.412   2.223   5.817 -0.8268  0.5533  0.1453
11698TIP3    H156509   6.462   2.189   5.891 -1.3042  0.8350  0.6136
11698TIP3    H256510   6.326   2.246   5.855 -1.1805  0.4208 -0.5576
11699TIP3   OH256511   3.564   4.410   0.335  0.1046 -1.0573  0.0290
11699TIP3    H156512   3.657   4.397   0.355  0.1024 -0.2324  0.6499
11699TIP3    H256513   3.564   4.470   0.261  0.1001  1.7591  2.1414
11700TIP3   OH256514   4.201   1.341  14.739  0.3762 -0.4226 -0.1975
11700TIP3    H156515   4.151   1.378  14.812  1.4793 -1.0101  0.8857
11700TIP3    H256516   4.232   1.257  14.771  0.9233 -0.6721 -1.3327
11701TIP3   OH256517   6.094   1.714   2.264 -0.5239 -0.2878 -0.1344
11701TIP3    H156518   6.027   1.755   2.319 -2.5629 -2.3870 -0.8975
11701TIP3    H256519   6.046   1.653   2.208  1.9648 -1.3653 -1.2662
11702TIP3   OH256520   0.130   3.115   2.733  0.1853  0.0239  0.0214
11702TIP3    H156521   0.080   3.178   2.786 -0.7342 -0.6769  0.0148
11702TIP3    H256522   0.214   3.108   2.777 -0.4956 -0.3961  1.2905
11703TIP3   OH256523   3.408   3.043  12.192 -0.3888  0.5895  0.2237
11703TIP3    H156524   3.409   2.969  12.254  0.0147  1.1123  0.8510
11703TIP3    H256525   3.368   3.007  12.113  0.3119 -0.4673  0.3193
11704TIP3   OH256526   0.221   6.319   2.463 -0.2174  0.2843 -0.0364
11704TIP3    H156527   0.304   6.359   2.434 -0.4992  0.2585 -0.9003
11704TIP3    H256528   0.244   6.228   2.481 -0.8272 -0.9556 -4.4077
11705TIP3   OH256529   3.017   3.346  13.491  0.0131 -0.5963 -0.2556
11705TIP3    H156530   3.018   3.255  13.461 -1.1339 -0.5019 -0.6199
11705TIP3    H256531   3.084   3.390  13.437  0.0505 -1.0621 -0.5940
11706TIP3   OH256532   2.530   0.574   0.092  0.3686 -0.2467 -0.0832
11706TIP3    H156533   2.501   0.653   0.137 -1.8821 -1.7544  1.2752
11706TIP3    H256534   2.469   0.563   0.019  1.5640  0.0094 -1.1673
11707TIP3   OH256535   1.342   2.930   2.939  0.0629  0.1537  0.8281
11707TIP3    H156536   1.300   2.967   2.861 -0.5842  0.0568  1.1319
11707TIP3    H256537   1.310   2.841   2.945 -1.4225  0.7303  2.2832
11708TIP3   OH256538   2.887   5.006   1.805  0.3444 -0.3957  0.3106
11708TIP3    H156539   2.863   5.093   1.774 -0.7925 -0.9893 -0.5468
11708TIP3    H256540   2.983   5.007   1.807  0.4368  0.2214 -1.6991
11709TIP3   OH256541   1.094   1.206   3.320 -0.4425 -0.0544  0.0679
11709TIP3    H156542   1.168   1.154   3.288 -0.4439 -0.9166  1.4120
11709TIP3    H256543   1.039   1.220   3.243  0.5861 -0.2939 -0.7270
11710TIP3   OH256544   0.651   2.296   1.385 -0.1677 -0.1434 -0.3009
11710TIP3    H156545   0.656   2.248   1.467  0.2008 -1.1260 -0.8762
11710TIP3    H256546   0.591   2.244   1.331 -1.8429  1.4237 -0.0644
11711TIP3   OH256547   4.436   6.464  15.997 -0.4128  0.2868 -0.1403
11711TIP3    H156548   4.528   6.488  16.002 -0.3308 -0.1770  0.9417
11711TIP3    H256549   4.436   6.380  15.952 -0.4102  0.7348 -1.0066
11712TIP3   OH256550   0.073   3.894  14.329 -0.0410  0.3006  0.0477
11712TIP3    H156551   0.028   3.896  14.414  1.4847 -0.9540  0.9459
11712TIP3    H256552   0.080   3.800  14.309 -2.2030  0.5782 -2.5350
11713TIP3   OH256553   0.771   5.485  11.357  0.1176 -0.0784  0.1977
11713TIP3    H156554   0.739   5.446  11.276 -1.4519  0.6238  0.4561
11713TIP3    H256555   0.786   5.577  11.335 -0.6074  0.1859  0.7612
11714TIP3   OH256556   4.508   1.798  12.285  0.2637 -0.1424 -0.6416
11714TIP3    H156557   4.486   1.706  12.302  0.9019 -0.0258  1.1078
11714TIP3    H256558   4.584   1.794  12.228  0.2631 -0.7163 -0.6119
11715TIP3   OH256559   1.043   4.666   1.556  0.1043  0.1309 -0.4748
11715TIP3    H156560   1.054   4.734   1.623  4.0076 -0.5805 -0.2120
11715TIP3    H256561   1.060   4.710   1.473 -0.3676  0.0824 -0.6015
11716TIP3   OH256562   3.610   1.184  15.108 -0.1634  0.6539  0.0911
11716TIP3    H156563   3.698   1.161  15.138 -0.6077  0.0951  0.9815
11716TIP3    H256564   3.577   1.104  15.065  0.1118  1.1551 -1.1090
11717TIP3   OH256565   1.403   6.743   5.072 -0.3313  0.1190 -0.0608
11717TIP3    H156566   1.354   6.825   5.075 -1.0961 -0.3129 -0.3141
11717TIP3    H256567   1.484   6.761   5.118 -0.1996  1.2135 -0.7002
11718TIP3   OH256568   3.880   1.691  12.810  0.7307 -0.7440 -0.0698
11718TIP3    H156569   3.869   1.726  12.722  1.0298 -0.9671 -0.1998
11718TIP3    H256570   3.865   1.765  12.869 -0.2407 -0.7644 -0.2754
11719TIP3   OH256571   1.089   3.590   2.767  0.4463 -0.6053 -0.3768
11719TIP3    H156572   1.125   3.577   2.855  2.9808 -0.5024 -1.3326
11719TIP3    H256573   1.072   3.684   2.762  2.4517 -0.2294 -0.7201
11720TIP3   OH256574   1.216   0.784   5.188 -0.3494 -0.0216 -0.4810
11720TIP3    H156575   1.242   0.805   5.277 -1.1785  3.4829 -0.9184
11720TIP3    H256576   1.126   0.750   5.197 -0.5865  0.7119  0.0135
11721TIP3   OH256577   1.224   0.109  11.607  0.1963  0.3090 -0.5190
11721TIP3    H156578   1.208   0.015  11.618 -0.5883  0.6261  1.7433
11721TIP3    H256579   1.268   0.135  11.688 -1.3462  2.1971 -0.2028
11722TIP3   OH256580   3.733   5.117  12.695  0.0054  0.0710 -0.0437
11722TIP3    H156581   3.819   5.156  12.710  0.1919 -0.5023  0.4212
11722TIP3    H256582   3.679   5.148  12.767 -1.2170  3.2583 -2.1328
11723TIP3   OH256583   2.024   2.660  14.684  0.4649  0.2069  0.3277
11723TIP3    H156584   2.030   2.725  14.755  0.8287  0.5181  0.0141
11723TIP3    H256585   1.971   2.703  14.617  2.3851  1.0154 -0.7653
11724TIP3   OH256586   0.013   4.558  16.157 -0.2953  0.1512  0.2356
11724TIP3    H156587  -0.028   4.566  16.070  0.2699  0.1121 -0.0378
11724TIP3    H256588   0.105   4.578  16.142 -0.2456  0.4391  0.8878
11725TIP3   OH256589   6.245   0.470  14.546 -0.1590  0.0929 -0.0959
11725TIP3    H156590   6.291   0.396  14.506 -0.3559 -1.0432  1.6310
11725TIP3    H256591   6.312   0.536  14.560  0.1397  0.0255 -1.1606
11726TIP3   OH256592   1.476   5.928   2.905  0.3575  0.1056 -0.2791
11726TIP3    H156593   1.537   5.945   2.977  0.0229  0.1981 -0.0144
11726TIP3    H256594   1.391   5.916   2.948  0.0375  0.7890 -0.7045
11727TIP3   OH256595   1.345   2.258   2.569 -0.4644  0.1180 -0.4691
11727TIP3    H156596   1.430   2.244   2.526 -0.0753 -0.6991  0.5126
11727TIP3    H256597   1.281   2.224   2.507 -0.1440  1.3854 -1.5256
11728TIP3   OH256598   1.131   5.001  14.763  0.3176  0.2524  0.2839
11728TIP3    H156599   1.128   4.984  14.858  0.6388 -1.3019  0.0430
11728TIP3    H256600   1.047   4.969  14.731  0.5020  0.1025 -0.0496
11729TIP3   OH256601   0.199   1.482   4.726 -0.2837 -0.4806 -0.3615
11729TIP3    H156602   0.200   1.514   4.635 -0.0886  1.4635  0.2904
11729TIP3    H256603   0.271   1.419   4.730 -0.1023 -0.3657 -1.4817
11730TIP3   OH256604   5.309   1.546   4.911  0.3634 -0.0925 -0.7684
11730TIP3    H156605   5.223   1.541   4.868 -0.1145 -2.0990  0.3312
11730TIP3    H256606   5.296   1.610   4.981 -0.4471 -0.8374 -0.2167
11731TIP3   OH256607   2.249   3.543  14.013 -0.3947 -0.1191 -0.0454
11731TIP3    H156608   2.298   3.503  14.085 -0.2998 -1.8436 -1.0172
11731TIP3    H256609   2.167   3.494  14.009 -0.4489  0.0268 -1.0258
11732TIP3   OH256610   0.672   5.490  14.865  0.4624  0.4575  0.3527
11732TIP3    H156611   0.732   5.532  14.926  1.9967 -2.1405  0.8031
11732TIP3    H256612   0.616   5.436  14.921 -0.0627  0.2725 -0.3307
11733TIP3   OH256613   4.851   6.332  13.040  0.2686  0.1556 -0.4610
11733TIP3    H156614   4.935   6.310  12.999  1.0636  0.5505  0.8783
11733TIP3    H256615   4.859   6.424  13.064 -0.1753 -0.0445  0.5086
11734TIP3   OH256616   4.515   0.811   3.187  0.4016 -0.3255  0.1663
11734TIP3    H156617   4.554   0.760   3.258  0.3289 -1.1621 -0.3869
11734TIP3    H256618   4.444   0.756   3.154  0.4636  0.0298 -0.5818
11735TIP3   OH256619   4.423   0.202   3.271  0.0669  1.2794 -0.1163
11735TIP3    H156620   4.423   0.120   3.221  2.4662  1.2549 -0.1824
11735TIP3    H256621   4.404   0.175   3.361 -1.2397  0.9517 -0.4621
11736TIP3   OH256622   5.696   6.159   2.602 -0.4176  0.6424  0.1811
11736TIP3    H156623   5.763   6.225   2.618  1.2483 -0.8445 -0.4049
11736TIP3    H256624   5.716   6.124   2.516  0.0423 -2.0273  1.2753
11737TIP3   OH256625   3.064   2.541   0.790 -0.1419 -0.4272 -0.1473
11737TIP3    H156626   3.027   2.579   0.870  0.9761 -0.2959  0.3195
11737TIP3    H256627   3.088   2.617   0.736 -0.3399 -0.5109 -0.3575
11738TIP3   OH256628   0.121   0.375  14.383  0.2758  0.0446  0.0245
11738TIP3    H156629   0.110   0.433  14.459 -0.0792 -0.1516  0.1212
11738TIP3    H256630   0.195   0.319  14.407  0.5013  0.3325  0.0087
11739TIP3   OH256631   3.139   4.171   4.174  0.4919 -0.0517 -0.1697
11739TIP3    H156632   3.045   4.174   4.191  0.0360  5.1729 -1.9968
11739TIP3    H256633   3.179   4.204   4.255  0.3956  1.2743 -0.6497
11740TIP3   OH256634   3.391   1.742   3.768  0.0713 -0.2227  0.5201
11740TIP3    H156635   3.466   1.723   3.826  0.9023 -1.3255 -0.8642
11740TIP3    H256636   3.333   1.667   3.779  0.5552 -0.7794 -0.5322
11741TIP3   OH256637   4.247   2.903  13.223  0.3729 -0.1137  0.5096
11741TIP3    H156638   4.298   2.973  13.263 -0.6865  1.0103 -0.0405
11741TIP3    H256639   4.161   2.909  13.265  0.2036 -0.9660  0.3088
11742TIP3   OH256640   5.621   4.412  10.781  0.4116 -0.3325 -0.0598
11742TIP3    H156641   5.690   4.356  10.745  2.7372  2.2671  0.0487
11742TIP3    H256642   5.657   4.445  10.863 -0.9407  1.1356 -0.0178
11743TIP3   OH256643   1.139   0.249   2.848 -0.4331 -0.0939 -0.0218
11743TIP3    H156644   1.180   0.334   2.861  0.2137 -0.3392 -0.4270
11743TIP3    H256645   1.106   0.253   2.758 -1.7052  0.2641  0.4362
11744TIP3   OH256646   2.642   4.396  15.318 -0.2719 -0.2891  0.3502
11744TIP3    H156647   2.688   4.446  15.251  1.1748 -0.2816  1.2819
11744TIP3    H256648   2.673   4.306  15.306 -0.1477 -0.3202  0.8607
11745TIP3   OH256649   5.385   2.250  12.027  0.2376 -0.1732  0.0267
11745TIP3    H156650   5.412   2.196  11.953  1.7188 -1.1967  1.2725
11745TIP3    H256651   5.372   2.337  11.990  2.5114 -0.2934 -1.1742
11746TIP3   OH256652   2.231   1.600  16.525 -0.0746 -0.2467 -0.0147
11746TIP3    H156653   2.142   1.581  16.495  0.3296  0.4032 -1.7602
11746TIP3    H256654   2.225   1.686  16.565 -0.4153 -0.6602  0.8553
11747TIP3   OH256655   0.697   4.100   5.023 -0.5686 -0.2874 -0.2314
11747TIP3    H156656   0.616   4.079   4.975 -0.2019  0.8809 -1.4356
11747TIP3    H256657   0.753   4.141   4.957  0.5354  0.0431  0.8845
11748TIP3   OH256658   6.184   0.450  13.954  0.4223  0.1819 -0.3404
11748TIP3    H156659   6.261   0.492  13.993  0.1784  1.7422 -1.4473
11748TIP3    H256660   6.168   0.374  14.009  0.5101  1.8638  2.1972
11749TIP3   OH256661   5.721   4.897   4.904  0.3391  0.4319  0.2753
11749TIP3    H156662   5.659   4.831   4.934  1.4851 -0.1088  1.5772
11749TIP3    H256663   5.705   4.904   4.810 -0.5288 -0.9449  0.2941
11750TIP3   OH256664   3.280   3.910  14.975 -0.2816  0.3276 -0.1067
11750TIP3    H156665   3.235   3.944  14.898  0.6758  0.3806 -0.6514
11750TIP3    H256666   3.249   3.819  14.982  1.2965 -0.4121 -1.9018
11751TIP3   OH256667   0.740   2.465  14.377  0.3569  0.1554  0.2817
11751TIP3    H156668   0.685   2.536  14.343 -1.7376 -1.3669  0.2864
11751TIP3    H256669   0.714   2.388  14.326  0.2934 -1.2704  2.3597
11752TIP3   OH256670   0.414   1.637  17.034 -0.0034  0.4174 -0.2308
11752TIP3    H156671   0.420   1.643  17.130 -3.3556 -0.8379  0.2016
11752TIP3    H256672   0.385   1.724  17.007  0.6779  0.6941 -0.1009
11753TIP3   OH256673   2.212   6.751  13.603 -0.1260  0.2707  0.0272
11753TIP3    H156674   2.273   6.819  13.573 -1.1908  2.0731  1.6577
11753TIP3    H256675   2.202   6.768  13.697 -2.7528 -0.2243 -0.0898
11754TIP3   OH256676   1.903   3.229  13.690  0.4574 -0.0684  0.1435
11754TIP3    H156677   1.894   3.324  13.699  0.5642  0.0936 -1.2147
11754TIP3    H256678   1.928   3.199  13.777 -1.5291  0.8914  1.1191
11755TIP3   OH256679   2.858   4.616   1.044 -0.0553 -0.6801  0.7737
11755TIP3    H156680   2.943   4.599   1.083  0.6134  1.4790  0.3975
11755TIP3    H256681   2.877   4.655   0.959 -1.1868  2.9637  1.9639
11756TIP3   OH256682   0.665   0.797   4.337  0.3481 -0.0578  0.5425
11756TIP3    H156683   0.599   0.755   4.393  0.3519 -2.7475 -1.2931
11756TIP3    H256684   0.622   0.876   4.304 -1.2524 -0.7309  0.9265
11757TIP3   OH256685   6.123   1.773  16.966 -0.2409 -0.0771  0.0889
11757TIP3    H156686   6.185   1.772  16.894  0.6037 -1.6760  0.7882
11757TIP3    H256687   6.169   1.818  17.037  0.5937 -2.1786  0.9494
11758TIP3   OH256688   6.103   4.984   2.062  0.2319  0.5602  0.5712
11758TIP3    H156689   6.085   4.915   2.126  1.4662 -0.5416 -0.2289
11758TIP3    H256690   6.054   5.060   2.094 -0.9882 -0.6161  1.5817
11759TIP3   OH256691   6.437   4.703   4.467  0.4382 -0.0557  0.6373
11759TIP3    H156692   6.498   4.659   4.527 -0.0506  0.0171  1.1950
11759TIP3    H256693   6.351   4.668   4.490  0.1388  0.6078  0.5603
11760TIP3   OH256694   0.928   5.127   5.570  0.2771 -0.1000 -0.3272
11760TIP3    H156695   0.980   5.151   5.493 -0.4848  0.4052 -0.6936
11760TIP3    H256696   0.969   5.175   5.642  0.4359  0.1446 -0.5781
11761TIP3   OH256697   5.399   5.406   2.528  0.3359  0.2951 -0.3906
11761TIP3    H156698   5.424   5.318   2.557 -0.2791  0.6780  1.4442
11761TIP3    H256699   5.304   5.406   2.532  0.2993  0.8132 -1.1218
11762TIP3   OH256700   4.877   6.733  14.866  0.1954 -0.0313 -0.2588
11762TIP3    H156701   4.858   6.671  14.936  0.7163 -0.9828 -0.9384
11762TIP3    H256702   4.813   6.803  14.878  0.4182 -0.0591  1.2958
11763TIP3   OH256703   4.959   0.477   5.122 -0.1503 -0.0592  0.4568
11763TIP3    H156704   5.048   0.445   5.109 -0.6634 -1.8052  0.8556
11763TIP3    H256705   4.904   0.401   5.102 -1.3862 -0.0963  3.5080
11764TIP3   OH256706   1.912   2.054  12.841  0.0556 -0.0211 -0.3196
11764TIP3    H156707   1.886   2.146  12.844 -0.4527 -0.0925 -1.9232
11764TIP3    H256708   2.007   2.057  12.825  0.3895  0.2006  1.4564
11765TIP3   OH256709   4.288   2.772  11.030 -0.7858 -0.4535 -0.0107
11765TIP3    H156710   4.368   2.720  11.038  0.4420  1.3853  0.2633
11765TIP3    H256711   4.220   2.708  11.005  0.9858 -1.8949 -1.4109
11766TIP3   OH256712   1.316   5.447  15.018  0.2522  1.0475  0.7179
11766TIP3    H156713   1.223   5.453  15.041 -0.8061 -2.9541 -1.5979
11766TIP3    H256714   1.324   5.496  14.936 -0.4184 -0.4636 -0.2850
11767TIP3   OH256715   5.639   0.746  13.174  0.3956  0.5094 -0.5994
11767TIP3    H156716   5.644   0.779  13.264  0.5140 -2.8197  0.7785
11767TIP3    H256717   5.731   0.733  13.148  0.3658 -1.6181  0.1697
11768TIP3   OH256718   1.621   5.557  17.064  0.6937  0.3623  0.7209
11768TIP3    H156719   1.609   5.486  17.000 -0.2303  1.5718 -0.4926
11768TIP3    H256720   1.533   5.592  17.078  0.8735  0.0920  2.7376
11769TIP3   OH256721   3.877   2.993  11.047 -0.3966  0.1540  0.2759
11769TIP3    H156722   3.937   2.970  10.976 -1.3113 -1.5091 -0.0113
11769TIP3    H256723   3.845   3.080  11.024  0.0718  0.0454 -0.8436
11770TIP3   OH256724   4.114   6.023  13.767 -0.1674 -0.2155  0.5442
11770TIP3    H156725   4.205   6.021  13.738 -0.2471  1.2618  0.0844
11770TIP3    H256726   4.085   6.112  13.748 -2.1568 -1.0505 -0.6939
11771TIP3   OH256727   0.711   0.248   3.605 -0.2435  0.4645  0.4010
11771TIP3    H156728   0.636   0.306   3.616  0.9749  1.7518  2.8350
11771TIP3    H256729   0.758   0.253   3.689  1.8201 -1.3338 -0.5413
11772TIP3   OH256730   2.020   4.773  16.388  0.3259 -0.9885 -0.1487
11772TIP3    H156731   1.978   4.859  16.381  0.4984 -0.9468 -0.6845
11772TIP3    H256732   2.114   4.792  16.385  0.3638 -1.2876 -1.5398
11773TIP3   OH256733   6.529   2.027   2.977 -0.5414  0.6997 -0.5644
11773TIP3    H156734   6.487   1.994   3.056  1.7583 -1.9994 -0.3185
11773TIP3    H256735   6.494   2.116   2.967 -1.7618  0.7548  2.7910
11774TIP3   OH256736   0.253   2.652   5.834 -0.5094  0.1270  0.8149
11774TIP3    H156737   0.312   2.710   5.883 -0.3677 -0.4238  1.3035
11774TIP3    H256738   0.259   2.684   5.744 -0.7959  1.1744  1.1495
11775TIP3   OH256739   5.354   3.989  14.336 -0.5964 -0.1140  0.2527
11775TIP3    H156740   5.430   3.979  14.278 -0.4408 -1.4961  0.6419
11775TIP3    H256741   5.324   4.078  14.321  1.8133  0.8944  0.9474
11776TIP3   OH256742   6.680   5.094   6.202 -0.0377  0.1214  0.1149
11776TIP3    H156743   6.678   5.132   6.114  0.5871  0.9288  0.4425
11776TIP3    H256744   6.731   5.155   6.254  3.3104 -2.3681  0.0923
11777TIP3   OH256745   0.812   5.423   6.557  0.9905 -0.2030 -0.3018
11777TIP3    H156746   0.789   5.339   6.598 -1.2697  0.8759  0.8559
11777TIP3    H256747   0.730   5.455   6.519  1.8081  1.4374 -0.8008
11778TIP3   OH256748   2.075   0.634  17.119  0.3648  0.0838 -0.3084
11778TIP3    H156749   2.153   0.650  17.067 -0.4669  0.0896 -1.5954
11778TIP3    H256750   2.096   0.555  17.169  1.2176  0.1376 -0.5647
11779TIP3   OH256751   4.616   0.799  14.792  0.2708 -0.0458  0.0968
11779TIP3    H156752   4.599   0.792  14.698  1.9610 -1.6368 -0.1454
11779TIP3    H256753   4.672   0.724  14.812 -1.9603 -1.1060  2.8802
11780TIP3   OH256754   5.075   6.203  11.245 -0.3137 -0.2798  0.3313
11780TIP3    H156755   5.060   6.134  11.180  0.5716 -1.3649  1.2328
11780TIP3    H256756   4.992   6.250  11.250 -1.2185 -1.8126  0.2967
11781TIP3   OH256757   3.068   1.371   2.054  0.2767  0.0308  0.1749
11781TIP3    H156758   3.095   1.432   2.123 -0.7319 -0.2934  0.8757
11781TIP3    H256759   3.001   1.317   2.095  1.9759 -2.3794 -0.0351
11782TIP3   OH256760   4.875   0.295   6.439 -0.5539  0.3628  0.1523
11782TIP3    H156761   4.859   0.202   6.455  0.4791  0.2257  0.4604
11782TIP3    H256762   4.903   0.329   6.524  0.3549  0.6562 -0.2489
11783TIP3   OH256763   1.630   4.750  12.071 -0.1362 -0.1143 -0.6187
11783TIP3    H156764   1.626   4.822  12.008 -0.1912 -0.4792 -1.0324
11783TIP3    H256765   1.686   4.784  12.141 -1.3247  0.8779 -0.0970
11784TIP3   OH256766   2.750   3.329   3.506  0.0566  0.2363 -0.6250
11784TIP3    H156767   2.759   3.391   3.434 -2.6786  0.5123 -0.8529
11784TIP3    H256768   2.801   3.253   3.479  2.8112  1.9957 -0.7187
11785TIP3   OH256769   6.613   4.601  16.513  0.1059 -0.1242  0.3765
11785TIP3    H156770   6.544   4.589  16.448 -0.6677 -1.4266  1.3800
11785TIP3    H256771   6.581   4.673  16.568  1.3541  1.8784 -1.3449
11786TIP3   OH256772   6.678   2.787  13.019  0.5860  0.1452 -0.0931
11786TIP3    H156773   6.662   2.757  12.929 -1.6020  0.9460 -0.0265
11786TIP3    H256774   6.728   2.869  13.008 -0.0376  0.4672 -0.6157
11787TIP3   OH256775   5.536   5.311  11.232  0.5295  0.3168 -0.3505
11787TIP3    H156776   5.513   5.383  11.290  1.2318  0.7259 -0.5628
11787TIP3    H256777   5.453   5.266  11.214  0.2623  0.3689  0.7156
11788TIP3   OH256778   2.218   5.660   5.987  0.1220  0.1799 -0.0189
11788TIP3    H156779   2.283   5.713   5.941 -0.0401  1.1893  0.8773
11788TIP3    H256780   2.183   5.718   6.054  0.2327 -1.1913  1.2748
11789TIP3   OH256781   3.966   3.763  14.313 -0.3191  0.4891 -0.1928
11789TIP3    H156782   4.024   3.789  14.385  0.0524 -2.0763  0.5484
11789TIP3    H256783   4.024   3.731  14.245 -0.7756  0.6121 -0.6472
11790TIP3   OH256784   2.784   6.735  11.916 -0.5016 -0.3312 -0.2441
11790TIP3    H156785   2.848   6.718  11.985 -0.4731 -0.8146 -0.3868
11790TIP3    H256786   2.792   6.660  11.857 -0.1499  0.3135 -1.0528
11791TIP3   OH256787   6.195   1.389  13.895  0.2365  0.0636 -0.8542
11791TIP3    H156788   6.176   1.315  13.838  1.3846 -0.3741 -0.6912
11791TIP3    H256789   6.249   1.447  13.842  2.0045 -0.7309 -0.0020
11792TIP3   OH256790   2.852   0.995   4.068 -0.4202 -0.1263  0.1050
11792TIP3    H156791   2.831   0.962   4.156 -1.7074 -1.9696 -0.8308
11792TIP3    H256792   2.769   1.027   4.033  0.0513  0.4615 -0.5144
11793TIP3   OH256793   1.648   0.356  16.696  0.0597  0.2136  0.0548
11793TIP3    H156794   1.600   0.395  16.769  0.1512 -1.8776  1.3050
11793TIP3    H256795   1.581   0.315  16.641  0.2043 -0.7076  0.5502
11794TIP3   OH256796   6.624   1.411   0.091 -0.3389  0.0768 -0.1106
11794TIP3    H156797   6.631   1.345   0.022 -1.0940  0.8042 -0.9104
11794TIP3    H256798   6.532   1.408   0.118 -0.2483  0.4044  0.2407
11795TIP3   OH256799   2.789   0.779  12.888 -0.1215 -0.3310 -0.0728
11795TIP3    H156800   2.743   0.863  12.889 -0.5085 -0.5063  2.7461
11795TIP3    H256801   2.723   0.714  12.910  0.7633 -1.0173  0.6442
11796TIP3   OH256802   2.245   6.659   3.561 -0.5642  0.4146 -0.7728
11796TIP3    H156803   2.328   6.638   3.518 -0.3811  0.9716 -0.7072
11796TIP3    H256804   2.179   6.615   3.508 -0.1491 -0.9934 -0.1691
11797TIP3   OH256805   0.664   0.187  16.417  0.2501 -0.0659  0.0883
11797TIP3    H156806   0.673   0.253  16.486  1.1012 -1.0191  0.9118
11797TIP3    H256807   0.719   0.219  16.346 -1.3897  1.4268 -0.6020
11798TIP3   OH256808   4.219   3.434   5.324 -0.0786  0.7357 -0.4678
11798TIP3    H156809   4.313   3.418   5.321  0.2075  2.3814 -1.4410
11798TIP3    H256810   4.211   3.523   5.358 -1.2810  0.7118 -0.6595
11799TIP3   OH256811   6.295   2.386  14.969  0.1268 -0.3937 -0.4390
11799TIP3    H156812   6.380   2.377  15.013  0.2298  0.1265 -0.5330
11799TIP3    H256813   6.275   2.297  14.940  0.1483 -0.7214  0.4855
11800TIP3   OH256814   5.991   0.042   5.595  0.1353  0.5211 -0.2461
11800TIP3    H156815   5.936   0.119   5.614 -2.3860 -1.5136  1.3590
11800TIP3    H256816   6.014   0.007   5.681  2.8072  0.4013 -0.9095
11801TIP3   OH256817   0.876   6.216  15.466 -0.4131 -0.3646  0.2571
11801TIP3    H156818   0.963   6.180  15.448 -0.6762 -1.4459  1.0281
11801TIP3    H256819   0.867   6.210  15.561 -0.5306  1.6643  0.4010
11802TIP3   OH256820   3.167   2.029   5.048 -0.9787 -0.7891  0.1131
11802TIP3    H156821   3.141   1.960   5.109 -1.1163 -0.1364  0.8087
11802TIP3    H256822   3.216   2.091   5.101  0.1500 -0.9171 -0.7480
11803TIP3   OH256823   1.467   2.118  10.832 -0.2124 -0.2857 -0.3385
11803TIP3    H156824   1.474   2.054  10.760  0.5751  1.3313 -1.7753
11803TIP3    H256825   1.376   2.147  10.829  0.2633  1.2687 -2.1288
11804TIP3   OH256826   2.417   4.195  11.437  0.1962 -0.3812  0.1233
11804TIP3    H156827   2.459   4.277  11.462 -0.2296 -0.4303  1.0507
11804TIP3    H256828   2.429   4.189  11.342  0.3110  0.7000  0.0632
11805TIP3   OH256829   3.449   5.416   6.014  0.4508 -0.1360 -0.2935
11805TIP3    H156830   3.480   5.330   6.043  1.6328  0.4583  0.2898
11805TIP3    H256831   3.410   5.454   6.093  2.1485  0.8158  0.1292
11806TIP3   OH256832   6.132   2.127   5.677  0.6494 -0.0227  0.1827
11806TIP3    H156833   6.227   2.135   5.682  0.6869  1.6979 -2.0310
11806TIP3    H256834   6.100   2.180   5.750  1.3428 -0.4867  0.8477
11807TIP3   OH256835   2.563   0.745   1.693 -0.2891  0.1362 -0.0873
11807TIP3    H156836   2.638   0.686   1.689 -0.3683  0.0852 -1.0761
11807TIP3    H256837   2.546   0.768   1.601 -3.0911 -1.8728 -0.1600
11808TIP3   OH256838   3.251   4.634   3.423 -0.3144  0.2376 -0.2969
11808TIP3    H156839   3.344   4.614   3.420 -0.5911 -1.2105 -0.1096
11808TIP3    H256840   3.210   4.562   3.374 -1.5109 -0.4888  1.6468
11809TIP3   OH256841   5.808   6.046   2.357 -0.2269  0.3571  0.2547
11809TIP3    H156842   5.858   6.127   2.354  0.1425  0.1349  0.2820
11809TIP3    H256843   5.777   6.033   2.267 -1.0426  0.9887  0.4388
11810TIP3   OH256844   4.442   3.811   4.307 -0.2652  0.3584 -0.3657
11810TIP3    H156845   4.390   3.760   4.244 -2.5063  1.8551  0.1522
11810TIP3    H256846   4.466   3.891   4.260 -2.1278  1.5786  0.6360
11811TIP3   OH256847   2.821   4.657   0.179  0.4330  0.1790 -0.3488
11811TIP3    H156848   2.874   4.722   0.226  0.1042  1.0817 -1.1933
11811TIP3    H256849   2.799   4.592   0.246  0.9394  0.8335  0.4799
11812TIP3   OH256850   3.505   1.869  11.673  0.7171  0.2015 -0.7399
11812TIP3    H156851   3.574   1.917  11.628 -0.4128  1.3592 -1.2847
11812TIP3    H256852   3.430   1.929  11.675 -0.0046 -0.6772  0.6388
11813TIP3   OH256853   6.515   5.903   1.373  0.2312  0.5440 -0.3481
11813TIP3    H156854   6.505   5.850   1.452 -2.2152  1.1848 -0.1343
11813TIP3    H256855   6.460   5.859   1.308 -0.8853  2.0983 -0.5139
11814TIP3   OH256856   1.487   6.453  11.312  0.0345  0.7888  0.3565
11814TIP3    H156857   1.556   6.517  11.330  0.6870  0.5014 -0.9979
11814TIP3    H256858   1.519   6.371  11.348  0.4854  0.6241 -0.3980
11815TIP3   OH256859   4.458   0.495   2.557 -0.0301 -0.0314 -0.1737
11815TIP3    H156860   4.552   0.506   2.574 -0.4221  2.0291  0.9856
11815TIP3    H256861   4.445   0.533   2.470  0.1119  0.2413 -0.0766
11816TIP3   OH256862   6.615   4.424  14.704  0.2193  0.0445  0.4533
11816TIP3    H156863   6.710   4.413  14.709  0.2198 -0.1539  0.0440
11816TIP3    H256864   6.585   4.348  14.655 -0.1427  0.1502  0.5106
11817TIP3   OH256865   2.148   2.543  11.410  0.3938 -0.0293 -0.2777
11817TIP3    H156866   2.239   2.527  11.434 -0.0962  0.8278  2.5314
11817TIP3    H256867   2.124   2.469  11.354  2.3427 -1.1408  0.2699
11818TIP3   OH256868   5.837   1.646  12.118 -0.0233  0.1083  0.4389
11818TIP3    H156869   5.747   1.676  12.127  0.0862  0.2497  1.0936
11818TIP3    H256870   5.830   1.551  12.114 -0.1063  0.0267  1.9084
11819TIP3   OH256871   0.421   4.485  16.410 -0.1860 -0.0755  0.6281
11819TIP3    H156872   0.400   4.552  16.475  1.3979  0.0225  1.0805
11819TIP3    H256873   0.488   4.431  16.452 -0.6982 -1.3351 -0.1192
11820TIP3   OH256874   5.301   6.299   4.661  0.3032 -0.0729  0.2664
11820TIP3    H156875   5.334   6.368   4.719  1.0601 -0.7173  0.6320
11820TIP3    H256876   5.334   6.217   4.700 -2.0750 -0.8241  0.8839
11821TIP3   OH256877   2.882   0.508   6.636 -0.0388 -0.1478 -0.0997
11821TIP3    H156878   2.824   0.433   6.646  0.0749 -0.0897  1.0890
11821TIP3    H256879   2.952   0.494   6.700 -0.7357  1.6430  1.1330
11822TIP3   OH256880   2.910   1.006  11.755  0.2580  0.0151  0.4891
11822TIP3    H156881   2.960   0.976  11.830 -0.4820 -0.7054  0.7142
11822TIP3    H256882   2.974   1.052  11.700  0.8894  0.1825  1.3465
11823TIP3   OH256883   3.312   2.400  12.185  0.2059  0.0176 -0.7562
11823TIP3    H156884   3.275   2.484  12.213  0.5958 -0.3478  1.0240
11823TIP3    H256885   3.246   2.362  12.127 -0.9969  0.5603  0.2082
11824TIP3   OH256886   1.484   1.584   0.135  0.0356 -0.5534  0.0100
11824TIP3    H156887   1.466   1.657   0.075 -1.0745 -1.6910 -1.0894
11824TIP3    H256888   1.427   1.600   0.211 -0.9531 -0.7790 -0.6673
11825TIP3   OH256889   2.718   3.624  16.817 -0.4166 -0.3332  0.3904
11825TIP3    H156890   2.715   3.531  16.839 -0.4269 -0.8187 -1.5084
11825TIP3    H256891   2.635   3.642  16.774  0.9133 -0.3504 -2.4068
11826TIP3   OH256892   6.774   3.729   5.644 -0.1098 -0.1156  0.0518
11826TIP3    H156893   6.853   3.687   5.609  0.4320 -0.1609  1.2430
11826TIP3    H256894   6.793   3.823   5.642 -0.0811 -0.1174  0.1850
11827TIP3   OH256895   2.067   6.415   2.244  0.4215 -0.1924  0.2290
11827TIP3    H156896   2.016   6.415   2.164  1.3777 -1.2671 -0.4111
11827TIP3    H256897   2.108   6.502   2.247  0.3991 -0.1566 -0.4571
11828TIP3   OH256898   5.531   4.341  16.762  0.6111 -0.3707  0.1209
11828TIP3    H156899   5.522   4.326  16.668  3.2551  1.2384 -0.5096
11828TIP3    H256900   5.486   4.424  16.777  0.0403 -0.7129  0.3351
11829TIP3   OH256901   1.987   2.451  12.202 -0.1103  0.2239 -0.3352
11829TIP3    H156902   1.892   2.438  12.199 -0.3121  1.5905 -0.2806
11829TIP3    H256903   2.020   2.376  12.253 -1.1560 -0.2142 -0.2788
11830TIP3   OH256904   1.720   5.880  12.662  1.0332  0.0926  0.0441
11830TIP3    H156905   1.720   5.845  12.751  0.0487  0.7505  0.3243
11830TIP3    H256906   1.731   5.804  12.605  0.9763 -0.4174  0.7110
11831TIP3   OH256907   4.253   6.649   5.495 -0.0549 -0.1220  0.7075
11831TIP3    H156908   4.159   6.636   5.506  0.0452  0.0125  1.8921
11831TIP3    H256909   4.286   6.658   5.585  0.4858  4.1457  0.2749
11832TIP3   OH256910   1.897   6.239  12.174  0.6241 -0.1570  0.5247
11832TIP3    H156911   1.866   6.153  12.147  1.0437  0.0437 -0.6674
11832TIP3    H256912   1.826   6.299  12.150  1.6882  0.2530 -1.8613
11833TIP3   OH256913   2.048   2.013  15.849 -0.0364 -0.0199  0.4836
11833TIP3    H156914   2.018   1.995  15.760  0.5260  1.9166 -0.1447
11833TIP3    H256915   2.123   1.955  15.862 -2.1807 -2.8817  1.0525
11834TIP3   OH256916   1.020   3.072  14.723  0.1467  0.0985  0.4187
11834TIP3    H156917   0.995   2.981  14.706 -0.5146  0.2945  0.3122
11834TIP3    H256918   1.109   3.066  14.757 -0.0034 -0.6156  0.7166
11835TIP3   OH256919   2.762   5.593   1.137  0.0594 -0.5738  0.4348
11835TIP3    H156920   2.677   5.565   1.172  0.1217  0.5085  1.5395
11835TIP3    H256921   2.824   5.569   1.206  0.4521 -0.1422  0.2324
11836TIP3   OH256922   0.702   4.451   2.390 -0.4444  0.0505 -0.1462
11836TIP3    H156923   0.688   4.393   2.464 -0.3232  0.2824  0.0593
11836TIP3    H256924   0.648   4.528   2.409 -0.9170 -0.1626 -0.6093
11837TIP3   OH256925   4.915   4.401   3.895 -0.2390  0.8029  0.0595
11837TIP3    H156926   4.823   4.386   3.876 -0.2992  0.0116  0.9193
11837TIP3    H256927   4.960   4.321   3.867 -0.1159  0.2994  1.5909
11838TIP3   OH256928   3.921   6.251  14.764 -0.4777 -0.0564  0.0992
11838TIP3    H156929   3.992   6.315  14.760  0.6872 -1.3528 -0.7517
11838TIP3    H256930   3.859   6.288  14.826  0.1798  1.8739 -0.3337
11839TIP3   OH256931   6.590   2.475   4.080 -0.0072 -0.3213  0.0821
11839TIP3    H156932   6.540   2.482   3.998  0.4709 -1.3811 -0.3184
11839TIP3    H256933   6.622   2.385   4.081  3.2331  0.6883 -0.4762
11840TIP3   OH256934   1.626   5.990   3.679  0.3467 -0.5780 -0.6933
11840TIP3    H156935   1.556   6.052   3.659  1.3340 -0.2384 -3.6524
11840TIP3    H256936   1.616   5.971   3.772 -0.2924  3.6294  0.2773
11841TIP3   OH256937   1.987   0.044  15.801  0.5344 -0.2765 -0.6219
11841TIP3    H156938   1.900   0.006  15.809  0.2058  0.6536  0.4555
11841TIP3    H256939   2.045  -0.030  15.785 -0.4979 -0.8628 -1.8529
11842TIP3   OH256940   2.525   6.475   4.714 -0.0233 -0.8064 -0.4223
11842TIP3    H156941   2.541   6.481   4.809 -1.1494  0.3821 -0.2837
11842TIP3    H256942   2.454   6.537   4.698 -1.0136 -2.2347 -1.7900
11843TIP3   OH256943   1.875   4.409   0.910 -0.6784  0.2809 -0.7131
11843TIP3    H156944   1.785   4.429   0.938 -0.5038  0.8818 -0.5695
11843TIP3    H256945   1.909   4.492   0.877 -0.1353  0.0787 -0.6739
11844TIP3   OH256946   2.992   4.546   4.320 -0.0340  0.8455 -0.1911
11844TIP3    H156947   2.900   4.520   4.310  0.1341  0.8738 -2.3999
11844TIP3    H256948   3.012   4.530   4.412 -1.6571 -1.1779 -0.1115
11845TIP3   OH256949   0.543   3.431  11.891  0.5704  0.3281 -0.0592
11845TIP3    H156950   0.483   3.454  11.820 -2.6624  0.7886  2.5682
11845TIP3    H256951   0.601   3.506  11.899 -1.9513  2.3450  0.5640
11846TIP3   OH256952   4.547   3.368  14.185 -0.0085  0.1292  0.2814
11846TIP3    H156953   4.616   3.419  14.228 -1.9632  2.1377  1.2390
11846TIP3    H256954   4.562   3.279  14.215  3.1165  0.1233 -0.8776
11847TIP3   OH256955   2.121   5.973  16.398  0.3104 -0.1112 -0.1792
11847TIP3    H156956   2.149   5.889  16.434 -1.0931 -0.1886  0.8050
11847TIP3    H256957   2.057   6.006  16.461  3.1800  3.3223  1.2550
11848TIP3   OH256958   3.059   2.767  13.807 -0.0298 -0.4273  0.2428
11848TIP3    H156959   3.031   2.722  13.727 -0.8420  0.4600  0.0031
11848TIP3    H256960   3.063   2.698  13.874  1.5345 -1.3459 -0.7406
11849TIP3   OH256961   6.403   5.911   3.068  0.4552 -0.7304 -0.1441
11849TIP3    H156962   6.315   5.908   3.031  0.1341 -1.0313  0.6105
11849TIP3    H256963   6.432   6.001   3.054  0.0324 -0.6348 -0.4169
11850TIP3   OH256964   0.419   1.793  15.093 -0.2452  0.2676 -0.3367
11850TIP3    H156965   0.440   1.882  15.120  0.0552  0.6299 -1.6785
11850TIP3    H256966   0.334   1.800  15.050 -0.2251 -0.0957 -0.4424
11851TIP3   OH256967   5.223   2.119  13.139 -0.0061  0.1241  0.3916
11851TIP3    H156968   5.262   2.032  13.126  0.6782  0.4824 -0.0250
11851TIP3    H256969   5.149   2.120  13.079  1.2572  0.5948 -1.2453
11852TIP3   OH256970   6.617   3.132   4.696  0.1288 -0.1286  0.0555
11852TIP3    H156971   6.662   3.049   4.708 -0.1522 -0.2618  0.1948
11852TIP3    H256972   6.655   3.169   4.616  0.8917  0.0299  0.4820
11853TIP3   OH256973   5.114   2.737   1.699 -0.7459  0.5914 -0.8124
11853TIP3    H156974   5.103   2.667   1.635 -0.9746  0.5246 -0.7015
11853TIP3    H256975   5.190   2.785   1.669  0.5017 -0.7430  0.0520
11854TIP3   OH256976   4.139   5.316   0.018 -0.2557  0.2520  0.1350
11854TIP3    H156977   4.218   5.282  -0.024 -0.6114 -0.7412  0.2420
11854TIP3    H256978   4.165   5.400   0.054  0.8340 -0.1961  0.4204
11855TIP3   OH256979   6.295   4.686   0.200 -0.0424  0.1279 -0.1973
11855TIP3    H156980   6.206   4.667   0.170 -0.3312 -0.2028  0.8301
11855TIP3    H256981   6.296   4.781   0.214 -0.7338 -0.0509  1.2670
11856TIP3   OH256982   6.425   4.076   5.497  0.0108 -0.2001 -0.3091
11856TIP3    H156983   6.407   4.152   5.441 -1.1486 -0.7574 -0.7280
11856TIP3    H256984   6.410   4.001   5.440  4.4636 -0.8657 -0.9648
11857TIP3   OH256985   4.395   2.174   1.093 -0.2140 -0.3341 -0.0182
11857TIP3    H156986   4.439   2.252   1.059  2.0893 -1.2929  0.5658
11857TIP3    H256987   4.368   2.199   1.181 -3.6775  1.2268 -1.3498
11858TIP3   OH256988   4.436   4.596   1.249  0.2807  0.1393 -0.0581
11858TIP3    H156989   4.456   4.508   1.218  0.7680 -0.2400  1.2836
11858TIP3    H256990   4.505   4.651   1.212  0.9633 -0.3346  0.4834
11859TIP3   OH256991   2.575   5.370   1.025  0.6682  0.6386  0.4795
11859TIP3    H156992   2.556   5.407   1.111  1.1528 -2.6405  2.1506
11859TIP3    H256993   2.522   5.291   1.020  1.5188  0.1205 -1.7572
11860TIP3   OH256994   4.182   4.029   2.048 -0.4397 -0.0291  0.3192
11860TIP3    H156995   4.223   4.049   1.964  0.0528 -0.8896  0.3448
11860TIP3    H256996   4.147   3.941   2.037  1.1661 -0.8889  1.5569
11861TIP3   OH256997   2.661   5.050   6.052  0.6251 -0.5328 -0.0358
11861TIP3    H156998   2.584   5.039   6.108  0.3259 -0.1900 -0.3778
11861TIP3    H256999   2.678   5.144   6.052  0.5267 -0.5088 -0.6433
11862TIP3   OH257000   3.722   3.389  16.403  0.4998  0.4947 -0.6400
11862TIP3    H157001   3.742   3.322  16.338 -2.0046  0.1757 -1.1839
11862TIP3    H257002   3.674   3.343  16.472  1.4460  1.1873  0.5363
11863TIP3   OH257003   3.193   2.712   3.795 -0.2212 -0.0882 -0.1759
11863TIP3    H157004   3.122   2.757   3.840 -0.4098  0.5944 -1.1277
11863TIP3    H257005   3.224   2.774   3.730 -0.3178 -1.2288 -1.3592
11864TIP3   OH257006   0.647   5.274   4.908 -0.5021 -0.8046  0.2874
11864TIP3    H157007   0.709   5.245   4.841 -1.1677 -0.8407 -0.3259
11864TIP3    H257008   0.695   5.265   4.990  0.1195 -1.3479 -0.1227
11865TIP3   OH257009   1.382   5.906  17.131  0.4306 -0.5257 -0.6212
11865TIP3    H157010   1.419   5.836  17.077 -2.1765 -2.2674 -0.3179
11865TIP3    H257011   1.307   5.866  17.175 -0.6372  2.2263  0.3038
11866TIP3   OH257012   3.997   2.065   2.890  0.6402 -0.6665  0.0890
11866TIP3    H157013   3.993   1.981   2.845 -0.6067 -0.4019 -0.3315
11866TIP3    H257014   3.996   2.130   2.820 -0.4433 -0.2702  0.4520
11867TIP3   OH257015   5.361   2.589  13.198 -0.4117 -0.3180 -0.1538
11867TIP3    H157016   5.333   2.648  13.127 -1.0493  1.1193  1.2114
11867TIP3    H257017   5.350   2.501  13.163 -0.0458  0.3642 -2.0635
11868TIP3   OH257018   0.033   1.323   0.864  0.4592  0.0299 -0.5924
11868TIP3    H157019  -0.057   1.306   0.893  0.7310 -2.4774 -0.9965
11868TIP3    H257020   0.085   1.319   0.945  0.5810 -1.9412 -0.7124
11869TIP3   OH257021   6.371   0.192  13.525  0.2326  0.2184  0.1171
11869TIP3    H157022   6.395   0.275  13.567 -1.2531  0.3205  0.8553
11869TIP3    H257023   6.451   0.162  13.484  1.1472  1.3562  0.9744
11870TIP3   OH257024   5.791   4.238   1.316  0.0203  0.1459 -1.0372
11870TIP3    H157025   5.701   4.223   1.343  0.1996 -1.1022 -1.0679
11870TIP3    H257026   5.789   4.321   1.269 -0.8544  0.8190  0.1266
11871TIP3   OH257027   4.569   4.821   3.188 -0.2431  0.7259 -1.1293
11871TIP3    H157028   4.632   4.856   3.250 -0.0792  0.4931 -1.1624
11871TIP3    H257029   4.485   4.857   3.216 -0.5929 -1.3776  0.8181
11872TIP3   OH257030   0.817   0.489   0.198  0.3975 -0.3190 -0.0768
11872TIP3    H157031   0.857   0.561   0.149 -0.4790  0.5722  0.4628
11872TIP3    H257032   0.798   0.422   0.132 -1.4577  1.1615 -1.1505
11873TIP3   OH257033   3.740   3.357   0.404 -0.2391  0.7262 -0.8539
11873TIP3    H157034   3.652   3.322   0.415 -0.9707  2.2062 -1.6724
11873TIP3    H257035   3.756   3.406   0.485  0.2840 -0.4092 -0.2481
11874TIP3   OH257036   1.804   2.898   0.378  0.4042 -0.1893 -0.1941
11874TIP3    H157037   1.770   2.851   0.454  1.0925 -3.3456 -1.6503
11874TIP3    H257038   1.899   2.887   0.384  0.4169 -1.9837 -2.2306
11875TIP3   OH257039   2.858   5.356   0.264 -0.0056 -0.5265  0.2534
11875TIP3    H157040   2.936   5.409   0.247 -0.2703 -0.6365 -1.6036
11875TIP3    H257041   2.861   5.336   0.357  1.5832  0.4082  0.4311
11876TIP3   OH257042   2.929   5.426   5.621  0.0514 -0.3372  0.4867
11876TIP3    H157043   3.007   5.460   5.576 -0.6653 -0.8560 -1.2326
11876TIP3    H257044   2.944   5.332   5.627 -0.5191 -0.4668 -0.0353
11877TIP3   OH257045   3.973   2.874   4.168 -0.6208  0.0362  0.3382
11877TIP3    H157046   4.061   2.840   4.185 -0.8374 -0.2118  0.9693
11877TIP3    H257047   3.988   2.965   4.140 -0.1613 -0.0076  0.4333
11878TIP3   OH257048   4.704   1.053   6.020  0.1781  0.0468  0.0603
11878TIP3    H157049   4.660   1.117   6.076 -1.1344 -0.9078  0.1642
11878TIP3    H257050   4.759   1.002   6.079 -0.1118 -0.0448  0.2490
11879TIP3   OH257051   2.591   6.495  16.246  0.4954  0.5549 -0.5468
11879TIP3    H157052   2.508   6.451  16.265  0.6311  0.7317  0.5125
11879TIP3    H257053   2.583   6.581  16.287  1.4645  0.3151  0.1851
11880TIP3   OH257054   6.541   0.463   5.271  0.0253  0.2279  0.4898
11880TIP3    H157055   6.466   0.404   5.268  0.2313 -0.0054 -1.0479
11880TIP3    H257056   6.593   0.433   5.345 -0.5354 -0.6901  0.5242
11881TIP3   OH257057   1.109   1.234  12.850 -0.0334  0.1329 -0.1029
11881TIP3    H157058   1.037   1.292  12.827  0.8017  1.8138  1.2502
11881TIP3    H257059   1.097   1.217  12.944  0.3597 -1.0385 -0.2385
11882TIP3   OH257060   5.590   4.532  14.132 -0.4504  0.6988 -0.5616
11882TIP3    H157061   5.494   4.529  14.129 -0.5137 -0.1152  1.1497
11882TIP3    H257062   5.610   4.577  14.213  0.6513  1.7993 -1.4166
11883TIP3   OH257063   6.187   4.373  14.240 -0.5861  0.0251  0.0301
11883TIP3    H157064   6.265   4.376  14.295 -1.4695  1.0948  1.2892
11883TIP3    H257065   6.195   4.449  14.183 -0.8103  0.2904  0.3431
11884TIP3   OH257066   1.052   6.220  10.649 -0.1377 -0.1357  0.0534
11884TIP3    H157067   1.124   6.202  10.710 -0.3653 -1.7066 -0.0866
11884TIP3    H257068   1.076   6.302  10.607  3.6181 -2.3378 -2.8334
11885TIP3   OH257069   0.998   5.879  11.193  0.9050 -0.4805 -0.1092
11885TIP3    H157070   1.056   5.927  11.134 -0.4335  1.8262  0.3271
11885TIP3    H257071   0.910   5.903  11.164  0.2011 -1.2193  1.3253
11886TIP3   OH257072   4.154   5.171   2.773 -0.4373 -0.3842 -0.5290
11886TIP3    H157073   4.144   5.151   2.866  2.0480 -0.1856 -0.1511
11886TIP3    H257074   4.069   5.205   2.746 -1.3631 -0.9282  1.5411
11887TIP3   OH257075   4.076   0.066  10.781 -0.7303  0.5214  0.1790
11887TIP3    H157076   4.036   0.003  10.841 -0.5752  1.6801  1.5546
11887TIP3    H257077   4.169   0.042  10.778 -1.1795 -1.3352 -1.9625
11888TIP3   OH257078   1.534   2.958   4.943 -0.3327  0.8501  0.3585
11888TIP3    H157079   1.463   2.945   5.007 -1.1128 -1.9650 -0.8990
11888TIP3    H257080   1.594   2.886   4.961 -0.8298 -0.3495 -2.3046
11889TIP3   OH257081   3.580   1.915   2.578 -0.2138  0.5491 -0.1114
11889TIP3    H157082   3.606   1.993   2.530  2.7194 -0.8788 -1.0460
11889TIP3    H257083   3.562   1.849   2.511  1.4344 -0.7278  0.6210
11890TIP3   OH257084   1.206   0.799   6.247  0.0871  0.2255  0.1918
11890TIP3    H157085   1.276   0.791   6.312 -1.0986  1.5527  1.7171
11890TIP3    H257086   1.204   0.892   6.226 -1.0588  0.1610 -0.0133
11891TIP3   OH257087   4.804   1.300  13.003 -0.2090 -0.5345  0.3158
11891TIP3    H157088   4.865   1.337  13.067 -1.1392  0.7247  0.5309
11891TIP3    H257089   4.763   1.227  13.049 -0.5394  0.0764  1.0350
11892TIP3   OH257090   6.072   4.860   1.437 -0.5105  0.1018 -0.1028
11892TIP3    H157091   6.112   4.909   1.509  0.3527  2.1169 -1.8610
11892TIP3    H257092   6.082   4.917   1.361  0.1376 -2.6063 -2.1985
11893TIP3   OH257093   4.031   4.330   5.766  0.0213 -0.0901 -0.3602
11893TIP3    H157094   4.034   4.372   5.852  0.5322  1.1950 -0.9771
11893TIP3    H257095   4.122   4.307   5.747 -0.2698 -1.6490  0.0278
11894TIP3   OH257096   6.075   4.166  11.322  0.0184  0.8724 -0.3430
11894TIP3    H157097   6.067   4.255  11.355  0.0079  1.0610 -0.8375
11894TIP3    H257098   6.156   4.134  11.360 -1.0817  0.2874  1.6418
11895TIP3   OH257099   5.066   5.324   6.134  0.2915 -0.0518 -0.5350
11895TIP3    H157100   5.058   5.418   6.145 -0.8262  0.1155 -2.4389
11895TIP3    H257101   5.123   5.296   6.206 -0.5252  1.8438  0.9295
11896TIP3   OH257102   0.237   0.104   2.015 -0.9923  0.1366 -0.3093
11896TIP3    H157103   0.301   0.043   2.052  0.8940  0.9270 -2.0490
11896TIP3    H257104   0.184   0.050   1.956  1.9526  0.3043 -3.4133
11897TIP3   OH257105   3.794   0.175  15.704 -0.3788  0.5712  0.1848
11897TIP3    H157106   3.822   0.223  15.625 -0.9827  0.5285 -0.0603
11897TIP3    H257107   3.699   0.170  15.696 -0.3201 -0.7714  0.1580
11898TIP3   OH257108   4.882   6.636   2.739  0.3421  0.7823  0.2709
11898TIP3    H157109   4.839   6.564   2.785  0.8011  0.4281  0.1460
11898TIP3    H257110   4.824   6.711   2.753 -0.5495  0.2137 -0.2653
11899TIP3   OH257111   4.754   1.280  16.445 -0.1238  0.0790 -0.2939
11899TIP3    H157112   4.787   1.356  16.493 -0.2710 -0.8328  1.3184
11899TIP3    H257113   4.749   1.210  16.510 -2.8493 -0.5231 -1.0162
11900TIP3   OH257114   3.280   2.900  10.085 -0.1252 -0.2310  0.2317
11900TIP3    H157115   3.361   2.951  10.092 -0.2818 -0.0254  0.5435
11900TIP3    H257116   3.281   2.866   9.995 -1.3947  2.6744 -1.0237
11901TIP3   OH257117   0.609   0.997  16.157  0.1791 -0.7607  0.1191
11901TIP3    H157118   0.608   0.992  16.253  0.5676 -0.5960  0.1308
11901TIP3    H257119   0.660   0.921  16.130  4.5834  1.8442  0.2443
11902TIP3   OH257120   4.512   5.364  16.377  0.8192 -0.1355 -0.0811
11902TIP3    H157121   4.471   5.418  16.444  0.5218 -0.5591  0.0806
11902TIP3    H257122   4.474   5.395  16.295  1.0248  0.2388 -0.0399
11903TIP3   OH257123   4.435   1.223  15.663  0.2982  0.1593  0.2644
11903TIP3    H157124   4.359   1.212  15.721 -0.8983  0.4810 -1.1587
11903TIP3    H257125   4.436   1.317  15.644  1.0291  0.1416  0.2140
11904TIP3   OH257126   3.805   0.419   2.303 -0.4463  0.0114 -0.2716
11904TIP3    H157127   3.884   0.452   2.259  0.1151  1.8583  1.9275
11904TIP3    H257128   3.733   0.458   2.254  0.0859  0.4961 -0.6861
11905TIP3   OH257129   4.264   1.547   3.219  0.2795  0.3910 -0.1100
11905TIP3    H157130   4.229   1.458   3.226 -0.2498  0.6125  0.2095
11905TIP3    H257131   4.353   1.536   3.185  0.4377 -0.3030  0.4945
11906TIP3   OH257132   5.946   2.378  10.904 -0.2357 -0.0678 -0.1544
11906TIP3    H157133   5.972   2.379  10.811  0.7237  0.3537  0.1063
11906TIP3    H257134   5.866   2.325  10.905 -1.1805  1.2266 -1.4482
11907TIP3   OH257135   1.430   5.396  15.261  0.1834 -0.2357  0.7033
11907TIP3    H157136   1.406   5.424  15.172  2.3957 -0.5929 -0.0855
11907TIP3    H257137   1.355   5.345  15.291  0.0639 -1.6578 -1.7115
11908TIP3   OH257138   1.138   2.153   1.406  0.0590  0.4897  0.0871
11908TIP3    H157139   1.114   2.151   1.313  0.0934 -0.8070  0.0838
11908TIP3    H257140   1.091   2.228   1.442  1.6779  2.3276 -1.3971
11909TIP3   OH257141   3.561   2.680  13.116 -0.3716 -0.5111  0.3014
11909TIP3    H157142   3.627   2.724  13.170 -2.5074  1.8976  1.1608
11909TIP3    H257143   3.542   2.742  13.046 -1.9900 -0.9418  0.3201
11910TIP3   OH257144   4.076   1.104   1.106 -0.7959  0.3243  0.2229
11910TIP3    H157145   4.075   1.125   1.012  2.0027 -0.5750 -0.1140
11910TIP3    H257146   4.083   1.189   1.149 -1.5367  0.7140 -0.3971
11911TIP3   OH257147   4.484   1.442  12.592 -0.1064  0.2310 -0.2101
11911TIP3    H157148   4.429   1.481  12.660  0.3412 -0.0206  0.2967
11911TIP3    H257149   4.441   1.467  12.510 -0.8279  0.2547  0.1711
11912TIP3   OH257150   1.616   6.693  11.076  0.1577  0.4946  0.0554
11912TIP3    H157151   1.675   6.742  11.019 -0.9873  1.7702 -0.0982
11912TIP3    H257152   1.590   6.617  11.025  1.0224  0.3306 -0.1696
11913TIP3   OH257153   2.476   1.888   2.074  0.1108 -0.1312 -0.0904
11913TIP3    H157154   2.429   1.906   1.992  0.8398  0.5713 -0.3737
11913TIP3    H257155   2.498   1.795   2.069  1.8669  0.2744 -1.6663
11914TIP3   OH257156   3.223   1.367  12.273 -0.9836 -0.1486 -0.5112
11914TIP3    H157157   3.136   1.399  12.296 -0.2297  1.5171  0.2663
11914TIP3    H257158   3.282   1.439  12.297  0.6663 -1.4316 -0.4949
11915TIP3   OH257159   0.116   2.675   3.450  0.6545 -0.0610  0.1292
11915TIP3    H157160   0.138   2.583   3.469  2.4218  0.4715  0.9176
11915TIP3    H257161   0.115   2.680   3.355  0.5805 -0.8856  0.0736
11916TIP3   OH257162   3.100   5.065  10.573  0.0826  0.7274  0.9462
11916TIP3    H157163   3.119   4.997  10.509 -0.4935  0.6235  0.8854
11916TIP3    H257164   3.045   5.128  10.527  0.2771  1.0333  1.1212
11917TIP3   OH257165   5.199   5.846   2.668 -0.8409  0.7356  0.1751
11917TIP3    H157166   5.128   5.909   2.658 -0.5835  1.0012 -0.0138
11917TIP3    H257167   5.231   5.832   2.579 -1.1111  0.0842  0.1785
11918TIP3   OH257168   4.334   3.833  12.343 -0.4116  0.3051 -0.6384
11918TIP3    H157169   4.246   3.800  12.360  0.4148 -1.9225 -0.3860
11918TIP3    H257170   4.374   3.768  12.286  2.5027 -1.2344  2.7339
11919TIP3   OH257171   2.559   2.075  15.030  0.1168 -0.0488  0.0295
11919TIP3    H157172   2.490   2.009  15.035 -0.5601  0.7473  1.7196
11919TIP3    H257173   2.631   2.039  15.082 -0.6742  0.9740  1.9209
11920TIP3   OH257174   1.593   5.108  11.165  0.6857  0.0596  0.0178
11920TIP3    H157175   1.549   5.080  11.085  0.6497  0.0274  0.0489
11920TIP3    H257176   1.599   5.029  11.219 -2.9379  0.7638  1.7962
11921TIP3   OH257177   2.424   0.540  15.534  0.3855 -0.2723  0.5317
11921TIP3    H157178   2.374   0.471  15.490 -1.6544  1.2588  0.2665
11921TIP3    H257179   2.441   0.604  15.465  2.1914 -0.4476  0.7896
11922TIP3   OH257180   1.850   3.718  15.401  0.7071 -0.1664  0.8543
11922TIP3    H157181   1.940   3.693  15.381  0.3059  0.7226 -2.8248
11922TIP3    H257182   1.852   3.814  15.407 -0.0826 -0.0267 -0.4550
11923TIP3   OH257183   3.344   0.436  11.280  0.4522  0.0681 -0.3212
11923TIP3    H157184   3.431   0.473  11.293  0.2505  1.1184 -1.7317
11923TIP3    H257185   3.322   0.394  11.363  1.6767  1.0865  0.5335
11924TIP3   OH257186   2.973   0.780  12.679 -0.3051 -0.4216  0.0506
11924TIP3    H157187   2.930   0.803  12.761 -0.1424  1.7325 -0.4172
11924TIP3    H257188   3.012   0.694  12.695 -0.5281 -0.1771  2.1137
11925TIP3   OH257189   0.858   6.354  15.090  0.0986  0.3850 -0.6299
11925TIP3    H157190   0.875   6.406  15.169  1.3105  0.3982 -0.8809
11925TIP3    H257191   0.803   6.410  15.036 -0.9951  0.2652  0.3163
11926TIP3   OH257192   2.333   3.495  10.981  0.3136 -1.1095  0.3391
11926TIP3    H157193   2.332   3.407  11.017  0.3132 -1.7415 -1.1356
11926TIP3    H257194   2.423   3.526  10.995  0.6703 -1.8464 -0.2746
11927TIP3   OH257195   6.114   6.016   3.940  0.2670  0.2128 -0.3905
11927TIP3    H157196   6.144   5.931   3.973 -1.0316 -0.0434  0.1996
11927TIP3    H257197   6.127   6.076   4.014 -1.4069 -0.0806  0.1719
11928TIP3   OH257198   2.797   4.739  15.903  0.0258  0.7999 -0.3045
11928TIP3    H157199   2.794   4.821  15.952 -2.6496  0.1899  0.7560
11928TIP3    H257200   2.723   4.745  15.842 -0.5213 -0.9773  0.1248
11929TIP3   OH257201   1.243   5.148   0.222 -0.3140 -0.1970 -0.0629
11929TIP3    H157202   1.316   5.108   0.268 -2.4161 -2.6662  1.3566
11929TIP3    H257203   1.205   5.209   0.286 -1.3485 -1.2941  0.4049
11930TIP3   OH257204   6.414   5.659   1.920  0.1534 -0.4036  0.5657
11930TIP3    H157205   6.363   5.647   2.000  0.1102  1.2157  0.8062
11930TIP3    H257206   6.420   5.753   1.909 -0.6508 -0.5606 -1.8803
11931TIP3   OH257207   4.813   3.473  12.835  0.0276 -0.1393  0.4267
11931TIP3    H157208   4.726   3.498  12.804  0.0593  0.3092  0.6853
11931TIP3    H257209   4.808   3.481  12.930 -0.1818 -1.8730  0.5926
11932TIP3   OH257210   4.697   0.618  12.308 -0.4044  0.1611 -0.1751
11932TIP3    H157211   4.698   0.645  12.400 -0.3196  1.5036 -0.5435
11932TIP3    H257212   4.649   0.688  12.263 -0.5750 -0.5513 -1.1343
11933TIP3   OH257213   5.200   4.085  11.160 -0.4112 -0.2521 -0.3738
11933TIP3    H157214   5.178   4.146  11.230  0.0109  1.2824 -1.5272
11933TIP3    H257215   5.278   4.122  11.119 -0.0261 -1.6794 -1.0060
11934TIP3   OH257216   0.110   1.684  16.176  0.4335  0.2553 -0.1036
11934TIP3    H157217   0.097   1.613  16.113 -0.2277  0.3111 -0.0400
11934TIP3    H257218   0.102   1.642  16.261 -0.9839  0.5585 -0.0575
11935TIP3   OH257219   5.198   4.993  16.610  0.1249 -0.1277  0.5208
11935TIP3    H157220   5.160   4.905  16.606  0.4800 -0.3384  1.4926
11935TIP3    H257221   5.193   5.017  16.702  1.6843  0.1329  0.5733
11936TIP3   OH257222   2.365   5.627  15.853 -0.3595  0.0795  0.4474
11936TIP3    H157223   2.405   5.586  15.777 -0.3814  1.2023 -0.1906
11936TIP3    H257224   2.277   5.590  15.857  0.9114 -3.1077  2.4080
11937TIP3   OH257225   4.242   4.062   4.948 -0.0342  0.3626  0.2132
11937TIP3    H157226   4.300   4.135   4.930 -0.6867  0.4747 -1.6467
11937TIP3    H257227   4.281   3.987   4.903 -0.3421 -0.0053  0.5433
11938TIP3   OH257228   3.201   4.590  14.118 -0.1677 -0.1325  0.3339
11938TIP3    H157229   3.219   4.515  14.060  0.4875 -0.1706  0.5807
11938TIP3    H257230   3.119   4.567  14.161 -0.4729 -0.2704 -0.3082
11939TIP3   OH257231   4.643   4.334  11.076 -0.0026  0.1468  0.6145
11939TIP3    H157232   4.575   4.401  11.072  0.5739  0.7810  1.2150
11939TIP3    H257233   4.716   4.370  11.027  0.7150  0.4609  1.8606
11940TIP3   OH257234   1.294   0.472   2.840 -0.2573  0.2674  0.2565
11940TIP3    H157235   1.325   0.495   2.928  0.9301 -0.0779 -0.0568
11940TIP3    H257236   1.340   0.391   2.819  0.2722  0.9020 -1.1028
11941TIP3   OH257237   3.430   5.849   6.145  0.1192  0.7043 -0.1464
11941TIP3    H157238   3.445   5.827   6.053 -0.3829  1.7308 -0.4868
11941TIP3    H257239   3.499   5.803   6.192  0.9784  0.9419 -1.1332
11942TIP3   OH257240   1.535   5.686   2.457  0.8292 -0.4098  0.1084
11942TIP3    H157241   1.581   5.695   2.541  1.1123  1.5476 -0.2187
11942TIP3    H257242   1.568   5.758   2.403 -0.4892 -0.7033 -1.1576
11943TIP3   OH257243   1.804   6.403  14.229 -0.2309  0.3558 -0.1532
11943TIP3    H157244   1.877   6.422  14.288 -1.2806  1.1902  0.9083
11943TIP3    H257245   1.827   6.450  14.148 -0.6041  2.5280  0.9181
11944TIP3   OH257246   3.655   4.478   6.267 -0.3217 -0.2403 -0.1563
11944TIP3    H157247   3.579   4.421   6.255 -0.3963 -0.1807  0.0275
11944TIP3    H257248   3.667   4.481   6.362  0.3553 -0.8400 -0.2101
11945TIP3   OH257249   6.010   1.337  17.190 -0.0973  0.0536  0.4164
11945TIP3    H157250   5.928   1.371  17.157  0.7677  1.0893 -0.7548
11945TIP3    H257251   6.046   1.284  17.119  0.5889  0.2024  0.6399
11946TIP3   OH257252   0.632   1.222   3.034 -0.0012 -0.5288 -0.3421
11946TIP3    H157253   0.611   1.130   3.054  4.8554 -2.2615 -1.7053
11946TIP3    H257254   0.572   1.245   2.963 -1.1024 -2.8109 -0.2645
11947TIP3   OH257255   6.741   5.660   3.050  0.5109  0.1303  0.0244
11947TIP3    H157256   6.836   5.656   3.059  0.3960 -1.3258  0.8462
11947TIP3    H257257   6.710   5.579   3.089 -0.9932 -0.0277 -1.3934
11948TIP3   OH257258   0.027   5.633   0.358  0.6911 -0.4798  0.1206
11948TIP3    H157259   0.045   5.559   0.300  0.2309  0.3839 -1.1836
11948TIP3    H257260   0.073   5.707   0.317 -1.6712  0.7048 -0.6033
11949TIP3   OH257261   6.266   1.564  16.507 -0.1070  0.7365 -0.3846
11949TIP3    H157262   6.213   1.484  16.504  1.1238 -0.1089 -1.7856
11949TIP3    H257263   6.249   1.607  16.423  0.0667  1.3649 -0.1005
11950TIP3   OH257264   2.536   4.932   5.230  0.2343 -0.1750  0.3247
11950TIP3    H157265   2.537   4.836   5.236 -3.9268 -0.3339  1.2381
11950TIP3    H257266   2.546   4.961   5.321  0.1615  0.2189  0.2088
11951TIP3   OH257267   5.688   2.432   0.380 -0.8262 -0.2538 -0.3472
11951TIP3    H157268   5.754   2.434   0.312 -0.5644  0.7894 -0.0817
11951TIP3    H257269   5.607   2.458   0.336 -0.3092  2.3479  0.0499
11952TIP3   OH257270   5.354   3.531   5.716  0.0099  0.2097 -0.1240
11952TIP3    H157271   5.323   3.595   5.780 -1.6758 -1.1302  0.4755
11952TIP3    H257272   5.375   3.583   5.638  0.5202  1.6778  0.9562
11953TIP3   OH257273   4.831   3.742  10.445  0.2992  0.3420  0.0032
11953TIP3    H157274   4.884   3.743  10.365  1.4710  0.2895  0.7591
11953TIP3    H257275   4.750   3.697  10.419 -0.1212  1.9157 -1.6149
11954TIP3   OH257276   3.585   5.020  12.248 -0.0118 -0.1535  0.2419
11954TIP3    H157277   3.502   5.027  12.200 -0.1134 -0.8148  0.3102
11954TIP3    H257278   3.651   5.051  12.186  0.1132 -2.8444 -1.0944
11955TIP3   OH257279   6.215   0.381  12.483  0.0020  0.0843  0.0029
11955TIP3    H157280   6.176   0.356  12.566  2.0265 -0.7578  0.7392
11955TIP3    H257281   6.261   0.303  12.452  1.6546  1.1817 -0.4846
11956TIP3   OH257282   0.192   4.100  16.988 -0.3606 -0.6722  0.1926
11956TIP3    H157283   0.280   4.133  16.970  0.0510 -1.4910  0.6207
11956TIP3    H257284   0.134   4.156  16.937  0.3566  0.2536  0.3669
11957TIP3   OH257285   4.659   1.941  16.787 -1.0033  0.0483 -0.2668
11957TIP3    H157286   4.568   1.970  16.795 -0.2801  2.2074  0.7594
11957TIP3    H257287   4.685   1.970  16.699 -1.6841 -1.9377 -1.1997
11958TIP3   OH257288   4.025   3.998   1.384  0.2317 -0.1503  0.0218
11958TIP3    H157289   4.091   3.933   1.361 -0.8337 -0.5555 -2.2192
11958TIP3    H257290   4.007   3.983   1.477  0.6325 -2.4915 -0.2200
11959TIP3   OH257291   2.120   6.322   4.009  0.5795  0.0372 -0.5488
11959TIP3    H157292   2.125   6.260   4.082 -0.1740  0.7868  0.1672
11959TIP3    H257293   2.123   6.409   4.051 -1.8542  0.5053 -1.1954
11960TIP3   OH257294   4.609   6.445   1.297 -0.0348 -0.1849  0.5501
11960TIP3    H157295   4.640   6.432   1.207  0.7531 -1.1900  0.9474
11960TIP3    H257296   4.543   6.514   1.290 -0.0317 -0.2948 -0.8089
11961TIP3   OH257297   5.822   3.358   2.616  0.1451 -0.3007 -0.2696
11961TIP3    H157298   5.872   3.376   2.536  0.3131 -2.1174 -0.6124
11961TIP3    H257299   5.872   3.289   2.661  0.2767  0.9478  1.6313
11962TIP3   OH257300   2.143   1.556  14.323 -0.0411 -0.0639 -0.3508
11962TIP3    H157301   2.088   1.487  14.361  0.2245  0.1089  0.3721
11962TIP3    H257302   2.186   1.595  14.399  1.4557 -0.5176 -0.9350
11963TIP3   OH257303   6.068   2.826  16.704 -0.1074 -0.4805 -0.0810
11963TIP3    H157304   6.161   2.829  16.683 -0.3553 -0.9627 -1.3233
11963TIP3    H257305   6.065   2.808  16.798  1.0675 -2.9836 -0.4331
11964TIP3   OH257306   5.714   6.565   5.964  0.1116 -0.4137 -0.1969
11964TIP3    H157307   5.645   6.618   6.004 -1.2233 -3.8824  2.6281
11964TIP3    H257308   5.792   6.584   6.018 -0.3076 -1.0884  0.6709
11965TIP3   OH257309   6.504   2.351  10.440 -0.1902  0.0060  0.0841
11965TIP3    H157310   6.454   2.428  10.414  0.9147  0.8953  0.5630
11965TIP3    H257311   6.443   2.278  10.426 -0.8197  0.8013 -1.6069
11966TIP3   OH257312   0.261   1.290  12.276  0.2615  0.2352  0.7273
11966TIP3    H157313   0.220   1.374  12.300  0.3865  0.0277  1.7222
11966TIP3    H257314   0.199   1.249  12.216  0.0145  0.8751  0.5390
11967TIP3   OH257315   3.557   4.161  10.917 -0.8351  0.4381  0.0706
11967TIP3    H157316   3.562   4.066  10.926  0.1757  0.5852  1.3943
11967TIP3    H257317   3.616   4.181  10.845 -0.2799  0.1404  0.4373
11968TIP3   OH257318   2.642   6.447  16.563  0.0143 -0.5645  0.3984
11968TIP3    H157319   2.730   6.430  16.529  0.3924  0.2296  0.9406
11968TIP3    H257320   2.650   6.435  16.658 -0.0444  1.0938  0.6453
11969TIP3   OH257321   4.774   0.324  14.986 -0.1738 -0.2773 -0.5559
11969TIP3    H157322   4.724   0.351  15.063  1.5910 -1.1250  0.9743
11969TIP3    H257323   4.717   0.263  14.940 -1.2846  0.2840  0.0502
11970TIP3   OH257324   1.474   1.561   1.399 -0.4929  0.0823 -0.0929
11970TIP3    H157325   1.567   1.576   1.381 -0.4709  0.2454  0.1627
11970TIP3    H257326   1.470   1.470   1.430 -0.4104  0.0974 -0.0389
11971TIP3   OH257327   4.486   1.735  16.036  0.2253 -0.2690  0.2783
11971TIP3    H157328   4.507   1.823  16.067  1.0179 -0.4052  0.1478
11971TIP3    H257329   4.506   1.678  16.110 -1.5841 -0.2236  0.8415
11972TIP3   OH257330   5.215   0.612   4.901  0.1286  0.1351 -0.1850
11972TIP3    H157331   5.184   0.555   4.831  1.8853 -0.2138 -0.7389
11972TIP3    H257332   5.235   0.552   4.974  0.0879  0.2770 -0.0570
11973TIP3   OH257333   6.047   4.440   2.966  0.2242 -0.1334  0.7033
11973TIP3    H157334   6.037   4.535   2.953 -0.8387 -0.2151  0.8415
11973TIP3    H257335   5.988   4.401   2.901  1.3131 -0.7393  0.0382
11974TIP3   OH257336   2.211   1.315   2.247  0.2172  0.3278  0.0393
11974TIP3    H157337   2.236   1.399   2.208 -0.6108  1.5610  1.9946
11974TIP3    H257338   2.123   1.298   2.214 -0.3778  1.2370  1.0768
11975TIP3   OH257339   1.855   5.592  13.803 -0.2596 -0.4957 -0.0467
11975TIP3    H157340   1.862   5.575  13.709  1.4122 -0.0136 -0.0390
11975TIP3    H257341   1.883   5.683  13.813 -0.8639 -0.3963  0.8790
11976TIP3   OH257342   0.771   2.157  14.345  0.0638  0.7886 -0.2205
11976TIP3    H157343   0.782   2.101  14.268 -1.5024 -1.0630  0.7763
11976TIP3    H257344   0.859   2.169  14.380  0.8024  1.6698 -2.2486
11977TIP3   OH257345   5.633   2.544  11.979  0.1074 -0.5018  0.7638
11977TIP3    H157346   5.689   2.466  11.983  0.0135 -0.7105 -1.0284
11977TIP3    H257347   5.564   2.520  11.917 -0.2480  0.8093  0.6222
11978TIP3   OH257348   0.013   1.975   2.946  0.3868  0.1666  0.2817
11978TIP3    H157349  -0.079   2.003   2.946  0.1815 -0.2565 -2.5257
11978TIP3    H257350   0.018   1.910   3.016 -1.5967 -0.2191  0.1198
11979TIP3   OH257351   1.193   4.476  11.791 -0.5842 -0.3310 -0.3420
11979TIP3    H157352   1.251   4.532  11.843 -1.3264 -0.6698  0.8845
11979TIP3    H257353   1.210   4.501  11.700  1.2971 -0.2380 -0.0049
11980TIP3   OH257354   2.856   2.096   0.269  0.3676  0.1348  0.0914
11980TIP3    H157355   2.852   2.077   0.175 -1.0662  0.6049  0.0370
11980TIP3    H257356   2.778   2.054   0.306 -0.0262  1.4079  0.7779
11981TIP3   OH257357   2.893   0.957   6.706 -0.3050 -0.2387  0.0496
11981TIP3    H157358   2.987   0.950   6.691 -0.0729  1.1314  0.7737
11981TIP3    H257359   2.853   0.929   6.623  0.6676 -2.1310  0.1531
11982TIP3   OH257360   4.698   0.288   6.215 -0.2468  0.3254 -0.4041
11982TIP3    H157361   4.751   0.316   6.290 -1.0687  0.4242  0.1448
11982TIP3    H257362   4.705   0.193   6.214  0.1060  0.3506 -0.4604
11983TIP3   OH257363   3.949   4.628   1.200  0.1872 -0.1232 -0.6929
11983TIP3    H157364   3.906   4.576   1.131 -0.6410  1.0483 -1.0842
11983TIP3    H257365   4.036   4.589   1.207  0.0336 -0.7525 -1.8737
11984TIP3   OH257366   0.050   4.498  13.243  0.0024 -0.3526  0.3467
11984TIP3    H157367   0.081   4.445  13.317  0.2973 -0.0580  0.4371
11984TIP3    H257368   0.047   4.437  13.169  1.5295 -0.2366  0.1480
11985TIP3   OH257369   2.424   4.286  12.389  0.1520 -0.1760 -0.2585
11985TIP3    H157370   2.369   4.208  12.384 -0.9394  0.5618 -0.0107
11985TIP3    H257371   2.396   4.330  12.469  0.9033  0.3675 -0.2867
11986TIP3   OH257372   4.881   0.740   5.716 -0.0600 -0.1521 -0.0639
11986TIP3    H157373   4.859   0.647   5.727 -0.8548  0.1747  1.3419
11986TIP3    H257374   4.956   0.739   5.657 -0.7169 -1.6214 -0.9393
11987TIP3   OH257375   2.437   2.486  11.458  0.1767  0.3721 -0.2376
11987TIP3    H157376   2.523   2.501  11.419  0.2899  1.0752  0.2583
11987TIP3    H257377   2.428   2.555  11.524  1.1536 -2.2830  2.9441
11988TIP3   OH257378   5.746   2.936   1.439 -0.2688 -0.6945  0.1615
11988TIP3    H157379   5.808   2.994   1.483  0.9210 -0.4283 -1.7430
11988TIP3    H257380   5.792   2.852   1.432 -0.5232 -0.7964 -0.3487
11989TIP3   OH257381   2.147   3.875   2.737  0.3866  0.2610 -0.1199
11989TIP3    H157382   2.104   3.880   2.651  0.0490 -0.2310  0.0101
11989TIP3    H257383   2.236   3.906   2.721  0.2659  0.3766 -0.6041
11990TIP3   OH257384   3.393   3.414  11.709 -0.1703  0.1689  0.1544
11990TIP3    H157385   3.303   3.437  11.684 -0.2431 -1.9916 -1.8695
11990TIP3    H257386   3.444   3.427  11.629  1.0247 -0.1894  0.8456
11991TIP3   OH257387   0.060   0.372  15.624 -0.0383  0.2330  0.5329
11991TIP3    H157388   0.033   0.444  15.566 -1.3476  0.7611  1.7460
11991TIP3    H257389  -0.019   0.348  15.672  0.6818 -1.1557  1.0952
11992TIP3   OH257390   3.464   4.053  16.971  0.3472  0.3046  0.4787
11992TIP3    H157391   3.402   4.015  17.033  0.6739 -0.5216  0.3077
11992TIP3    H257392   3.425   4.137  16.946 -0.6105 -0.1251  0.5127
11993TIP3   OH257393   1.760   6.661   4.696 -0.3923  0.1144  0.3643
11993TIP3    H157394   1.747   6.743   4.649 -0.7279 -0.1026  0.0766
11993TIP3    H257395   1.672   6.625   4.706 -0.3285  0.1733  1.1846
11994TIP3   OH257396   5.896   5.532   3.382 -0.4537  0.0529  0.0482
11994TIP3    H157397   5.956   5.539   3.308 -1.1777  2.1538 -0.4087
11994TIP3    H257398   5.947   5.561   3.458 -0.4045  0.2670 -0.0656
11995TIP3   OH257399   5.212   2.015  12.412  0.5933  0.5043 -0.2257
11995TIP3    H157400   5.123   1.991  12.388  0.3032  0.9436  0.3642
11995TIP3    H257401   5.220   2.107  12.385  1.5972 -0.1091 -2.2247
11996TIP3   OH257402   4.008   5.282  10.741 -0.0088 -0.4820 -0.3434
11996TIP3    H157403   4.084   5.230  10.767  1.0001  1.2707  0.4008
11996TIP3    H257404   4.040   5.337  10.670 -0.9429 -0.5839 -0.8586
11997TIP3   OH257405   0.055   4.272  13.044  0.3867 -0.4755 -0.0819
11997TIP3    H157406  -0.013   4.207  13.023 -0.1428 -0.5687  1.7535
11997TIP3    H257407   0.085   4.303  12.959 -1.5378 -0.8682 -0.9671
11998TIP3   OH257408   2.466   4.385   0.318 -0.5073 -0.3324 -0.0027
11998TIP3    H157409   2.388   4.439   0.326 -0.0598  0.1248  1.5884
11998TIP3    H257410   2.513   4.420   0.242 -1.7684 -0.5531 -0.9129
11999TIP3   OH257411   1.686   3.095  11.867  0.3395  0.0139 -0.3700
11999TIP3    H157412   1.778   3.123  11.870  0.4071 -0.3003  1.0746
11999TIP3    H257413   1.636   3.174  11.887  0.3596 -0.1234  0.2166
12000TIP3   OH257414   4.730   3.010  13.412 -0.5226  0.3479 -0.0920
12000TIP3    H157415   4.688   3.063  13.344 -0.5882  1.7867  1.0410
12000TIP3    H257416   4.769   2.936  13.364  1.3991  2.4654 -2.0288
12001TIP3   OH257417   6.017   4.859  12.589 -0.3429  0.1238 -0.3068
12001TIP3    H157418   6.008   4.886  12.680 -1.5632 -0.6268 -0.1852
12001TIP3    H257419   5.933   4.882  12.548  0.1061  0.2457 -1.1883
12002TIP3   OH257420   6.343   5.820   2.245  0.0107  0.1843 -0.4288
12002TIP3    H157421   6.399   5.893   2.272 -1.0295  0.3778  1.3460
12002TIP3    H257422   6.254   5.856   2.247 -0.9093 -1.8126  3.4920
12003TIP3   OH257423   4.330   3.025   1.829  0.5155  0.3366  0.0889
12003TIP3    H157424   4.295   2.937   1.813 -0.3630  0.6299  0.3380
12003TIP3    H257425   4.414   3.010   1.872  0.1753 -0.3767  0.5277
12004TIP3   OH257426   6.657   1.143  15.459 -0.1179  0.1876  0.1749
12004TIP3    H157427   6.596   1.098  15.517  0.5289  0.3536  0.9795
12004TIP3    H257428   6.735   1.159  15.511  1.0634 -0.9672 -1.1538
12005TIP3   OH257429   1.472   5.464  14.547 -0.4021 -0.1764  0.4658
12005TIP3    H157430   1.559   5.502  14.534 -0.8206  1.9742  3.2037
12005TIP3    H257431   1.416   5.510  14.485 -0.2841  1.4392  1.5016
12006TIP3   OH257432   6.425   3.745  15.700 -0.2391 -0.5685 -0.4093
12006TIP3    H157433   6.388   3.744  15.788 -0.7624 -1.1716 -0.6215
12006TIP3    H257434   6.471   3.828  15.693 -0.9049 -0.1502  0.1483
12007TIP3   OH257435   3.605   2.779  12.830 -0.1023 -0.2816  0.0638
12007TIP3    H157436   3.567   2.699  12.796 -1.8039  0.1379  0.8979
12007TIP3    H257437   3.608   2.838  12.755  1.1839 -1.0808 -0.5600
12008TIP3   OH257438   2.688   4.227  13.501  0.3760  0.2281 -0.3516
12008TIP3    H157439   2.746   4.207  13.575 -0.4341 -1.8026 -0.2035
12008TIP3    H257440   2.641   4.146  13.485 -1.7646  1.5439 -1.0736
12009TIP3   OH257441   6.109   1.130   0.681 -0.5399 -0.3836  0.2873
12009TIP3    H157442   6.180   1.158   0.623 -1.4474 -0.2409 -0.7898
12009TIP3    H257443   6.152   1.074   0.746  0.8824  1.2884  0.8977
12010TIP3   OH257444   5.789   3.175  12.651  0.3924  0.0508 -0.1664
12010TIP3    H157445   5.779   3.193  12.558  0.0107  0.9230  0.0302
12010TIP3    H257446   5.752   3.252  12.694 -0.0334 -0.6264  0.7131
12011TIP3   OH257447   0.217   0.366   4.109 -0.2444  0.3467 -1.1046
12011TIP3    H157448   0.156   0.439   4.123  1.0863  1.3406 -0.2055
12011TIP3    H257449   0.300   0.409   4.087  0.7644 -0.8625  0.1944
12012TIP3   OH257450   4.242   3.730  15.192  0.0268  0.2323 -0.1166
12012TIP3    H157451   4.175   3.779  15.145 -0.0129  0.4556  0.1737
12012TIP3    H257452   4.195   3.689  15.265 -0.0062 -0.5050 -0.5427
12013TIP3   OH257453   6.774   0.209  13.747 -0.1699  0.2515  0.3469
12013TIP3    H157454   6.682   0.195  13.770 -0.2292  0.1949  0.0711
12013TIP3    H257455   6.811   0.121  13.738 -0.3784  0.2697 -0.7143
12014TIP3   OH257456   2.440   4.953   0.206  0.3673 -0.3761  0.1483
12014TIP3    H157457   2.429   4.861   0.182  0.1501 -0.5852  1.0374
12014TIP3    H257458   2.354   4.992   0.195  0.1240 -0.6109  1.1502
12015TIP3   OH257459   2.245   4.328   3.361  0.2759  0.4513 -0.4082
12015TIP3    H157460   2.165   4.276   3.355  0.6655 -0.3842  1.2006
12015TIP3    H257461   2.316   4.263   3.359  0.7523  0.7843  2.2557
12016TIP3   OH257462   4.077   4.885   2.262 -0.0454 -0.2216  0.0915
12016TIP3    H157463   4.125   4.962   2.231 -1.0422  0.9281  1.2590
12016TIP3    H257464   4.139   4.837   2.316  0.1256  0.6709  0.7056
12017TIP3   OH257465   1.858   2.827   5.280 -0.5574 -0.2109  0.1942
12017TIP3    H157466   1.933   2.771   5.259 -1.1127 -0.8395 -0.1649
12017TIP3    H257467   1.896   2.909   5.309  0.3517 -1.4982  2.9820
12018TIP3   OH257468   0.726   6.360   3.820  0.4844  0.2854  0.0854
12018TIP3    H157469   0.732   6.332   3.729 -2.2695 -1.7753  0.4037
12018TIP3    H257470   0.689   6.448   3.816 -3.0674 -1.0606 -0.9113
12019TIP3   OH257471   4.513   1.554   3.087 -0.0184  0.3313  0.8186
12019TIP3    H157472   4.474   1.488   3.030 -0.0904  1.0490  0.0244
12019TIP3    H257473   4.607   1.536   3.084  0.7342  3.3147 -3.6091
12020TIP3   OH257474   3.684   2.787   5.904  0.6210 -0.1963  0.1917
12020TIP3    H157475   3.693   2.878   5.930  1.1594  0.4608 -2.0851
12020TIP3    H257476   3.591   2.777   5.882  0.5958 -0.1807  0.2875
12021TIP3   OH257477   5.573   5.835  13.564  0.2287  0.7995  0.2417
12021TIP3    H157478   5.644   5.837  13.627  1.7144  3.1847 -1.3418
12021TIP3    H257479   5.517   5.908  13.588  0.0444  0.8637 -0.3570
12022TIP3   OH257480   5.118   3.444  11.914 -0.2636  0.2775 -0.2070
12022TIP3    H157481   5.150   3.517  11.965  0.8527 -0.1479 -0.2764
12022TIP3    H257482   5.023   3.458  11.908 -0.0457  1.8090 -0.3884
12023TIP3   OH257483   5.868   5.919   5.137 -0.4558  0.1895 -0.2157
12023TIP3    H157484   5.821   5.838   5.116  1.3952 -0.8417 -0.5406
12023TIP3    H257485   5.834   5.983   5.073 -0.7237 -0.7750 -1.0638
12024TIP3   OH257486   4.511   3.616  15.073  0.2096 -0.2257  0.3329
12024TIP3    H157487   4.501   3.524  15.099 -1.5893 -0.6786 -1.6510
12024TIP3    H257488   4.425   3.655  15.088  0.7791  0.9869  0.5712
12025TIP3   OH257489   6.207   4.649  17.056  0.2227 -0.5030 -0.1587
12025TIP3    H157490   6.255   4.712  17.002  1.5834 -0.0692  1.5087
12025TIP3    H257491   6.147   4.702  17.107 -0.3468 -0.8219 -0.4804
12026TIP3   OH257492   3.586   3.824   0.563  0.2468  0.1837  0.3578
12026TIP3    H157493   3.639   3.881   0.507 -1.2848  1.5754  0.2335
12026TIP3    H257494   3.597   3.737   0.525 -1.4989  1.1696 -2.8529
12027TIP3   OH257495   1.747   1.250  14.711 -0.5395  0.3684  0.3493
12027TIP3    H157496   1.755   1.259  14.616 -1.5671 -0.6496  0.1508
12027TIP3    H257497   1.708   1.333  14.740 -1.2649  0.2491 -0.2642
12028TIP3   OH257498   1.497   3.285   0.124  0.4143 -0.8334  0.0434
12028TIP3    H157499   1.462   3.301   0.036  1.6207  0.0563 -0.2870
12028TIP3    H257500   1.435   3.328   0.182  0.3482 -0.2301 -0.4621
12029TIP3   OH257501   5.580   4.624   2.181 -0.2293  0.0874  0.4146
12029TIP3    H157502   5.496   4.599   2.141 -1.3867  1.1738  2.0566
12029TIP3    H257503   5.583   4.573   2.262  0.6990  0.0995  0.3945
12030TIP3   OH257504   6.702   5.331  16.747 -0.5908  0.3392 -0.1068
12030TIP3    H157505   6.780   5.385  16.735 -0.2193  0.1693  1.3464
12030TIP3    H257506   6.644   5.356  16.675  0.6003  0.8149 -0.9274
12031TIP3   OH257507   3.476   1.366   2.554  0.1579  0.3529 -0.0718
12031TIP3    H157508   3.570   1.382   2.544  0.0825  1.1796  0.4364
12031TIP3    H257509   3.470   1.274   2.579  0.9130  0.5532  0.9067
12032TIP3   OH257510   1.998   3.202  15.147 -0.3370  0.3543 -0.6437
12032TIP3    H157511   2.087   3.191  15.113  0.4462  0.7861  1.1577
12032TIP3    H257512   1.990   3.296  15.164 -0.1445  0.0014  1.6615
12033TIP3   OH257513   5.610   1.278   5.762 -0.1878  0.2786 -0.2869
12033TIP3    H157514   5.593   1.290   5.856 -2.5778  1.8325 -0.8207
12033TIP3    H257515   5.653   1.193   5.756 -1.9789 -0.9301  2.0435
12034TIP3   OH257516   2.738   4.584   2.091  0.6509  0.0216 -0.2519
12034TIP3    H157517   2.786   4.545   2.018  1.5913  1.1103 -0.2220
12034TIP3    H257518   2.787   4.557   2.168 -0.6427 -1.5799  0.0655
12035TIP3   OH257519   1.101   1.980  12.273 -0.0801 -0.7165  1.2741
12035TIP3    H157520   1.007   1.989  12.258 -0.0627 -0.5243  1.2789
12035TIP3    H257521   1.108   1.918  12.345 -0.2195 -0.4046  1.5606
12036TIP3   OH257522   5.599   4.789  12.821 -0.4633  0.1504 -0.4694
12036TIP3    H157523   5.511   4.754  12.838  0.4572 -3.2664 -1.7560
12036TIP3    H257524   5.658   4.722  12.856  1.6173  1.6417 -0.9520
12037TIP3   OH257525   2.211   3.882   0.234 -0.3045 -0.4674 -0.1118
12037TIP3    H157526   2.304   3.891   0.254 -0.6626  0.7019  1.2447
12037TIP3    H257527   2.183   3.970   0.209 -1.5951 -0.1094  2.2684
12038TIP3   OH257528   6.180   2.101   2.230 -0.2756  0.5747 -0.5834
12038TIP3    H157529   6.096   2.116   2.187  0.3617 -0.8224 -2.5099
12038TIP3    H257530   6.190   2.006   2.231  0.2049  0.5768  1.9271
12039TIP3   OH257531   5.237   4.965   3.530  0.6791  0.1957  0.0888
12039TIP3    H157532   5.153   5.008   3.547  1.5651  1.1150  2.6200
12039TIP3    H257533   5.219   4.872   3.546  0.4220  0.5448  2.1054
12040TIP3   OH257534   2.016   3.283   3.690 -0.0641  0.4929 -0.5861
12040TIP3    H157535   2.023   3.207   3.631 -0.8892 -1.0427  1.1886
12040TIP3    H257536   2.023   3.245   3.778 -1.5842  2.3454  0.4006
12041TIP3   OH257537   3.067   3.497  13.094  0.3028  0.0647 -0.0893
12041TIP3    H157538   3.026   3.491  13.181 -2.9365  0.8059 -1.4102
12041TIP3    H257539   3.018   3.435  13.041 -0.3180  2.1688 -2.1668
12042TIP3   OH257540   0.348   5.582  14.139 -0.1734 -0.1327 -0.5921
12042TIP3    H157541   0.368   5.546  14.225 -2.8918  0.1394  0.2517
12042TIP3    H257542   0.346   5.507  14.080 -0.7124 -0.6861  0.1140
12043TIP3   OH257543   2.888   4.785   3.872  0.2710  0.1664  0.0741
12043TIP3    H157544   2.846   4.708   3.833  1.9146 -0.4569 -0.5072
12043TIP3    H257545   2.901   4.761   3.964  1.0769 -0.3982 -0.1787
12044TIP3   OH257546   5.667   5.944   5.904  0.1173  0.0379 -0.3197
12044TIP3    H157547   5.730   5.964   5.973 -0.0158  1.2937 -0.5378
12044TIP3    H257548   5.715   5.889   5.843  1.2441  1.5119 -0.8253
12045TIP3   OH257549   6.551   6.372   2.378  0.3107 -0.1816 -0.1962
12045TIP3    H157550   6.556   6.290   2.328 -0.4126 -0.1506 -0.3232
12045TIP3    H257551   6.464   6.372   2.417  0.8225 -0.1474  0.9869
12046TIP3   OH257552   3.795   2.391  12.060  0.3264 -0.3365 -0.0469
12046TIP3    H157553   3.860   2.365  12.126  0.3792 -1.5966 -0.5677
12046TIP3    H257554   3.718   2.416  12.111  0.0289 -2.2246  0.4969
12047TIP3   OH257555   2.169   3.298   1.668  0.5565  0.3260 -0.1433
12047TIP3    H157556   2.259   3.292   1.700  0.3848 -0.0424  0.2828
12047TIP3    H257557   2.121   3.235   1.722 -0.1428  1.2174  0.2895
12048TIP3   OH257558   0.028   5.961   0.266  0.1562 -0.7257 -0.0657
12048TIP3    H157559   0.115   5.944   0.302  0.5149  0.2488 -0.4290
12048TIP3    H257560  -0.022   5.997   0.340  1.0873  1.9034 -0.5926
12049TIP3   OH257561   1.491   5.478   1.822 -0.2083  0.0378  0.3879
12049TIP3    H157562   1.483   5.423   1.900 -0.1564 -0.2815  0.1683
12049TIP3    H257563   1.401   5.506   1.803 -0.3899 -0.8802 -0.1533
12050TIP3   OH257564   4.629   3.086   3.856  0.3806 -0.3940  0.0227
12050TIP3    H157565   4.712   3.041   3.844 -1.1729 -2.8566 -2.9767
12050TIP3    H257566   4.573   3.023   3.900 -0.4883  0.4283  0.1274
12051TIP3   OH257567   0.575   5.192  14.856 -0.2771 -0.1071 -0.0317
12051TIP3    H157568   0.510   5.259  14.877 -1.9014 -1.6919  0.2384
12051TIP3    H257569   0.523   5.114  14.837  1.5551 -1.3183 -0.2541
12052TIP3   OH257570   0.099   5.816  11.484 -0.4541 -0.4225  0.1185
12052TIP3    H157571   0.116   5.819  11.389 -0.2041 -0.2806  0.1659
12052TIP3    H257572   0.039   5.889  11.499 -0.5956 -0.5239  0.0505
12053TIP3   OH257573   2.975   2.800  14.441 -0.6013 -0.0376 -0.0453
12053TIP3    H157574   2.967   2.812  14.536 -2.6050  0.3659 -0.2272
12053TIP3    H257575   2.907   2.737  14.419 -1.5747  1.4240 -1.4550
12054TIP3   OH257576   0.954   3.670   0.249  0.1387  0.1784 -0.4483
12054TIP3    H157577   0.936   3.630   0.164  2.0799 -1.5827 -0.1091
12054TIP3    H257578   0.916   3.610   0.313  1.2064 -0.0410  0.0014
12055TIP3   OH257579   6.169   1.905   2.580  0.4366 -0.1118 -0.4157
12055TIP3    H157580   6.229   1.898   2.506  2.8379 -2.8665  1.5791
12055TIP3    H257581   6.111   1.829   2.572  0.5596 -0.2985  0.3599
12056TIP3   OH257582   0.040   6.591   0.975  0.3707  0.1978  0.0883
12056TIP3    H157583  -0.015   6.586   1.053  1.2736 -0.2475  0.7046
12056TIP3    H257584  -0.021   6.581   0.902 -0.2754 -1.0775  0.7774
12057TIP3   OH257585   0.653   0.251   4.940  0.2554  0.0530  0.2016
12057TIP3    H157586   0.605   0.249   4.857 -2.1879  3.6636  1.2821
12057TIP3    H257587   0.619   0.176   4.989 -0.9158 -0.0649 -0.7472
12058TIP3   OH257588   2.686   4.362  11.461  0.3260  0.2810 -0.5598
12058TIP3    H157589   2.643   4.441  11.493  2.1233  1.1088 -0.0981
12058TIP3    H257590   2.647   4.346  11.375 -1.4369  0.5254  0.1377
12059TIP3   OH257591   1.673   6.653   0.205  0.7351 -0.0668  0.6345
12059TIP3    H157592   1.689   6.719   0.272  0.3667  2.5111 -1.6456
12059TIP3    H257593   1.701   6.571   0.245  1.2521  1.4270  3.6132
12060TIP3   OH257594   5.152   2.164   5.804  0.1718 -0.0071  0.3464
12060TIP3    H157595   5.083   2.229   5.814 -0.0527 -0.4167  1.6119
12060TIP3    H257596   5.211   2.180   5.878  2.1422  1.1403 -1.3728
12061TIP3   OH257597   1.680   1.861  15.908  0.0397  0.2549  0.2148
12061TIP3    H157598   1.610   1.797  15.894 -0.9302  1.3381 -0.0518
12061TIP3    H257599   1.725   1.831  15.987 -0.3424 -0.7993  0.0372
12062TIP3   OH257600   6.479   5.366  13.920  0.3989  0.0880  0.1442
12062TIP3    H157601   6.421   5.308  13.871  0.7472 -0.4460  0.3593
12062TIP3    H257602   6.539   5.400  13.853 -1.8494  2.9032 -0.6722
12063TIP3   OH257603   1.256   3.447  12.600 -0.2423  0.1406 -0.1180
12063TIP3    H157604   1.310   3.498  12.660 -0.0535 -0.0682 -0.1107
12063TIP3    H257605   1.190   3.406  12.657  0.0090 -0.1528 -0.0357
12064TIP3   OH257606   3.311   4.256  14.406 -0.0458 -0.1287 -0.3356
12064TIP3    H157607   3.393   4.305  14.414  0.0046 -0.2255 -0.2621
12064TIP3    H257608   3.243   4.323  14.409  0.0597  0.0359 -1.2336
12065TIP3   OH257609   6.026   1.165  16.939 -0.1981 -0.7831  0.5559
12065TIP3    H157610   5.993   1.242  16.893 -0.0765 -1.9255 -1.5709
12065TIP3    H257611   5.955   1.101  16.935  0.8139 -1.8969 -0.6087
12066TIP3   OH257612   0.167   6.346  14.898  0.9308  0.1311  0.0480
12066TIP3    H157613   0.112   6.396  14.837  2.9873  1.6510 -0.6805
12066TIP3    H257614   0.252   6.342  14.855  1.5274 -1.7870  1.3105
12067TIP3   OH257615   4.442   3.682  14.287  0.2250 -0.1769 -0.3793
12067TIP3    H157616   4.377   3.716  14.225  1.4696 -1.3111 -2.4274
12067TIP3    H257617   4.519   3.737  14.273  0.4849 -0.3726  0.2625
12068TIP3   OH257618   1.208   3.231  14.350  0.1505 -0.5942 -0.1597
12068TIP3    H157619   1.120   3.230  14.312 -0.3236 -1.0463  0.9023
12068TIP3    H257620   1.264   3.265  14.281 -0.7518 -0.9612 -1.0931
12069TIP3   OH257621   2.576   5.380  12.330 -0.0303  0.2208 -0.2250
12069TIP3    H157622   2.557   5.287  12.339 -0.4220  0.3551  0.3675
12069TIP3    H257623   2.667   5.383  12.302 -0.1254 -0.3482 -0.6260
12070TIP3   OH257624   3.699   5.325   3.852  0.1830  0.4368  0.6795
12070TIP3    H157625   3.730   5.366   3.771  2.0344 -0.0199  1.1234
12070TIP3    H257626   3.605   5.342   3.852  0.5450  2.7961 -0.2126
12071TIP3   OH257627   2.933   3.540   0.523 -0.0991  0.1110 -0.0890
12071TIP3    H157628   2.999   3.576   0.582 -0.7539 -0.9291  1.3213
12071TIP3    H257629   2.939   3.445   0.536  0.0690 -0.1981 -2.0660
12072TIP3   OH257630   6.227   5.573   0.938 -0.0549 -0.1477 -0.0295
12072TIP3    H157631   6.310   5.621   0.942 -0.3572  0.5408 -1.5140
12072TIP3    H257632   6.252   5.481   0.932  0.5712 -0.0279  0.6328
12073TIP3   OH257633   5.540   5.916  16.679  0.4431  0.1038  0.2888
12073TIP3    H157634   5.451   5.952  16.679  1.0554  1.8002 -1.2813
12073TIP3    H257635   5.564   5.914  16.586  1.3798 -2.1465  0.5205
12074TIP3   OH257636   3.420   6.618  17.128  0.6353 -0.7171  0.3789
12074TIP3    H157637   3.327   6.628  17.148  0.8198  1.5241  0.4024
12074TIP3    H257638   3.465   6.638  17.210  1.1951  2.6981 -0.5872
12075TIP3   OH257639   2.971   1.473   0.011  0.1056  0.6394 -0.4018
12075TIP3    H157640   2.936   1.419   0.082  2.4198 -0.8794 -0.3220
12075TIP3    H257641   2.949   1.425  -0.069  3.2756 -1.2727 -0.2692
12076TIP3   OH257642   2.353   4.368  14.205 -0.4946 -0.6419 -0.3598
12076TIP3    H157643   2.288   4.348  14.272 -2.6471  1.2202 -1.7485
12076TIP3    H257644   2.336   4.303  14.136 -1.8262  0.6194 -1.2704
12077TIP3   OH257645   6.127   6.079  11.681  0.4805  0.0648 -0.5136
12077TIP3    H157646   6.213   6.116  11.699  0.0540  0.4094  0.9077
12077TIP3    H257647   6.134   6.045  11.592  1.0578  3.0943 -1.7515
12078TIP3   OH257648   1.155   5.141   6.544 -0.2173  0.3501 -0.1991
12078TIP3    H157649   1.137   5.200   6.471 -2.7012 -1.1971 -0.9490
12078TIP3    H257650   1.084   5.077   6.541  0.4860 -0.6924  2.6359
12079TIP3   OH257651   6.083   2.901  16.076 -0.2900  0.3221 -0.3786
12079TIP3    H157652   6.158   2.959  16.060  0.0067  0.3781  1.1010
12079TIP3    H257653   6.040   2.894  15.991  2.4405 -1.2188 -1.7617
12080TIP3   OH257654   5.936   2.844   2.175  0.1245  0.0523 -0.3673
12080TIP3    H157655   5.884   2.921   2.152 -0.4895 -0.5946 -1.2319
12080TIP3    H257656   6.026   2.876   2.179 -0.1576  0.8787 -0.3959
12081TIP3   OH257657   3.930   1.094  16.533 -1.1991 -0.1304  0.0667
12081TIP3    H157658   3.852   1.088  16.477 -0.7071  2.0323 -0.9327
12081TIP3    H257659   3.972   1.175  16.507  1.1255 -0.9664  0.9821
12082TIP3   OH257660   5.122   2.432   6.147  0.3776 -0.1774  0.2131
12082TIP3    H157661   5.184   2.381   6.199  0.1737 -0.5883  0.0590
12082TIP3    H257662   5.038   2.420   6.192  0.6094  1.3193  1.0928
12083TIP3   OH257663   5.542   5.767   3.760  0.9492 -0.3552  0.3853
12083TIP3    H157664   5.558   5.860   3.774  1.6714 -0.5686  1.0699
12083TIP3    H257665   5.497   5.763   3.675 -1.3996  0.8154  1.4585
12084TIP3   OH257666   4.838   4.004   1.417 -0.0668  0.2287  0.1686
12084TIP3    H157667   4.924   4.009   1.458  0.2535 -0.0245 -0.4613
12084TIP3    H257668   4.782   3.964   1.483 -0.1046  1.8930  1.2005
12085TIP3   OH257669   1.376   3.034   3.207  0.2557 -1.1021 -0.5985
12085TIP3    H157670   1.327   2.986   3.141 -0.4383 -0.6437 -0.4400
12085TIP3    H257671   1.467   3.008   3.195  0.4526  0.3873 -2.9935
12086TIP3   OH257672   2.100   6.509  15.828  0.0257  0.0279 -0.1203
12086TIP3    H157673   2.133   6.513  15.738 -0.3197 -1.4350 -0.3412
12086TIP3    H257674   2.178   6.501  15.882  0.1841 -0.4470 -0.4113
12087TIP3   OH257675   0.534   4.517  15.726 -1.1790 -0.4258  0.7345
12087TIP3    H157676   0.537   4.571  15.804  0.4693 -1.5603  1.5167
12087TIP3    H257677   0.553   4.577  15.654  1.1524 -0.0152  1.6301
12088TIP3   OH257678   6.443   0.932  15.357 -0.0377  0.0583 -0.1383
12088TIP3    H157679   6.423   0.950  15.265  1.8632 -1.4750 -0.9235
12088TIP3    H257680   6.449   1.019  15.397  0.9866  0.8762 -1.9315
12089TIP3   OH257681   2.043   4.669  14.613 -0.0547  0.1293  0.5926
12089TIP3    H157682   2.052   4.658  14.519  0.0953  0.3616  0.5815
12089TIP3    H257683   2.058   4.762  14.629  1.0732 -0.1032  0.9820
12090TIP3   OH257684   4.927   4.713  15.550 -0.2687 -0.1063 -0.2558
12090TIP3    H157685   4.856   4.759  15.506  0.1509 -0.8622 -1.8144
12090TIP3    H257686   4.887   4.633  15.584 -0.0474 -0.9643 -1.9004
12091TIP3   OH257687   3.641   2.571   4.599  0.0246  0.0172  0.0285
12091TIP3    H157688   3.653   2.589   4.692 -0.1934  1.5641 -0.2053
12091TIP3    H257689   3.614   2.655   4.562 -1.6344 -0.9538 -1.1363
12092TIP3   OH257690   3.821   4.488   4.316  0.1134  0.3848  0.9658
12092TIP3    H157691   3.816   4.457   4.407  1.4816 -0.8208  0.6774
12092TIP3    H257692   3.738   4.463   4.278  0.5751 -1.6653  1.1766
12093TIP3   OH257693   1.464   5.456   2.325  0.0252  0.2587  0.2451
12093TIP3    H157694   1.491   5.529   2.380 -1.3654  0.7346  0.3453
12093TIP3    H257695   1.370   5.446   2.343 -0.1084 -0.6371 -0.8250
12094TIP3   OH257696   5.308   4.452  12.264  0.0146 -0.4650 -0.3590
12094TIP3    H157697   5.338   4.504  12.190 -0.8752  0.7728  0.1263
12094TIP3    H257698   5.299   4.514  12.336 -1.0827 -1.2646  0.2372
12095TIP3   OH257699   3.520   6.548   2.939 -0.6136 -0.0943 -0.1307
12095TIP3    H157700   3.590   6.546   3.004 -0.6297  0.9241 -0.0598
12095TIP3    H257701   3.562   6.578   2.859 -0.5576 -1.5228 -0.6525
12096TIP3   OH257702   1.745   5.522  13.056  0.5706  0.1229 -0.1462
12096TIP3    H157703   1.731   5.510  13.149 -0.6020 -0.3126 -0.3702
12096TIP3    H257704   1.675   5.581  13.028  1.3331  0.8401 -0.6317
12097TIP3   OH257705   3.238   0.504  13.013  0.2621  0.0754 -0.7559
12097TIP3    H157706   3.297   0.572  13.046  1.2851 -1.1374  0.0038
12097TIP3    H257707   3.196   0.468  13.092  1.6956 -1.9196 -0.8236
12098TIP3   OH257708   0.175   4.094  12.358  0.2605  0.3685 -0.4021
12098TIP3    H157709   0.193   4.116  12.266 -1.5480  1.9406 -0.4557
12098TIP3    H257710   0.138   4.174  12.395 -1.7561 -1.0437  0.8969
12099TIP3   OH257711   6.517   6.160   1.323 -0.0988 -0.4069 -0.8406
12099TIP3    H157712   6.540   6.168   1.231 -2.1165 -0.9199 -1.4502
12099TIP3    H257713   6.521   6.066   1.341  2.7223 -0.1491  0.3487
12100TIP3   OH257714   1.084   3.003   2.708 -0.9169 -0.0046 -0.0626
12100TIP3    H157715   1.141   3.055   2.652  1.2556 -0.0974  1.9463
12100TIP3    H257716   1.051   3.064   2.774  0.4356 -0.7920  1.4030
12101TIP3   OH257717   6.203   1.661   5.578 -0.0797 -0.3285  0.3618
12101TIP3    H157718   6.278   1.613   5.613  0.2958  0.4532  0.6361
12101TIP3    H257719   6.133   1.596   5.575  0.4816 -0.9536  0.5164
12102TIP3   OH257720   0.489   1.033   4.818  0.2677  0.9160 -0.1516
12102TIP3    H157721   0.497   1.064   4.908  1.4814  0.5322 -0.1034
12102TIP3    H257722   0.557   0.965   4.810 -0.4973  0.2245 -1.0536
12103TIP3   OH257723   3.552   5.270  13.557 -0.6126  0.4997 -0.0311
12103TIP3    H157724   3.643   5.299  13.550 -0.7070  0.5170 -1.4069
12103TIP3    H257725   3.554   5.177  13.535 -1.0072  0.6471 -0.7291
12104TIP3   OH257726   1.348   3.878   3.388  0.1250  0.1200  0.1444
12104TIP3    H157727   1.257   3.860   3.411  0.4827 -0.0663  1.5074
12104TIP3    H257728   1.345   3.902   3.296 -0.9286 -2.9901 -0.7523
12105TIP3   OH257729   6.172   0.703  12.119 -0.0542  0.5989 -0.8342
12105TIP3    H157730   6.110   0.707  12.046 -1.5214  3.2186  0.4045
12105TIP3    H257731   6.179   0.794  12.148  0.9113 -0.2775  1.9269
12106TIP3   OH257732   5.500   4.310  15.118  0.4485  0.3892  0.0634
12106TIP3    H157733   5.556   4.344  15.188  0.9486  1.0237 -0.6138
12106TIP3    H257734   5.418   4.358  15.127 -0.3282 -1.1106  1.5530
12107TIP3   OH257735   2.164   4.699  15.225  0.1316 -0.0823  0.1164
12107TIP3    H157736   2.098   4.766  15.208  0.0794  0.1103  1.0041
12107TIP3    H257737   2.142   4.628  15.165  1.5659  1.5460 -2.5010
12108TIP3   OH257738   2.574   6.654  12.246 -0.0620  0.1306  0.0732
12108TIP3    H157739   2.497   6.602  12.271  0.6228 -1.2890 -0.6252
12108TIP3    H257740   2.567   6.662  12.151  0.4863  0.2475  0.0401
12109TIP3   OH257741   6.127   2.331   0.287  0.3938 -0.4458 -0.1863
12109TIP3    H157742   6.211   2.375   0.302  1.0622 -1.9654  0.7368
12109TIP3    H257743   6.104   2.293   0.372 -0.9203 -0.6055 -0.5902
12110TIP3   OH257744   5.092   1.389  11.057  0.3076 -0.5730 -0.0451
12110TIP3    H157745   5.165   1.410  11.115  1.5073 -0.2700 -1.5794
12110TIP3    H257746   5.041   1.325  11.105  0.2675  0.9250  2.0295
12111TIP3   OH257747   4.208   4.620   5.011  0.8545  0.4896  0.2102
12111TIP3    H157748   4.293   4.582   5.034  0.5200  0.1915  0.9911
12111TIP3    H257749   4.193   4.591   4.921  1.0933 -0.3575  0.4333
12112TIP3   OH257750   0.635   5.735  16.581 -0.4700 -0.1392  0.1682
12112TIP3    H157751   0.720   5.697  16.561 -0.8498 -1.1281  0.3948
12112TIP3    H257752   0.650   5.830  16.578  0.5336 -0.2977 -0.2088
12113TIP3   OH257753   3.128   4.729   2.586  0.1603  0.2230 -0.0624
12113TIP3    H157754   3.079   4.811   2.590 -0.1174  0.1141 -0.9387
12113TIP3    H257755   3.101   4.689   2.503 -0.4341 -1.2300  0.8131
12114TIP3   OH257756   5.783   1.013  11.317  0.4389 -0.0005  0.1399
12114TIP3    H157757   5.867   0.973  11.338  0.8192 -0.3329 -1.8584
12114TIP3    H257758   5.778   1.010  11.222 -2.0681 -0.4548  0.2263
12115TIP3   OH257759   2.452   1.853  13.187 -0.0145  0.2935 -0.5790
12115TIP3    H157760   2.398   1.795  13.242 -2.2039 -0.6734 -3.5225
12115TIP3    H257761   2.391   1.889  13.123  2.4863  0.8724 -2.7775
12116TIP3   OH257762   2.823   0.530   4.061  0.5347  0.4962 -0.0339
12116TIP3    H157763   2.844   0.456   4.003  0.0270  0.1522  0.2084
12116TIP3    H257764   2.901   0.584   4.060  0.8479  0.0512 -0.3689
12117TIP3   OH257765   5.155   5.672  16.911  0.1681  0.0951 -0.2576
12117TIP3    H157766   5.109   5.598  16.871 -0.0383  0.7565 -1.2927
12117TIP3    H257767   5.244   5.666  16.876 -0.1164  0.9040 -1.1748
12118TIP3   OH257768   1.295   5.986   3.114 -0.0140  0.0859  0.5173
12118TIP3    H157769   1.223   6.023   3.165 -0.1302  0.1510  0.3051
12118TIP3    H257770   1.351   5.945   3.179  0.1850  0.7508  0.7767
12119TIP3   OH257771   3.501   4.616  14.189 -0.1125 -0.1200 -0.3042
12119TIP3    H157772   3.419   4.567  14.198 -0.4971  0.4123 -0.8624
12119TIP3    H257773   3.478   4.705  14.215  0.2322  0.0807 -0.6785
12120TIP3   OH257774   3.934   0.456   3.999  0.4456 -0.3320  0.1238
12120TIP3    H157775   3.952   0.432   4.090 -0.3343  1.6754  0.8793
12120TIP3    H257776   3.995   0.528   3.981 -1.1149  1.0047 -0.0343
12121TIP3   OH257777   6.259   5.158   0.969 -0.7106 -0.0078 -0.8493
12121TIP3    H157778   6.276   5.243   0.929  1.0859  0.1978  0.1967
12121TIP3    H257779   6.342   5.111   0.962 -1.5019 -1.4665 -0.8980
12122TIP3   OH257780   2.089   1.390  16.768  0.2033 -0.1142 -0.3793
12122TIP3    H157781   1.998   1.361  16.760 -0.0601  0.3759  0.5974
12122TIP3    H257782   2.114   1.365  16.857  0.5905  0.9183 -0.1862
12123TIP3   OH257783   3.461   2.702  14.761  0.4523  0.0016 -0.5376
12123TIP3    H157784   3.524   2.750  14.708 -0.5807  0.8266 -1.0616
12123TIP3    H257785   3.505   2.619  14.782  2.2594  1.1146  0.3285
12124TIP3   OH257786   6.726   6.721   0.749 -0.2436 -0.2527 -0.6488
12124TIP3    H157787   6.646   6.752   0.791 -1.4474 -2.1935 -1.3698
12124TIP3    H257788   6.731   6.770   0.667  0.3052  1.1386  0.1825
12125TIP3   OH257789   1.500   3.492  13.859  0.0166 -0.3246 -0.3075
12125TIP3    H157790   1.509   3.543  13.779 -0.1698  2.5877  1.4007
12125TIP3    H257791   1.419   3.443  13.847 -0.0109  0.0389 -1.8689
12126TIP3   OH257792   4.191   4.819   0.598  0.1434  0.5329 -1.0251
12126TIP3    H157793   4.217   4.825   0.506  0.9086 -1.4162 -0.9680
12126TIP3    H257794   4.105   4.778   0.597 -0.5628  1.9385 -0.9129
12127TIP3   OH257795   3.884   2.423  13.905  0.3811  0.8709  0.5242
12127TIP3    H157796   3.964   2.412  13.957 -0.8300 -1.7059  2.0037
12127TIP3    H257797   3.815   2.383  13.957 -1.9348  2.8571 -0.7691
12128TIP3   OH257798   3.576   5.377   4.585  0.3910  0.0330  0.0929
12128TIP3    H157799   3.529   5.390   4.502  0.3678  0.7386  0.2093
12128TIP3    H257800   3.654   5.327   4.560 -0.6350 -1.5824 -0.0228
12129TIP3   OH257801   2.364   5.268   0.065  0.8896 -0.5554  0.1629
12129TIP3    H157802   2.441   5.267   0.008  1.5165 -1.7038  0.9767
12129TIP3    H257803   2.292   5.243   0.007  0.9723  1.1424 -0.7529
12130TIP3   OH257804   4.890   3.382  14.572  0.4226 -0.5021  0.5968
12130TIP3    H157805   4.865   3.290  14.572  0.1796 -0.4896 -1.3751
12130TIP3    H257806   4.949   3.392  14.646 -0.0123 -2.1051  1.1870
12131TIP3   OH257807   0.898   2.499  16.203  0.4024 -0.1912 -0.3248
12131TIP3    H157808   0.956   2.466  16.136  0.7805  0.6537 -0.4271
12131TIP3    H257809   0.865   2.421  16.248 -0.9022 -0.8640 -2.3180
12132TIP3   OH257810   0.251   6.008  11.675 -0.1627 -0.1338 -0.3460
12132TIP3    H157811   0.266   6.100  11.697  0.2907 -0.4307  0.6700
12132TIP3    H257812   0.330   5.963  11.705 -1.2648 -1.1501  1.2212
12133TIP3   OH257813   2.267   0.030  11.866  0.3917  0.1912  0.5310
12133TIP3    H157814   2.273  -0.046  11.807 -1.6240  0.8223 -0.5782
12133TIP3    H257815   2.197   0.007  11.927 -0.9150  1.4837 -0.4080
12134TIP3   OH257816   3.828   2.329   4.741  0.4846 -0.1372  0.4537
12134TIP3    H157817   3.757   2.392   4.751 -0.4232 -0.8912 -1.0410
12134TIP3    H257818   3.907   2.383   4.738 -0.1423  0.8134  0.6141
12135TIP3   OH257819   4.274   5.540   5.146  0.2480 -0.2097 -0.3794
12135TIP3    H157820   4.356   5.587   5.160  0.4733  0.2110 -2.6348
12135TIP3    H257821   4.301   5.455   5.110 -0.2823 -0.3525 -0.4510
12136TIP3   OH257822   3.183   0.202   0.851 -0.0885  0.0410  0.4398
12136TIP3    H157823   3.144   0.120   0.820  1.0050 -0.5533  0.5566
12136TIP3    H257824   3.122   0.270   0.823 -0.6674 -0.7555 -0.2943
12137TIP3   OH257825   4.589   3.733   0.052  0.1825  0.5610 -0.4679
12137TIP3    H157826   4.641   3.715   0.130 -1.8485 -3.5791  0.2117
12137TIP3    H257827   4.644   3.704  -0.021  1.4164  2.8681 -0.5577
12138TIP3   OH257828   5.757   0.464  15.920 -0.0816  0.5520  0.1427
12138TIP3    H157829   5.726   0.393  15.976  2.2351  0.3775  1.2979
12138TIP3    H257830   5.748   0.543  15.973 -0.6571  0.8425 -0.3684
12139TIP3   OH257831   1.850   4.518   5.038 -0.2250 -0.4286 -0.1431
12139TIP3    H157832   1.930   4.570   5.027 -1.0310  1.0524  0.5996
12139TIP3    H257833   1.810   4.517   4.951  0.0732 -0.2650 -0.2846
12140TIP3   OH257834   3.953   0.411   4.663 -0.7729 -0.7837  0.6194
12140TIP3    H157835   3.897   0.486   4.680  2.0235  1.4493  0.7143
12140TIP3    H257836   3.993   0.391   4.748 -0.3253 -1.3684  0.2794
12141TIP3   OH257837   2.134   6.728   2.985 -0.0885  0.1960  0.0620
12141TIP3    H157838   2.108   6.755   2.896 -0.7557 -2.2355 -0.5479
12141TIP3    H257839   2.206   6.666   2.971 -0.3587 -0.4002  1.2173
12142TIP3   OH257840   0.148   1.738   0.721  0.1695 -0.4145  0.3717
12142TIP3    H157841   0.148   1.687   0.802  0.8986 -0.4679  0.3436
12142TIP3    H257842   0.149   1.673   0.652  1.0491 -0.3748  0.3354
12143TIP3   OH257843   1.403   1.399  12.791 -0.1264 -0.0502  0.4990
12143TIP3    H157844   1.355   1.480  12.809  0.8707  0.3040  1.7239
12143TIP3    H257845   1.363   1.334  12.849  0.1729 -0.0119  0.7513
12144TIP3   OH257846   4.396   0.182   5.556 -0.2095  0.8861  0.1854
12144TIP3    H157847   4.438   0.128   5.623 -0.7439  0.0076 -0.1699
12144TIP3    H257848   4.330   0.124   5.517 -3.0262  2.6759  1.8938
12145TIP3   OH257849   3.712   1.052  15.446 -0.1012 -0.0129  0.9378
12145TIP3    H157850   3.807   1.045  15.440 -0.2573 -1.0120 -1.5421
12145TIP3    H257851   3.681   0.962  15.438 -1.3000  0.3795  0.9589
12146TIP3   OH257852   3.072   6.111   0.515 -0.3297 -0.4326  0.0523
12146TIP3    H157853   3.131   6.132   0.442  0.7121 -4.3371 -0.4189
12146TIP3    H257854   3.121   6.139   0.592 -0.2212  1.1711 -0.5491
12147TIP3   OH257855   1.976   1.577   6.606  0.6564 -0.4431  0.4370
12147TIP3    H157856   1.982   1.538   6.519 -0.6544 -1.7303  0.8820
12147TIP3    H257857   2.066   1.580   6.637  1.1369 -0.0345 -0.9104
12148TIP3   OH257858   6.735   4.189   3.757 -0.6612  0.7189 -0.8213
12148TIP3    H157859   6.649   4.216   3.724 -1.0358 -0.6955 -1.0602
12148TIP3    H257860   6.717   4.110   3.807  0.1790  1.7211  1.1806
12149TIP3   OH257861   5.971   0.311   5.282  0.1978  0.2335  0.6461
12149TIP3    H157862   5.993   0.335   5.192 -0.1759  1.3895  0.8471
12149TIP3    H257863   5.902   0.373   5.307 -0.4196 -0.7341  1.3884
12150TIP3   OH257864   1.522   0.520  15.374  0.1242 -0.3112 -0.6611
12150TIP3    H157865   1.445   0.572  15.397 -0.3790 -1.0214 -0.7047
12150TIP3    H257866   1.588   0.546  15.438 -0.7053 -0.9649  0.5043
12151TIP3   OH257867   0.265   5.569   2.462  0.1548  0.0570 -0.2439
12151TIP3    H157868   0.246   5.559   2.369 -0.1318 -0.1918 -0.1577
12151TIP3    H257869   0.187   5.538   2.506  0.3605  0.0081  0.0878
12152TIP3   OH257870   1.891   2.044  12.215 -0.0328  0.2317  0.1558
12152TIP3    H157871   1.962   1.983  12.239 -0.2819 -0.4545 -0.8063
12152TIP3    H257872   1.826   2.033  12.284  0.3440  0.1233  0.5020
12153TIP3   OH257873   1.821   4.805   2.740 -0.1312 -0.2120 -0.7492
12153TIP3    H157874   1.911   4.837   2.731  0.3987 -1.5831 -0.6170
12153TIP3    H257875   1.794   4.782   2.651 -0.5956  0.8035 -0.8764
12154TIP3   OH257876   1.701   1.737   4.382  0.3803 -0.0925  0.2008
12154TIP3    H157877   1.657   1.818   4.410 -1.3972 -0.6338 -0.8258
12154TIP3    H257878   1.763   1.766   4.315 -1.9787  0.2967 -2.0041
12155TIP3   OH257879   6.664   4.490  13.969  0.6983 -0.3224  0.0621
12155TIP3    H157880   6.572   4.474  13.989  0.9321 -2.5155 -0.3989
12155TIP3    H257881   6.674   4.459  13.879  1.5989  1.1944 -0.3840
12156TIP3   OH257882   6.395   5.919  12.272  0.1950 -0.1103 -0.5943
12156TIP3    H157883   6.367   5.859  12.341  0.0987 -1.4342 -1.7454
12156TIP3    H257884   6.478   5.883  12.241  0.2009  0.4239 -1.2193
12157TIP3   OH257885   1.115   2.267   1.158  0.2080 -0.2515 -0.3475
12157TIP3    H157886   1.066   2.234   1.083  0.5752  0.0881 -0.7392
12157TIP3    H257887   1.166   2.340   1.124  0.7890 -0.4329  0.1118
12158TIP3   OH257888   5.879   3.092  14.312  0.4396  0.4800  0.1564
12158TIP3    H157889   5.915   3.130  14.392 -0.4055 -1.6595  1.6462
12158TIP3    H257890   5.928   3.010  14.300 -0.5219  0.0012 -0.6202
12159TIP3   OH257891   4.337   0.695  16.369 -0.1023  0.5901 -0.6807
12159TIP3    H157892   4.352   0.619  16.313 -2.3552 -2.8654  2.8450
12159TIP3    H257893   4.412   0.695  16.429 -0.2559  1.0046 -0.4855
12160TIP3   OH257894   6.269   3.100  16.171  0.3238  1.1028  0.3098
12160TIP3    H157895   6.190   3.151  16.184 -0.2156  0.7395 -1.3555
12160TIP3    H257896   6.329   3.159  16.124  0.0076  0.5145 -0.8692
12161TIP3   OH257897   4.677   3.719  16.485  0.3229 -0.3775 -0.4765
12161TIP3    H157898   4.648   3.737  16.574  1.5797  2.0986 -0.4826
12161TIP3    H257899   4.605   3.669  16.446 -1.7426  1.3554  0.9188
12162TIP3   OH257900   0.740   5.475   1.329 -0.5223 -0.1455 -0.2820
12162TIP3    H157901   0.686   5.554   1.325  0.9734  0.9986  0.9353
12162TIP3    H257902   0.802   5.484   1.256  1.0025  0.9027  1.0817
12163TIP3   OH257903   1.782   1.428   6.277  0.5448 -0.0640  0.1769
12163TIP3    H157904   1.746   1.489   6.342  1.2227  0.2181  0.3002
12163TIP3    H257905   1.725   1.437   6.201  0.0340 -0.0333  0.5598
12164TIP3   OH257906   4.535   4.529   2.887  0.0539  0.0125 -0.0792
12164TIP3    H157907   4.557   4.522   2.794 -0.4034  0.6705 -0.2467
12164TIP3    H257908   4.467   4.596   2.890  0.8196  0.7721  0.8558
12165TIP3   OH257909   5.311   3.134   1.237 -0.2874 -0.5519 -0.3101
12165TIP3    H157910   5.350   3.203   1.290 -1.6727  1.2545 -1.5132
12165TIP3    H257911   5.219   3.132   1.263  0.0799 -3.5984  1.3128
12166TIP3   OH257912   1.225   5.971  11.324  0.2156  0.8613  0.1359
12166TIP3    H157913   1.275   5.930  11.253 -1.3942 -1.1343  0.0682
12166TIP3    H257914   1.134   5.949  11.306 -0.4199  1.8076  1.9007
12167TIP3   OH257915   4.735   5.404  16.979 -0.3103 -0.2786  0.3888
12167TIP3    H157916   4.668   5.462  17.013 -1.5480 -1.4150 -0.0356
12167TIP3    H257917   4.689   5.324  16.956  1.0383 -0.7828 -0.7486
12168TIP3   OH257918   3.086   1.878  16.306  0.3956 -0.0930 -0.0495
12168TIP3    H157919   2.992   1.882  16.289  0.5840  0.2306 -1.1241
12168TIP3    H257920   3.126   1.896  16.220  1.4354 -1.6127  0.0861
12169TIP3   OH257921   4.908   0.508   4.568  1.0244  0.3295 -0.0673
12169TIP3    H157922   4.948   0.593   4.553  2.3921 -0.4341 -1.0506
12169TIP3    H257923   4.873   0.483   4.482  0.4341 -0.0002  0.2646
12170TIP3   OH257924   2.192   5.329  15.451  0.8402  0.2462 -0.1689
12170TIP3    H157925   2.130   5.358  15.518  1.0312  4.3296 -1.5338
12170TIP3    H257926   2.136   5.289  15.384  0.0037  1.1896 -0.0593
12171TIP3   OH257927   0.379   0.473   5.303  0.4692  0.6175  0.0856
12171TIP3    H157928   0.321   0.399   5.285 -0.6112  1.2505  0.7887
12171TIP3    H257929   0.429   0.447   5.379 -0.4584  0.8779  0.8047
12172TIP3   OH257930   2.426   1.841  12.553 -0.1599  0.8895 -0.3370
12172TIP3    H157931   2.483   1.767  12.533 -0.9707 -0.2844  1.3569
12172TIP3    H257932   2.370   1.850  12.476 -0.0855 -0.3341 -0.5580
12173TIP3   OH257933   6.273   1.383  12.202 -0.0673 -0.0688 -0.8620
12173TIP3    H157934   6.297   1.470  12.234  3.1554 -1.3613  0.7932
12173TIP3    H257935   6.357   1.340  12.186 -1.5135 -3.0408 -1.1544
12174TIP3   OH257936   1.706   2.731   0.146  0.0625 -0.2481 -0.3681
12174TIP3    H157937   1.794   2.694   0.145 -0.2766 -1.1017  0.2757
12174TIP3    H257938   1.696   2.765   0.235  0.6644  2.1956 -1.1498
12175TIP3   OH257939   4.016   2.941   3.680  0.0301 -0.6123  0.1834
12175TIP3    H157940   3.975   2.916   3.597  0.4767  0.0954 -0.2586
12175TIP3    H257941   4.093   2.993   3.655 -0.5734  0.7690  1.0255
12176TIP3   OH257942   6.484   4.069   4.635  0.2519 -0.4411  0.2568
12176TIP3    H157943   6.532   4.148   4.660  0.4282 -0.2159 -0.7506
12176TIP3    H257944   6.550   4.014   4.593 -0.0010 -0.8710  0.4276
12177TIP3   OH257945   3.482   4.861  13.933  0.0288  0.4807 -0.3839
12177TIP3    H157946   3.517   4.836  13.848 -1.0459 -1.6832 -0.2574
12177TIP3    H257947   3.559   4.872  13.989  0.6719 -0.0594 -1.1476
12178TIP3   OH257948   3.156   4.456   3.669 -0.4254  1.2126  0.5413
12178TIP3    H157949   3.204   4.439   3.588 -2.4442  3.1284 -1.1875
12178TIP3    H257950   3.203   4.527   3.712  0.4447  0.4399  0.8855
12179TIP3   OH257951   1.085   0.375   0.262 -0.0572 -0.2210 -0.0501
12179TIP3    H157952   1.130   0.459   0.264  0.1686 -0.2146 -2.3979
12179TIP3    H257953   0.993   0.397   0.276  0.0410  0.3785 -0.3241
12180TIP3   OH257954   4.828   5.359  14.562 -0.0022  0.1413 -0.4519
12180TIP3    H157955   4.804   5.283  14.509  0.5923 -0.4448  0.0949
12180TIP3    H257956   4.789   5.434  14.517 -2.1731 -0.6618 -0.0088
12181TIP3   OH257957   1.228   2.952  14.181  0.4460  0.0119  0.2275
12181TIP3    H157958   1.280   2.897  14.122  0.7686  0.2178  0.3216
12181TIP3    H257959   1.255   2.926  14.269  0.4469  0.1755  0.2757
12182TIP3   OH257960   4.878   4.906   4.892 -0.2803 -0.1934  0.4288
12182TIP3    H157961   4.865   4.839   4.825 -0.7039 -0.3219  0.6373
12182TIP3    H257962   4.973   4.909   4.905 -0.1725 -0.0101 -0.3329
12183TIP3   OH257963   4.990   1.037   1.100 -0.3185  0.4342  0.2006
12183TIP3    H157964   4.906   1.023   1.144  0.4542 -2.2043  1.0286
12183TIP3    H257965   4.977   1.001   1.012  0.2371 -1.0952  0.7144
12184TIP3   OH257966   0.332   6.025  12.211  0.5505  0.4036 -0.0729
12184TIP3    H157967   0.352   6.061  12.298 -3.2508  1.8272  0.3884
12184TIP3    H257968   0.390   6.074  12.153  1.3492  1.3287  1.4102
12185TIP3   OH257969   2.952   1.834  13.623 -0.1069 -0.4288 -0.1336
12185TIP3    H157970   2.907   1.773  13.681 -0.6157 -0.4307 -0.5213
12185TIP3    H257971   2.950   1.918  13.669 -0.9060 -0.3276 -0.3352
12186TIP3   OH257972   5.413   3.065   6.843  0.1356  0.3075 -0.2433
12186TIP3    H157973   5.462   3.144   6.821 -0.5801  0.6349 -0.6954
12186TIP3    H257974   5.328   3.076   6.800 -0.2460 -0.3626  0.3047
12187TIP3   OH257975   5.742   4.935   2.737  0.5823 -0.1944 -0.6945
12187TIP3    H157976   5.659   4.887   2.742  0.5613 -0.1004 -0.0250
12187TIP3    H257977   5.720   5.018   2.695  0.3673 -0.2221 -0.6371
12188TIP3   OH257978   3.763   3.274   4.688  0.8405 -0.0383 -0.0722
12188TIP3    H157979   3.760   3.289   4.783  2.3270 -0.1366  0.0092
12188TIP3    H257980   3.679   3.233   4.668 -0.1736  1.4244  0.9292
12189TIP3   OH257981   0.798   2.191  15.213  0.4214 -0.2521  0.6493
12189TIP3    H157982   0.783   2.233  15.298 -0.1659 -0.4801  0.6579
12189TIP3    H257983   0.836   2.260  15.159 -2.6411  1.0206 -0.0566
12190TIP3   OH257984   2.764   2.946  12.797 -0.0899 -0.0330  0.1476
12190TIP3    H157985   2.772   3.039  12.822  1.2655 -0.0890 -0.0214
12190TIP3    H257986   2.798   2.942  12.708  1.7943 -1.0028  0.8611
12191TIP3   OH257987   3.513   0.810   2.559 -0.2595  0.4406 -0.4956
12191TIP3    H157988   3.492   0.784   2.470  0.5270  0.4132 -0.6744
12191TIP3    H257989   3.600   0.774   2.575 -0.9182 -0.7273  0.7519
12192TIP3   OH257990   1.335   2.293   4.304  0.2680 -0.3278  0.0840
12192TIP3    H157991   1.299   2.336   4.382 -0.3397 -0.5027 -0.0987
12192TIP3    H257992   1.327   2.199   4.323  0.6466 -0.3690  0.0478
12193TIP3   OH257993   5.479   2.922  12.996 -0.1227  0.7246 -0.4339
12193TIP3    H157994   5.451   2.831  12.982 -1.8417  1.0378  0.6096
12193TIP3    H257995   5.503   2.926  13.088  0.3935  1.2266 -0.5839
12194TIP3   OH257996   3.821   1.402   0.584 -0.4756 -0.1031 -0.8517
12194TIP3    H157997   3.771   1.392   0.665  0.6329 -0.3957 -0.1814
12194TIP3    H257998   3.901   1.351   0.599  0.7743  1.6536 -1.2443
12195TIP3   OH257999   1.069   1.079  17.232  0.1505 -0.3925  0.7281
12195TIP3    H158000   1.113   1.022  17.295 -0.6210 -0.1969  1.4674
12195TIP3    H258001   0.990   1.031  17.208  0.2364 -0.2832  0.2150
12196TIP3   OH258002   2.639   2.716  11.927  0.2830 -0.0126 -0.1828
12196TIP3    H158003   2.544   2.707  11.939  0.2830  0.5760  0.3175
12196TIP3    H258004   2.665   2.636  11.882 -0.0198 -1.5283  2.1284
12197TIP3   OH258005   2.353   4.496   0.538 -0.0799 -0.2181  0.6878
12197TIP3    H158006   2.404   4.425   0.577  0.6597  0.0177  0.1654
12197TIP3    H258007   2.270   4.455   0.513 -0.2557 -0.5497  1.7717
12198TIP3   OH258008   5.371   3.549  15.204  0.4698  0.0597 -0.0048
12198TIP3    H158009   5.320   3.468  15.208 -1.2321  0.9150 -2.1557
12198TIP3    H258010   5.306   3.618  15.193  1.9867  1.4289 -0.9016
12199TIP3   OH258011   3.113   3.350   3.796  0.0241 -0.1352  0.2667
12199TIP3    H158012   3.175   3.289   3.837 -1.1051 -1.5427 -0.0515
12199TIP3    H258013   3.137   3.351   3.703 -0.1067 -0.2791  0.2312
12200TIP3   OH258014   5.378   5.587  15.083 -0.6194  0.2152  0.0044
12200TIP3    H158015   5.356   5.494  15.093 -1.3712  0.3721 -0.0673
12200TIP3    H258016   5.321   5.616  15.011 -0.6688  0.8163  0.2866
12201TIP3   OH258017   3.114   5.761  15.203 -0.1243 -0.1624 -0.0378
12201TIP3    H158018   3.149   5.703  15.136  1.8700  0.1131  0.6966
12201TIP3    H258019   3.078   5.703  15.269 -1.4097 -0.4493 -0.9678
12202TIP3   OH258020   4.386   1.134   6.737  0.0652  0.2490 -0.0402
12202TIP3    H158021   4.374   1.229   6.726 -0.9971  0.1963  0.5114
12202TIP3    H258022   4.480   1.121   6.737  0.2597  1.4717  1.1280
12203TIP3   OH258023   5.254   6.755  12.523 -0.6841 -0.1043  0.3643
12203TIP3    H158024   5.243   6.685  12.459  0.9348 -1.0100  1.0164
12203TIP3    H258025   5.236   6.836  12.475 -0.1758 -0.8131 -1.0551
12204TIP3   OH258026   6.366   4.641   4.195 -0.4466 -0.0823  0.3358
12204TIP3    H158027   6.373   4.650   4.290 -0.0326 -1.4261  0.4504
12204TIP3    H258028   6.273   4.621   4.180 -1.1491  2.7930  0.1656
12205TIP3   OH258029   0.937   0.567   4.057 -0.1628 -0.3157  0.2886
12205TIP3    H158030   0.858   0.617   4.080 -0.4810 -0.7360  0.1041
12205TIP3    H258031   1.001   0.634   4.034 -0.5224  0.0208  0.2551
12206TIP3   OH258032   2.670   2.631   5.856  0.3292 -0.1352 -0.1145
12206TIP3    H158033   2.721   2.691   5.909 -1.4601  1.2874  0.1008
12206TIP3    H258034   2.630   2.686   5.788  0.1490 -1.4118 -1.0870
12207TIP3   OH258035   6.023   2.525   6.044 -0.7594  0.6907 -0.2272
12207TIP3    H158036   6.042   2.602   6.098 -2.0746  0.5456  0.4840
12207TIP3    H258037   5.973   2.467   6.101  3.0721 -2.3659  0.4798
12208TIP3   OH258038   3.098   4.000   0.900 -0.1708  0.4882 -0.1784
12208TIP3    H158039   3.067   4.037   0.818 -1.4787  2.4133  1.1045
12208TIP3    H258040   3.026   4.013   0.962  0.2825 -2.0377  1.0112
12209TIP3   OH258041   2.295   4.651  15.461 -0.3465 -0.1077  0.3082
12209TIP3    H158042   2.245   4.635  15.380 -2.2588 -0.4742  1.4873
12209TIP3    H258043   2.276   4.742  15.483 -1.3583 -0.5258  1.2786
12210TIP3   OH258044   5.572   2.627  14.011 -0.5328 -0.0885 -0.3751
12210TIP3    H158045   5.547   2.550  13.960 -1.0804  0.5810 -1.1431
12210TIP3    H258046   5.579   2.698  13.947 -2.8135  1.1556  0.5954
12211TIP3   OH258047   1.492   4.942   2.329  0.1491  0.1803 -0.2602
12211TIP3    H158048   1.504   4.848   2.340  0.9761  0.3950  1.0216
12211TIP3    H258049   1.435   4.951   2.253  2.7990 -1.2322 -2.5904
12212TIP3   OH258050   5.311   1.103  14.033 -0.1883 -0.1022  0.2874
12212TIP3    H158051   5.268   1.110  14.119 -0.2198 -1.0826  0.3616
12212TIP3    H258052   5.393   1.058  14.051 -0.1094 -0.1438 -0.1678
12213TIP3   OH258053   1.757   2.297   3.654  0.3658  0.2829  0.0697
12213TIP3    H158054   1.756   2.305   3.750 -0.4356  0.9350  0.0215
12213TIP3    H258055   1.790   2.382   3.623  0.2605  0.2112 -0.2395
12214TIP3   OH258056   2.809   2.809   0.572 -0.5469 -0.1727  0.8558
12214TIP3    H158057   2.846   2.816   0.660  1.0304 -1.1611  0.3253
12214TIP3    H258058   2.772   2.721   0.568 -1.7590  0.3140  0.9089
12215TIP3   OH258059   4.338   3.674  17.219 -0.2219 -0.7801 -0.2338
12215TIP3    H158060   4.423   3.695  17.259 -0.0194 -0.7118 -0.6999
12215TIP3    H258061   4.274   3.717  17.277  0.0629 -0.7561  0.0678
12216TIP3   OH258062   2.889   1.325  14.072 -0.3628  0.1147 -0.3778
12216TIP3    H158063   2.950   1.263  14.030  0.6705  1.3662 -0.7954
12216TIP3    H258064   2.916   1.326  14.163 -2.1648 -2.0828  0.2648
12217TIP3   OH258065   3.016   6.742  16.486 -0.6541  0.6586  0.5755
12217TIP3    H158066   3.102   6.718  16.520 -0.7524  1.5964  1.5429
12217TIP3    H258067   2.962   6.755  16.564 -1.2955  1.4281  0.0183
12218TIP3   OH258068   5.640   1.960  17.209  0.5320 -0.1526 -0.5239
12218TIP3    H158069   5.729   1.929  17.189  0.8974  1.0788 -0.9059
12218TIP3    H258070   5.649   2.055  17.216 -0.2455 -0.2077  2.0960
12219TIP3   OH258071   5.762   5.535   4.435 -0.4222  0.4513 -0.1858
12219TIP3    H158072   5.836   5.493   4.392 -0.7312 -0.7363  0.3948
12219TIP3    H258073   5.701   5.463   4.454 -1.0532  1.1882  0.6721
12220TIP3   OH258074   4.519   5.656   2.477 -0.1141 -0.3548 -0.0158
12220TIP3    H158075   4.579   5.596   2.432  1.6954  0.5704  1.0115
12220TIP3    H258076   4.553   5.661   2.566 -2.0276 -0.1093  0.7407
12221TIP3   OH258077   4.300   5.894  16.963  0.0259  0.5938 -0.6484
12221TIP3    H158078   4.338   5.862  17.045  0.1318  1.9504 -0.1363
12221TIP3    H258079   4.369   5.947  16.924 -0.3325  0.6696 -1.1909
12222TIP3   OH258080   1.572   4.151   3.403 -0.4354  0.5705  0.1336
12222TIP3    H158081   1.482   4.183   3.403 -1.0626 -1.0759 -0.3781
12222TIP3    H258082   1.626   4.229   3.390 -1.9043  1.3097 -2.1360
12223TIP3   OH258083   4.593   1.552  10.658 -0.4324  0.2022 -0.2363
12223TIP3    H158084   4.648   1.599  10.596 -2.0163  0.9823 -1.1263
12223TIP3    H258085   4.648   1.540  10.735  1.9966 -1.7569 -2.0918
12224TIP3   OH258086   2.652   0.832   3.635 -0.0243 -0.0745  0.0748
12224TIP3    H158087   2.658   0.839   3.540  0.0263  0.5060  0.1175
12224TIP3    H258088   2.682   0.743   3.655  1.9319  0.4736 -0.2784
12225TIP3   OH258089   2.871   0.333   4.455 -0.1746  0.7924  0.1260
12225TIP3    H158090   2.793   0.282   4.478  0.8898 -0.6440  0.7637
12225TIP3    H258091   2.894   0.379   4.535 -0.7771  1.8332 -0.2781
12226TIP3   OH258092   2.299   4.922   1.706  0.0065 -0.5643  0.2635
12226TIP3    H158093   2.266   4.947   1.792  3.6424  0.0063  1.6749
12226TIP3    H258094   2.299   5.002   1.655  0.4037 -0.2943  0.6844
12227TIP3   OH258095   1.092   1.251   5.515  0.4101 -0.1582 -0.2056
12227TIP3    H158096   1.097   1.156   5.518 -0.7262 -0.2229  0.8064
12227TIP3    H258097   0.998   1.270   5.512  0.6309  0.9316 -0.8649
12228TIP3   OH258098   2.687   4.903   4.076 -0.1959  0.2255  0.7455
12228TIP3    H158099   2.665   4.819   4.117  0.5710 -1.0667 -1.3305
12228TIP3    H258100   2.732   4.879   3.995 -0.2360  2.6580 -0.0785
12229TIP3   OH258101   1.989   5.966  15.620  0.2054 -0.2263  0.5778
12229TIP3    H158102   1.916   5.909  15.599 -0.5089  1.0162 -0.4514
12229TIP3    H258103   1.977   6.043  15.564  1.7949  0.4115  1.0420
12230TIP3   OH258104   4.578   1.046   5.268  0.1733 -0.1259 -0.7998
12230TIP3    H158105   4.491   1.030   5.304 -0.3247 -0.1867 -1.9767
12230TIP3    H258106   4.618   0.959   5.262 -0.1834 -0.2508 -1.4521
12231TIP3   OH258107   6.660   2.077   1.946 -0.1681 -0.6359 -0.4618
12231TIP3    H158108   6.698   2.159   1.978 -0.3861 -0.3855 -0.8235
12231TIP3    H258109   6.648   2.024   2.024 -0.9225  0.0618 -0.0847
12232TIP3   OH258110   1.993   5.939  14.539 -0.1381 -0.3017  0.0509
12232TIP3    H158111   2.029   6.019  14.501  1.3423 -0.4772  1.0127
12232TIP3    H258112   1.959   5.966  14.624  1.9041 -0.9455  1.1393
12233TIP3   OH258113   5.470   3.823   5.786  0.0369 -0.4506  0.6985
12233TIP3    H158114   5.532   3.846   5.717 -1.0540  0.9209  0.1534
12233TIP3    H258115   5.520   3.834   5.867  0.4542  0.8947  0.2844
12234TIP3   OH258116   0.952   2.995  14.151  0.2524  0.3958  0.6447
12234TIP3    H158117   1.015   2.924  14.137 -1.1870 -0.9226  0.6353
12234TIP3    H258118   0.959   3.015  14.245  0.0237 -0.3877  0.8336
12235TIP3   OH258119   5.592   1.957   0.275  0.5928 -0.1472 -0.3474
12235TIP3    H158120   5.564   1.866   0.263 -0.1301  0.2002 -1.4933
12235TIP3    H258121   5.572   1.999   0.191 -1.4937  1.6904  0.9590
12236TIP3   OH258122   4.948   1.344  15.654  0.2656 -0.6041  0.2620
12236TIP3    H158123   5.009   1.388  15.595  1.5146  0.2915  2.0888
12236TIP3    H258124   4.928   1.410  15.721 -1.6801 -1.3204  0.4453
12237TIP3   OH258125   0.936   0.703  15.244  0.0232  0.0966  0.3675
12237TIP3    H158126   0.846   0.669  15.244 -0.6708  1.7645 -1.0763
12237TIP3    H258127   0.943   0.751  15.327  0.6179 -2.3713  1.8548
12238TIP3   OH258128   1.523   3.551   2.026  0.2882  0.0016  0.1488
12238TIP3    H158129   1.550   3.635   1.988 -1.3434  1.1993  1.4526
12238TIP3    H258130   1.432   3.540   1.998 -0.3059 -0.0668  1.9185
12239TIP3   OH258131   5.029   1.225   2.831 -0.2966  0.5138  0.0162
12239TIP3    H158132   5.071   1.215   2.916  1.6035 -1.1662 -1.0165
12239TIP3    H258133   4.939   1.198   2.844 -0.8029  2.8783  2.0280
12240TIP3   OH258134   4.981   4.731   1.976  1.0218  0.1711  0.0764
12240TIP3    H158135   4.997   4.799   1.910  1.0545 -0.1599 -0.2617
12240TIP3    H258136   4.953   4.655   1.925 -1.6398  0.6938  0.5974
12241TIP3   OH258137   6.343   4.025   5.129 -0.7408  0.0139  0.0351
12241TIP3    H158138   6.295   3.949   5.095  0.9068 -1.4036  0.7461
12241TIP3    H258139   6.281   4.068   5.188 -2.3320  0.3390 -1.7654
12242TIP3   OH258140   1.061   3.039  13.168  0.3908  0.0200 -0.3169
12242TIP3    H158141   1.102   3.118  13.134 -0.5512  1.0556  0.8734
12242TIP3    H258142   1.097   3.029  13.256  1.3184 -1.5132 -0.8393
12243TIP3   OH258143   4.283   3.120  12.272  0.2149  0.2788 -0.5272
12243TIP3    H158144   4.213   3.115  12.206  0.3474 -1.3791 -0.5812
12243TIP3    H258145   4.263   3.049  12.333 -1.3417  3.2406  2.7537
12244TIP3   OH258146   4.711   4.586   3.102 -0.3119  0.1049  0.0793
12244TIP3    H158147   4.682   4.562   3.014 -0.4437 -3.1896  0.8825
12244TIP3    H258148   4.642   4.642   3.136 -1.9292 -1.2693 -0.7797
12245TIP3   OH258149   3.437   3.194   2.577 -0.0750 -0.3867  0.3188
12245TIP3    H158150   3.518   3.209   2.625  0.5243  1.2661 -1.0934
12245TIP3    H258151   3.380   3.267   2.602  0.3194  0.6179 -1.5353
12246TIP3   OH258152   5.489   2.802   2.969  0.2015 -0.4078 -0.2702
12246TIP3    H158153   5.430   2.777   2.898 -2.0382  1.0305  0.9803
12246TIP3    H258154   5.481   2.897   2.974  1.7880 -0.3035  0.6893
12247TIP3   OH258155   4.772   3.275   4.040 -0.2471 -0.6850 -0.2509
12247TIP3    H158156   4.696   3.227   4.008  0.3784 -1.1907 -0.9832
12247TIP3    H258157   4.847   3.230   4.003  0.4032  0.0577  0.1336
12248TIP3   OH258158   0.381   3.835  10.618 -0.0820 -0.3475  0.7465
12248TIP3    H158159   0.344   3.793  10.540 -1.2808 -0.0184  1.1105
12248TIP3    H258160   0.441   3.771  10.654 -0.1360 -0.8254 -0.0015
12249TIP3   OH258161   3.322   3.477  17.191 -0.3351  0.0732  0.9497
12249TIP3    H158162   3.236   3.503  17.226 -0.2407  0.5552  0.8241
12249TIP3    H258163   3.308   3.388  17.159 -0.8588  0.2402  0.7030
12250TIP3   OH258164   5.195   2.083  16.677  0.0214 -0.1840 -0.2294
12250TIP3    H158165   5.104   2.056  16.664 -0.2316  0.9641 -1.0123
12250TIP3    H258166   5.232   2.083  16.589  1.0202 -1.4164  0.1733
12251TIP3   OH258167   4.839   0.960  13.682  0.2716  0.1492  0.3197
12251TIP3    H158168   4.748   0.957  13.653 -0.2018  3.4103  1.0506
12251TIP3    H258169   4.890   0.976  13.603 -0.1594  1.1892  0.2319
12252TIP3   OH258170   1.163   0.848  13.293 -0.0909 -0.0183  0.1721
12252TIP3    H158171   1.095   0.783  13.315  1.0588 -1.0366  0.8787
12252TIP3    H258172   1.200   0.817  13.211 -1.3703  1.3107 -0.9597
12253TIP3   OH258173   5.330   2.934   3.593  0.3381 -0.3704 -0.3006
12253TIP3    H158174   5.316   3.027   3.604 -2.3716 -0.5529 -1.4981
12253TIP3    H258175   5.367   2.926   3.504 -0.1459 -0.4728 -0.4956
12254TIP3   OH258176   4.683   0.022  12.690 -0.0435 -0.1725  0.1210
12254TIP3    H158177   4.721   0.048  12.605 -1.4250 -1.9055 -1.1047
12254TIP3    H258178   4.638   0.100  12.721  1.1924  0.7463 -0.2969
12255TIP3   OH258179   0.412   0.143   2.439 -0.1270  0.3726  0.1026
12255TIP3    H158180   0.450   0.125   2.353  0.6845 -1.1287  0.7450
12255TIP3    H258181   0.470   0.209   2.477  0.4154 -0.0776  0.0811
12256TIP3   OH258182   3.918   3.744   3.652 -0.2526  0.4736 -0.1219
12256TIP3    H158183   3.934   3.707   3.565  1.2894  2.0526 -0.5719
12256TIP3    H258184   3.846   3.692   3.688  0.4577 -1.5707 -1.4941
12257TIP3   OH258185   5.005   2.365   5.889  0.5655 -0.2493 -0.1407
12257TIP3    H158186   4.914   2.353   5.915 -0.3368  1.6655 -2.1250
12257TIP3    H258187   5.055   2.353   5.969 -1.4602 -0.8968  1.0887
12258TIP3   OH258188   2.912   2.362   2.430 -0.1478 -0.2938  0.0602
12258TIP3    H158189   2.966   2.413   2.369 -1.4908 -0.8698 -1.6745
12258TIP3    H258190   2.938   2.394   2.517  1.6245  0.7506 -0.7965
12259TIP3   OH258191   3.652   5.971   0.551  0.0522 -0.2246 -0.3645
12259TIP3    H158192   3.557   5.964   0.543  0.0758 -0.9426 -0.1087
12259TIP3    H258193   3.682   5.999   0.465 -0.4576  0.7897 -0.2236
12260TIP3   OH258194   1.195   6.562  12.131 -0.1107  0.3501  0.2555
12260TIP3    H158195   1.172   6.622  12.202 -1.7612 -0.1989  0.2270
12260TIP3    H258196   1.214   6.479  12.176 -0.8408  0.0888  0.0962
12261TIP3   OH258197   1.147   5.108   4.698 -0.4175  1.0282  0.2729
12261TIP3    H158198   1.198   5.063   4.631  0.2789 -0.2918  1.6155
12261TIP3    H258199   1.191   5.192   4.709  0.6288  0.4804  0.4005
12262TIP3   OH258200   0.544   3.174   3.109 -0.2646 -0.3651 -0.3713
12262TIP3    H158201   0.481   3.193   3.040 -0.9529 -1.1895  0.0094
12262TIP3    H258202   0.555   3.257   3.155 -1.1814 -0.2342 -0.3633
12263TIP3   OH258203   4.080   0.366   6.213  0.5523  0.0775  0.9460
12263TIP3    H158204   4.000   0.398   6.172  2.2883  2.7760 -0.6262
12263TIP3    H258205   4.055   0.280   6.249 -2.6040  0.1143 -0.7330
12264TIP3   OH258206   2.640   1.094   6.151  0.9391 -0.1561 -0.3093
12264TIP3    H158207   2.695   1.100   6.073 -1.5070  0.8569 -2.0758
12264TIP3    H258208   2.593   1.011   6.141  0.1223  0.2932 -0.2966
12265TIP3   OH258209   1.492   5.249   3.411  0.4331  0.4003 -0.1283
12265TIP3    H158210   1.507   5.289   3.497  0.6778  0.8339 -0.3684
12265TIP3    H258211   1.416   5.193   3.424  0.8882 -0.0898  0.5507
12266TIP3   OH258212   0.058   4.566  15.025  0.2464 -0.8166 -0.7332
12266TIP3    H158213   0.069   4.476  15.055  0.0049 -0.1925  1.4463
12266TIP3    H258214   0.102   4.569  14.940  1.9422 -2.5237  0.0119
12267TIP3   OH258215   4.540   0.782  12.717 -0.1276 -0.1417  0.2123
12267TIP3    H158216   4.580   0.850  12.772 -0.2897  0.6059 -0.5782
12267TIP3    H258217   4.532   0.823  12.631  0.0297 -1.2647 -0.3487
12268TIP3   OH258218   3.275   5.289   5.737 -0.2102  0.0551  0.7993
12268TIP3    H158219   3.232   5.301   5.821  1.3389 -2.6066  2.1019
12268TIP3    H258220   3.206   5.260   5.678 -0.8388 -0.7212  1.8957
12269TIP3   OH258221   0.600   3.388   4.274 -0.0115  0.3313 -0.2359
12269TIP3    H158222   0.633   3.298   4.274  0.2239  0.4163 -0.6359
12269TIP3    H258223   0.531   3.388   4.341  2.2016  0.6499  2.1940
12270TIP3   OH258224   2.945   3.466   1.157  0.2875 -0.2121 -0.2089
12270TIP3    H158225   3.002   3.397   1.191 -0.4808 -1.3410 -1.1361
12270TIP3    H258226   2.899   3.426   1.084 -0.0901  1.3386 -0.8742
12271TIP3   OH258227   2.147   5.521   2.787 -0.1783 -0.0418 -0.6709
12271TIP3    H158228   2.191   5.540   2.704 -3.2197  2.7052 -1.8399
12271TIP3    H258229   2.088   5.449   2.767  0.9422 -1.1767 -0.0833
12272TIP3   OH258230   3.113   6.530  12.213  0.3421 -0.4657 -0.2800
12272TIP3    H158231   3.132   6.555  12.304  0.2874 -2.5167  0.3531
12272TIP3    H258232   3.023   6.559  12.199  0.6842  0.7666 -0.0468
12273TIP3   OH258233   3.861   3.454   2.130  0.3269  0.5522 -0.0510
12273TIP3    H158234   3.833   3.397   2.201  0.8601  0.0159 -0.2661
12273TIP3    H258235   3.862   3.398   2.052 -0.2048  1.1216 -0.4795
12274TIP3   OH258236   3.345   0.870  14.292  0.0947  0.3566  0.2564
12274TIP3    H158237   3.260   0.847  14.330 -0.3423  1.0492 -0.2571
12274TIP3    H258238   3.381   0.935  14.351  0.9689 -1.0186  1.2823
12275TIP3   OH258239   4.841   5.782   3.571  0.3831 -0.0609  0.2110
12275TIP3    H158240   4.916   5.805   3.625 -0.3273  1.4306  0.6241
12275TIP3    H258241   4.853   5.832   3.490 -1.2489  2.0562  1.1716
12276TIP3   OH258242   2.421   0.073   3.009  0.3614  0.0972 -0.4296
12276TIP3    H158243   2.480  -0.002   3.000  0.5307  0.3112 -1.1823
12276TIP3    H258244   2.478   0.145   3.036  0.1768 -0.0710  0.4253
12277TIP3   OH258245   5.584   4.861   0.068 -0.1624 -0.3194 -0.1344
12277TIP3    H158246   5.580   4.851   0.163 -0.4191 -1.2735 -0.2315
12277TIP3    H258247   5.585   4.955   0.054  0.3721 -0.1643  0.8301
12278TIP3   OH258248   6.248   4.474  11.343  0.7782  0.2471  0.0350
12278TIP3    H158249   6.314   4.502  11.280 -0.6265  2.4541 -0.5748
12278TIP3    H258250   6.246   4.545  11.408  2.0766 -1.8898  2.5784
12279TIP3   OH258251   1.299   0.723   1.257  0.3917 -0.4373  0.1663
12279TIP3    H158252   1.315   0.673   1.178  0.8154 -1.0318  0.6163
12279TIP3    H258253   1.227   0.678   1.300  0.3137 -0.2517  0.2316
12280TIP3   OH258254   6.531   4.515   4.677 -0.0754 -0.7097 -0.3701
12280TIP3    H158255   6.522   4.441   4.737  1.4702 -2.3377 -2.0375
12280TIP3    H258256   6.619   4.507   4.642  0.2434  2.1018 -0.4631
12281TIP3   OH258257   6.748   0.191  16.132 -0.2050 -0.0192  0.0281
12281TIP3    H158258   6.706   0.122  16.184  0.0301 -1.0658 -1.0968
12281TIP3    H258259   6.805   0.237  16.194 -0.0383 -1.1316  0.7430
12282TIP3   OH258260   1.766   5.720  11.583  0.2613  0.2532 -0.1194
12282TIP3    H158261   1.832   5.679  11.640 -2.2884 -0.9702  2.2226
12282TIP3    H258262   1.753   5.807  11.620  1.5674  1.1072 -1.5464
12283TIP3   OH258263   2.348   4.512  14.563 -0.0001  0.1439 -0.4305
12283TIP3    H158264   2.266   4.476  14.531  0.4725 -0.0370 -1.4759
12283TIP3    H258265   2.385   4.558  14.488  2.5022 -2.6447 -1.0731
12284TIP3   OH258266   6.628   1.495  13.519  0.3883 -0.5730  0.2195
12284TIP3    H158267   6.675   1.532  13.444  0.3462  0.0118  0.4792
12284TIP3    H258268   6.596   1.571  13.567  1.1165 -0.9237  1.2860
12285TIP3   OH258269   0.790   2.905  11.455 -0.2564  0.1230  0.1496
12285TIP3    H158270   0.854   2.870  11.516 -0.4825 -0.4754  0.0529
12285TIP3    H258271   0.806   3.000  11.454  1.2581 -0.1055 -0.5891
12286TIP3   OH258272   5.768   5.583  14.362  0.0620  0.0285  0.2288
12286TIP3    H158273   5.722   5.621  14.287 -0.0070 -0.1543  0.1786
12286TIP3    H258274   5.698   5.544  14.415  0.2568 -1.1788 -0.3706
12287TIP3   OH258275   4.915   0.992   0.012 -0.1826  0.0274  0.8333
12287TIP3    H158276   4.826   0.975   0.041  0.3044 -1.2048  1.6658
12287TIP3    H258277   4.962   1.016   0.091  0.2693  0.5272  0.4250
12288TIP3   OH258278   3.903   3.138   4.138 -0.3504  0.4699  0.6653
12288TIP3    H158279   3.951   3.142   4.056 -1.5182 -2.1223 -0.2571
12288TIP3    H258280   3.846   3.215   4.137 -1.5333 -0.3339 -1.8028
12289TIP3   OH258281   5.024   2.404   2.550 -0.2278 -0.5029  0.6693
12289TIP3    H158282   4.970   2.338   2.506 -1.4395  0.4908  0.5971
12289TIP3    H258283   5.106   2.359   2.570 -0.3452 -1.5262 -0.9494
12290TIP3   OH258284   4.244   0.174   0.581  0.7316 -0.1650 -0.2219
12290TIP3    H158285   4.327   0.168   0.533  1.2936  3.1468  0.0976
12290TIP3    H258286   4.204   0.255   0.550 -1.5364 -0.7039  1.0249
12291TIP3   OH258287   0.068   3.272   6.659  0.1696  0.7155 -0.0599
12291TIP3    H158288   0.114   3.333   6.716 -1.0105  0.9234  0.7030
12291TIP3    H258289   0.137   3.227   6.611  1.1304  1.3992  0.6528
12292TIP3   OH258290   6.610   5.228   2.459 -0.7862  0.2800  0.3964
12292TIP3    H158291   6.579   5.140   2.480 -0.7658  0.0718 -0.4065
12292TIP3    H258292   6.623   5.270   2.544 -0.7298 -0.5142  0.7908
12293TIP3   OH258293   4.567   3.435   1.026  0.0506  0.3051 -0.1997
12293TIP3    H158294   4.652   3.394   1.011  1.1493  1.8477  1.3771
12293TIP3    H258295   4.577   3.524   0.992 -0.4589  0.9017  1.1300
12294TIP3   OH258296   4.292   5.835   3.153  0.6635  0.3831  0.5414
12294TIP3    H158297   4.258   5.823   3.241 -0.8932  0.8717  0.0482
12294TIP3    H258298   4.281   5.750   3.111  0.6118  0.3801  0.5611
12295TIP3   OH258299   0.288   2.428   0.496  0.0882  0.1822 -0.3397
12295TIP3    H158300   0.357   2.493   0.493  2.2039 -1.8155  1.2556
12295TIP3    H258301   0.245   2.441   0.580  1.8666 -1.6240  0.9406
12296TIP3   OH258302   4.608   1.503  12.904  0.5099 -0.2053  0.1409
12296TIP3    H158303   4.668   1.442  12.947  1.0804  0.9147  1.0013
12296TIP3    H258304   4.571   1.454  12.832  1.0416 -1.5262  0.7401
12297TIP3   OH258305   0.286   3.548  16.946 -0.1643  0.0670 -0.0143
12297TIP3    H158306   0.376   3.537  16.978 -0.0736  2.1008  0.5787
12297TIP3    H258307   0.232   3.505  17.013  0.3249 -0.8595 -0.1933
12298TIP3   OH258308   1.681   4.122   2.204  0.2149 -0.4645  1.0878
12298TIP3    H158309   1.677   4.196   2.266 -1.0326  0.7343 -0.3297
12298TIP3    H258310   1.774   4.107   2.190  0.5592  2.0174  0.1471
12299TIP3   OH258311   2.235   1.460  12.764 -0.0239  0.4819 -0.8570
12299TIP3    H158312   2.254   1.525  12.697 -0.2060 -0.6594 -2.0709
12299TIP3    H258313   2.173   1.400  12.721 -1.7621  0.8512  1.0121
12300TIP3   OH258314   6.435   0.069  10.860  0.1297  0.1334  0.2357
12300TIP3    H158315   6.481   0.153  10.863  1.0787 -0.3235 -0.8387
12300TIP3    H258316   6.459   0.027  10.942  0.6514  0.4085  0.2317
12301TIP3   OH258317   3.746   3.861   2.644 -0.0483 -0.4284 -0.3753
12301TIP3    H158318   3.788   3.833   2.725 -0.1835 -1.5655 -0.6691
12301TIP3    H258319   3.811   3.916   2.600  0.0481  0.1439  0.4653
12302TIP3   OH258320   2.096   4.780   6.063 -0.3479  0.2785 -0.5415
12302TIP3    H158321   2.150   4.826   6.127 -0.5340  1.5109 -1.2432
12302TIP3    H258322   2.151   4.707   6.034 -0.2189 -0.2352  0.9171
12303TIP3   OH258323   6.224   1.978  13.897  0.1901  0.0415 -0.0002
12303TIP3    H158324   6.309   1.935  13.896  0.1778 -0.0519 -2.6203
12303TIP3    H258325   6.162   1.910  13.871 -0.7145  0.1770  1.6175
12304TIP3   OH258326   1.597   1.036   5.335  0.0450 -0.1497 -0.4147
12304TIP3    H158327   1.658   1.063   5.404 -1.7312  2.3185  0.3357
12304TIP3    H258328   1.530   0.986   5.381 -0.0015 -0.3894 -0.7420
12305TIP3   OH258329   2.272   5.113  11.667  0.2122 -0.3311  0.3518
12305TIP3    H158330   2.229   5.098  11.583  0.6390 -0.1537  0.0989
12305TIP3    H258331   2.257   5.206  11.686 -0.3404 -0.4898  0.7361
12306TIP3   OH258332   3.958   1.837   2.752 -0.1626 -0.1755  0.0369
12306TIP3    H158333   3.989   1.866   2.667  0.7931  0.6861  0.6702
12306TIP3    H258334   3.890   1.772   2.731  0.1372 -0.0684 -1.3666
12307TIP3   OH258335   6.331   2.428   0.444 -0.0638 -0.1312 -0.4111
12307TIP3    H158336   6.388   2.504   0.453 -0.7206  0.3171  0.0670
12307TIP3    H258337   6.284   2.423   0.527 -1.0304 -0.2336 -0.9520
12308TIP3   OH258338   3.062   2.307  11.573 -0.3902 -0.1159 -0.0405
12308TIP3    H158339   3.059   2.373  11.642 -0.1427  0.1358 -0.2709
12308TIP3    H258340   3.086   2.355  11.494 -0.7530 -0.3887 -0.3202
12309TIP3   OH258341   0.495   6.267  11.254  0.0511  0.1036  0.1700
12309TIP3    H158342   0.560   6.299  11.316 -1.3364 -1.2998  2.4728
12309TIP3    H258343   0.540   6.200  11.203  0.3076 -1.3183  2.1825
12310TIP3   OH258344   1.867   2.802  14.503  0.6301  0.3928  0.3051
12310TIP3    H158345   1.871   2.853  14.422 -1.2812  0.2248  0.0680
12310TIP3    H258346   1.828   2.718  14.477  0.6841  0.0506  1.2765
12311TIP3   OH258347   6.512   4.351   1.255  0.3153  0.1047 -0.1830
12311TIP3    H158348   6.600   4.390   1.255 -0.4847  2.0496 -0.4377
12311TIP3    H258349   6.518   4.279   1.317  2.0074  0.3918  0.0489
12312TIP3   OH258350   5.125   2.046  15.758  0.3653  0.6448 -0.2267
12312TIP3    H158351   5.113   1.968  15.813 -0.7818  0.1547 -1.1379
12312TIP3    H258352   5.178   2.105  15.812  1.7857 -0.9800  0.2760
12313TIP3   OH258353   2.423   4.274  16.875  0.4768  0.7560  0.2315
12313TIP3    H158354   2.424   4.361  16.915  0.7595  0.9851 -0.2692
12313TIP3    H258355   2.455   4.215  16.943  1.2136  1.1815  0.2531
12314TIP3   OH258356   0.998   5.299  13.982  0.2707  0.2968 -0.3601
12314TIP3    H158357   1.031   5.363  13.919 -0.5219  1.3833  0.2799
12314TIP3    H258358   1.033   5.328  14.066 -0.3141  0.0417 -0.0217
12315TIP3   OH258359   5.227   5.431   6.604  0.1807 -0.1898  0.0197
12315TIP3    H158360   5.309   5.465   6.641 -0.2275 -1.0528  1.7719
12315TIP3    H258361   5.242   5.337   6.596 -0.7704 -0.3991  0.6744
12316TIP3   OH258362   0.629   3.918   6.278 -0.0139 -0.4432  0.1180
12316TIP3    H158363   0.659   4.005   6.253  0.4831 -0.7908 -0.5199
12316TIP3    H258364   0.698   3.859   6.246 -0.0091 -1.0113  1.1376
12317TIP3   OH258365   0.321   2.274  17.195  0.2137  0.4433 -0.5048
12317TIP3    H158366   0.239   2.263  17.147  0.8740  0.7023 -1.7194
12317TIP3    H258367   0.311   2.217  17.272 -1.3737  1.0092 -0.2448
12318TIP3   OH258368   4.310   2.968   0.637  0.2400  0.2833  0.0645
12318TIP3    H158369   4.312   2.989   0.544  1.1922  1.1650  0.2640
12318TIP3    H258370   4.399   2.939   0.657  0.2376  0.7968  0.8450
12319TIP3   OH258371   6.636   4.452   5.448 -0.0560 -0.0246  0.1275
12319TIP3    H158372   6.604   4.474   5.535 -0.2618 -1.3722  0.4179
12319TIP3    H258373   6.723   4.492   5.444 -0.1238  0.2153  0.8821
12320TIP3   OH258374   3.100   4.138  16.648  0.4574 -0.3888 -0.5360
12320TIP3    H158375   3.046   4.149  16.570  0.3917  0.7868 -0.3476
12320TIP3    H258376   3.150   4.058  16.632 -2.2451 -2.2753 -0.1404
12321TIP3   OH258377   1.813   3.591   5.756  0.1321  0.3295 -0.0532
12321TIP3    H158378   1.848   3.638   5.679  0.1881  0.2941 -0.0496
12321TIP3    H258379   1.780   3.660   5.813 -0.5848  0.3155 -0.4392
12322TIP3   OH258380   2.324   5.355  12.177  0.2141  0.6084 -0.7545
12322TIP3    H158381   2.267   5.421  12.217 -1.0927 -0.5665 -0.5939
12322TIP3    H258382   2.406   5.361  12.227 -1.2114 -0.5321  1.9592
12323TIP3   OH258383   5.885   2.740  13.082  0.0221 -0.2128  0.1609
12323TIP3    H158384   5.947   2.688  13.032 -1.4181 -0.7690 -1.1100
12323TIP3    H258385   5.807   2.745  13.027 -0.5967  1.6217  1.1086
12324TIP3   OH258386   0.137   4.812  15.345  0.3136 -0.4604  0.2961
12324TIP3    H158387   0.192   4.889  15.361 -1.4747  0.9093  0.2729
12324TIP3    H258388   0.169   4.776  15.262 -0.4808  1.9060 -1.1329
12325TIP3   OH258389   5.642   3.191  10.238 -0.7874 -0.1416 -0.3189
12325TIP3    H158390   5.641   3.096  10.224  2.1953 -0.6704  2.0507
12325TIP3    H258391   5.569   3.206  10.299 -1.0844 -0.9498 -0.4549
12326TIP3   OH258392   0.253   3.645  12.988  0.6509  0.4305 -0.0605
12326TIP3    H158393   0.216   3.732  13.002 -1.2334 -0.2631 -0.5083
12326TIP3    H258394   0.339   3.661  12.949  0.7555  2.0877  0.7751
12327TIP3   OH258395   6.016   3.761   2.290 -0.4784  0.0418  0.6488
12327TIP3    H158396   5.972   3.712   2.221 -0.1870 -0.3363  0.7286
12327TIP3    H258397   5.999   3.853   2.269  1.0361  0.0349 -0.9203
12328TIP3   OH258398   3.763   1.391  10.655 -0.4936  0.1622 -0.4496
12328TIP3    H158399   3.703   1.464  10.663 -0.5345 -0.0584  1.7047
12328TIP3    H258400   3.719   1.331  10.594 -2.6034 -0.0927  1.2203
12329TIP3   OH258401   3.021   1.179   4.218 -0.0563  0.4244  0.1556
12329TIP3    H158402   2.995   1.096   4.177  0.4923  0.0204  0.6027
12329TIP3    H258403   2.957   1.192   4.288  0.1710  0.0961  0.4291
12330TIP3   OH258404   0.555   5.466  10.657  0.2181 -0.0640 -0.0417
12330TIP3    H158405   0.531   5.453  10.749  0.9500  0.1890  0.1943
12330TIP3    H258406   0.473   5.460  10.609 -0.2211  0.2002  0.6718
12331TIP3   OH258407   1.512   0.075   4.597  0.6360  0.2296  0.0572
12331TIP3    H158408   1.513   0.033   4.512  1.6694  1.5729 -0.6326
12331TIP3    H258409   1.576   0.146   4.590 -0.7608  1.7019  1.2482
12332TIP3   OH258410   2.444   3.119  14.733 -0.3085 -0.1108 -0.5933
12332TIP3    H158411   2.523   3.093  14.687  2.2358 -0.0872  3.3599
12332TIP3    H258412   2.379   3.053  14.709  2.1070 -2.5175 -0.8642
12333TIP3   OH258413   3.087   6.577   3.012 -0.2209  0.0206 -0.5954
12333TIP3    H158414   3.071   6.605   2.922  0.9674  0.7168 -0.6097
12333TIP3    H258415   3.044   6.644   3.065 -2.5509 -1.3758 -0.5985
12334TIP3   OH258416   1.960   0.616  14.490 -0.1224 -0.2519 -0.3786
12334TIP3    H158417   2.052   0.624  14.464  0.4548 -2.2098  0.8180
12334TIP3    H258418   1.931   0.535  14.448 -1.2407  0.2173 -0.5349
12335TIP3   OH258419   0.453   4.335  16.140 -0.4226 -0.3264 -0.5776
12335TIP3    H158420   0.508   4.258  16.148  0.4314  0.2274 -0.9424
12335TIP3    H258421   0.427   4.356  16.230 -1.2541 -1.4373 -0.5439
12336TIP3   OH258422   3.903   2.254  14.452 -0.2852 -0.0286  0.7132
12336TIP3    H158423   3.850   2.305  14.391  0.5146  1.2510  1.0540
12336TIP3    H258424   3.918   2.312  14.527  2.2588  0.0069  0.2915
12337TIP3   OH258425   2.023   1.265   5.338  0.3050 -0.3925  0.0769
12337TIP3    H158426   1.956   1.220   5.389 -0.4340  1.3181  0.7253
12337TIP3    H258427   2.038   1.209   5.262  0.3747 -2.2858  1.4401
12338TIP3   OH258428   0.016   6.332   4.045  0.3074  0.5152  0.1524
12338TIP3    H158429  -0.039   6.261   4.078 -1.5148  2.1772  0.8495
12338TIP3    H258430   0.012   6.323   3.950 -0.2857 -0.0336  0.2190
12339TIP3   OH258431   6.469   0.025   4.095 -0.4902 -0.4450 -0.3411
12339TIP3    H158432   6.525   0.079   4.150  0.7261 -0.9560 -1.0553
12339TIP3    H258433   6.529  -0.030   4.045 -1.6603 -1.6875 -0.4418
12340TIP3   OH258434   2.726   2.927   4.998  0.6156 -0.0377 -0.6111
12340TIP3    H158435   2.805   2.940   4.946 -0.2099 -0.0767 -1.9328
12340TIP3    H258436   2.700   2.836   4.981  0.5623 -0.1914  0.2224
12341TIP3   OH258437   0.615   1.028  14.212  0.2559 -0.3420  0.0629
12341TIP3    H158438   0.658   0.942  14.208 -0.7475 -0.9441  1.3064
12341TIP3    H258439   0.578   1.032  14.300 -2.3628  0.0445 -0.9579
12342TIP3   OH258440   2.646   5.411  15.401 -0.0932 -0.1697  0.3455
12342TIP3    H158441   2.726   5.365  15.426  0.6606  1.6130  1.4113
12342TIP3    H258442   2.637   5.395  15.308  1.3142 -0.6982  0.2801
12343TIP3   OH258443   2.328   2.845  12.227  0.5093  0.1213  0.6283
12343TIP3    H158444   2.351   2.814  12.139  2.0541  2.0336  0.2999
12343TIP3    H258445   2.239   2.812  12.241  0.9368 -1.8581 -0.8475
12344TIP3   OH258446   0.211   3.206  12.792  0.2672 -0.2692 -0.0455
12344TIP3    H158447   0.186   3.294  12.763 -2.6645 -0.9973 -0.0164
12344TIP3    H258448   0.304   3.213  12.812  0.0585  2.9022  0.2743
12345TIP3   OH258449   3.920   0.747   5.087  0.0046 -0.0701 -0.1075
12345TIP3    H158450   3.827   0.764   5.098  0.0503  1.5250 -1.7351
12345TIP3    H258451   3.947   0.803   5.014  1.4296 -3.4216 -2.4039
12346TIP3   OH258452   6.072   0.413   2.507 -0.4762 -0.2305 -0.2352
12346TIP3    H158453   6.051   0.325   2.538 -0.3535  0.0879  0.7877
12346TIP3    H258454   5.997   0.467   2.533 -0.3172  0.0711 -0.3894
12347TIP3   OH258455   0.772   6.013   1.179  0.1945 -0.0023 -0.0373
12347TIP3    H158456   0.777   6.104   1.149 -0.5228 -0.0703 -0.3901
12347TIP3    H258457   0.694   6.010   1.235 -0.2258 -0.5606 -0.6382
12348TIP3   OH258458   0.649   1.400  11.292 -0.2708 -0.5251  0.0238
12348TIP3    H158459   0.644   1.456  11.214  0.0832 -0.7154 -0.1412
12348TIP3    H258460   0.644   1.460  11.366  1.8829 -0.0733 -0.1403
12349TIP3   OH258461   0.819   6.238   2.630 -0.1628 -0.5536  0.6389
12349TIP3    H158462   0.849   6.322   2.595 -2.3052 -0.6237 -1.6541
12349TIP3    H258463   0.746   6.261   2.688 -0.8182 -0.7978 -0.0714
12350TIP3   OH258464   2.600   4.704   3.086 -0.1397  0.4702 -0.2438
12350TIP3    H158465   2.594   4.770   3.017 -2.6314 -1.2530 -1.8832
12350TIP3    H258466   2.549   4.739   3.158 -0.3067  0.9264 -0.5803
12351TIP3   OH258467   2.673   5.999   5.223  0.1882  0.6324  0.2981
12351TIP3    H158468   2.694   5.908   5.242  1.1086  0.4942 -1.2309
12351TIP3    H258469   2.736   6.049   5.276  0.7923  0.3337 -0.1265
12352TIP3   OH258470   2.470   4.282  17.258  0.0531 -0.2345 -0.3159
12352TIP3    H158471   2.488   4.252  17.169  3.2237 -1.9353  0.7607
12352TIP3    H258472   2.511   4.368  17.264 -1.6051  0.6345 -0.9142
12353TIP3   OH258473   6.003   0.656  12.925  0.1296  0.3013 -0.4741
12353TIP3    H158474   5.984   0.582  12.867 -1.7629  0.2701  0.1370
12353TIP3    H258475   5.922   0.707  12.927  0.5425  0.9595  1.1697
12354TIP3   OH258476   3.820   5.101  14.517  0.2022  0.3124  0.0558
12354TIP3    H158477   3.841   5.008  14.530 -0.7229  0.2043  0.9511
12354TIP3    H258478   3.853   5.121  14.429  0.3966 -0.8692 -0.1621
12355TIP3   OH258479   1.800   5.726   2.839  0.4351 -0.5611  0.4324
12355TIP3    H158480   1.809   5.653   2.900  0.6135  0.4667  1.6848
12355TIP3    H258481   1.805   5.804   2.894 -2.7912  0.4010 -0.4197
12356TIP3   OH258482   2.597   2.386   5.512  0.2523 -0.0874  0.1695
12356TIP3    H158483   2.555   2.301   5.525  0.1818 -0.5560 -2.5453
12356TIP3    H258484   2.678   2.381   5.563 -1.1480 -0.5686  2.4819
12357TIP3   OH258485   4.043   6.610  10.973  0.2487 -0.1729 -0.5244
12357TIP3    H158486   4.023   6.636  11.063  0.5195  1.8810 -1.0112
12357TIP3    H258487   3.963   6.567  10.942 -0.3017  0.2360  0.2948
12358TIP3   OH258488   4.911   3.582   6.125 -0.1331 -0.3771  0.0120
12358TIP3    H158489   4.942   3.655   6.179  1.7917 -1.3829  0.3354
12358TIP3    H258490   4.819   3.604   6.106 -0.0661  1.3292  1.4057
12359TIP3   OH258491   3.263   1.090   5.337 -0.3615 -0.5524 -0.3582
12359TIP3    H158492   3.178   1.091   5.293 -0.7426 -0.7206  0.3625
12359TIP3    H258493   3.307   1.170   5.306 -2.1280  1.4153  1.8800
12360TIP3   OH258494   2.775   1.297   1.922 -0.4037  0.4415  0.2903
12360TIP3    H158495   2.810   1.219   1.965 -1.5903  0.5839  1.5684
12360TIP3    H258496   2.734   1.348   1.992 -0.0734  1.9978 -0.5949
12361TIP3   OH258497   6.602   6.440  12.282 -0.3126  0.3472 -0.2989
12361TIP3    H158498   6.604   6.344  12.291  0.9318  0.5689  2.6519
12361TIP3    H258499   6.637   6.456  12.194  1.1046 -1.8524 -0.2219
12362TIP3   OH258500   2.530   4.952  15.815  0.4552 -0.0987 -0.1215
12362TIP3    H158501   2.507   4.863  15.843  0.2026  0.1542  0.5030
12362TIP3    H258502   2.528   4.949  15.720 -2.0493 -0.1407 -0.1295
12363TIP3   OH258503   6.066   0.008   1.914  0.1986 -0.2313  0.4057
12363TIP3    H158504   6.055   0.100   1.888  0.8115 -0.4249 -0.6256
12363TIP3    H258505   5.990  -0.037   1.876  0.9296 -0.4610 -0.8501
12364TIP3   OH258506   6.626   6.683   6.591  0.2968 -0.3548 -0.0126
12364TIP3    H158507   6.574   6.605   6.575  0.5451 -0.4669 -0.2772
12364TIP3    H258508   6.708   6.650   6.627 -0.2991 -0.1005  1.6460
12365TIP3   OH258509   3.175   2.490  12.544 -0.3103  0.5065  0.5355
12365TIP3    H158510   3.128   2.544  12.607 -0.3984 -0.1415  1.0390
12365TIP3    H258511   3.125   2.408  12.541 -0.8070  0.8104 -1.0146
12366TIP3   OH258512   0.531   2.015  15.338  0.1251  0.1274  0.4254
12366TIP3    H158513   0.562   2.101  15.309  0.1194 -0.6251 -2.0123
12366TIP3    H258514   0.441   2.010  15.306  0.0271 -0.6762  0.8145
12367TIP3   OH258515   6.460   3.332   3.930 -0.1779 -0.0503 -0.7900
12367TIP3    H158516   6.489   3.368   4.013  1.2047  0.2797 -1.3853
12367TIP3    H258517   6.395   3.266   3.954  1.2939 -1.0577  0.6795
12368TIP3   OH258518   4.907   4.228   1.878 -0.1198  0.1332  0.1056
12368TIP3    H158519   4.929   4.254   1.968 -1.2875  1.2584  0.0948
12368TIP3    H258520   4.907   4.309   1.828  0.3942 -0.4710 -0.9042
12369TIP3   OH258521   3.951   5.635  11.812  0.1755  0.7968  0.2405
12369TIP3    H158522   3.934   5.632  11.906  0.7366 -1.6326  0.3369
12369TIP3    H258523   4.035   5.681  11.804  1.4795 -1.2516  1.2375
12370TIP3   OH258524   1.315   4.461  16.638  0.1636  0.6042 -0.1460
12370TIP3    H158525   1.402   4.450  16.676  0.1557  0.7124 -0.0987
12370TIP3    H258526   1.292   4.552  16.655 -0.6875  0.1283  1.3504
12371TIP3   OH258527   5.235   1.776  14.759 -0.2872 -0.3066  0.1283
12371TIP3    H158528   5.179   1.806  14.831 -1.5470 -1.5440 -0.2769
12371TIP3    H258529   5.255   1.685  14.781  1.7718  0.1603  0.3431
12372TIP3   OH258530   4.646   4.544  14.554 -0.2531 -0.0625  0.0884
12372TIP3    H158531   4.721   4.592  14.521  0.2127 -0.2740  0.8120
12372TIP3    H258532   4.641   4.465  14.500 -1.1416  0.8613 -1.2353
12373TIP3   OH258533   2.496   6.221  16.501  0.3035  0.2369 -0.0321
12373TIP3    H158534   2.403   6.234  16.519 -0.2193 -0.6398 -1.8603
12373TIP3    H258535   2.534   6.308  16.501 -0.3285  0.5431  1.5646
12374TIP3   OH258536   0.897   6.219  12.289  0.2227  0.2254  0.1729
12374TIP3    H158537   0.858   6.132  12.300  0.3055  0.1710  0.0358
12374TIP3    H258538   0.925   6.221  12.197  1.9375 -0.2973  0.6609
12375TIP3   OH258539   2.647   4.338   3.471  0.6098  0.5334  0.0223
12375TIP3    H158540   2.709   4.391   3.521 -1.2671  0.3961  2.7369
12375TIP3    H258541   2.638   4.257   3.522 -2.7104  1.0883  0.5729
12376TIP3   OH258542   2.077   5.172  12.459  0.4993 -0.3464  0.0337
12376TIP3    H158543   2.117   5.124  12.531 -0.4906 -0.7566  0.3308
12376TIP3    H258544   2.131   5.152  12.383  0.1889 -1.8145  0.1820
12377TIP3   OH258545   0.987   0.626  13.999  0.4957  0.0161  0.4584
12377TIP3    H158546   1.066   0.573  13.995  1.1759  1.0498 -0.0718
12377TIP3    H258547   0.985   0.660  14.089 -0.8053 -2.1276  1.3350
12378TIP3   OH258548   0.649   3.841   0.524 -0.6072  0.5519  0.4168
12378TIP3    H158549   0.726   3.809   0.570 -0.8903 -0.9960 -0.1260
12378TIP3    H258550   0.597   3.883   0.592 -0.3226 -0.3814  1.2441
12379TIP3   OH258551   3.619   2.074   2.043  0.2218 -1.0790  0.3860
12379TIP3    H158552   3.550   2.059   2.108 -0.5293  1.2348  0.2020
12379TIP3    H258553   3.609   2.165   2.018  1.9068 -1.3190 -1.3872
12380TIP3   OH258554   6.396   0.590   1.599 -0.0636 -0.1616  0.6273
12380TIP3    H158555   6.422   0.651   1.531 -1.1013  1.0818  1.3055
12380TIP3    H258556   6.478   0.547   1.625  0.6712  0.8363  0.0340
12381TIP3   OH258557   6.297   5.831   5.866 -0.3984  0.0790 -0.4234
12381TIP3    H158558   6.256   5.917   5.852  0.9015  0.9442  0.7989
12381TIP3    H258559   6.239   5.786   5.927 -0.2038  0.7999  0.3087
12382TIP3   OH258560   3.492   4.417   4.567  0.0906 -0.0184  0.2039
12382TIP3    H158561   3.539   4.406   4.649  1.1047 -0.9965 -0.4788
12382TIP3    H258562   3.532   4.494   4.526 -0.9025  0.9074  0.9256
12383TIP3   OH258563   3.525   1.566   0.476 -0.0843 -0.1016  0.4133
12383TIP3    H158564   3.450   1.590   0.421  0.2036  0.9523  0.4525
12383TIP3    H258565   3.491   1.499   0.535 -0.4510 -1.1032 -0.9078
12384TIP3   OH258566   0.409   3.661   2.922 -0.2967 -0.0317 -0.0018
12384TIP3    H158567   0.425   3.731   2.859  3.4866 -0.8640 -0.2079
12384TIP3    H258568   0.388   3.706   3.003 -1.5132  1.1642 -0.9307
12385TIP3   OH258569   2.460   2.192   1.911  0.6570  0.0453 -0.0879
12385TIP3    H158570   2.450   2.217   2.003 -1.4692  0.1595 -0.3069
12385TIP3    H258571   2.421   2.105   1.905  1.9134 -0.5088 -0.6673
12386TIP3   OH258572   4.487   3.781  15.904  0.7256 -0.1242 -0.5159
12386TIP3    H158573   4.477   3.822  15.991 -1.3806  0.1956 -0.8474
12386TIP3    H258574   4.531   3.848  15.851  0.4006  0.3755 -0.1587
12387TIP3   OH258575   1.683   0.378   0.633 -0.4321  0.6795  0.1148
12387TIP3    H158576   1.701   0.471   0.624 -1.7304  0.9956  0.4795
12387TIP3    H258577   1.626   0.357   0.559 -1.0479  0.4492  0.6375
12388TIP3   OH258578   6.490   0.109  15.912 -0.0875  0.2686  0.8303
12388TIP3    H158579   6.397   0.118  15.892 -0.0772  0.9097  1.0652
12388TIP3    H258580   6.508   0.178  15.976 -0.0237 -1.4092  2.7347
12389TIP3   OH258581   1.476   1.828   1.443  0.0841  0.2695 -0.2412
12389TIP3    H158582   1.433   1.746   1.420  0.7506 -0.2663  0.3580
12389TIP3    H258583   1.407   1.881   1.484 -0.2080 -0.2407 -0.0681
12390TIP3   OH258584   5.785   2.129  11.466 -0.2169 -0.2339 -0.3636
12390TIP3    H158585   5.746   2.047  11.495 -2.0716  0.5551 -0.5304
12390TIP3    H258586   5.824   2.108  11.381  1.6371 -1.5266  0.7008
12391TIP3   OH258587   0.586   2.592   6.309 -0.6218  0.7205 -0.6777
12391TIP3    H158588   0.672   2.575   6.272 -0.6274  1.6173 -1.1286
12391TIP3    H258589   0.586   2.546   6.393  1.1014  2.5000  0.3547
12392TIP3   OH258590   6.608   0.189   2.940  0.5865  0.2043 -0.1051
12392TIP3    H158591   6.649   0.167   3.023  2.0885  1.1133 -0.5600
12392TIP3    H258592   6.516   0.165   2.951  0.9387 -0.5402  1.4755
12393TIP3   OH258593   3.949   6.369  12.076 -0.1645 -0.6640  0.2106
12393TIP3    H158594   4.042   6.350  12.060 -0.3900 -2.5173  0.7793
12393TIP3    H258595   3.913   6.387  11.990  0.6546 -0.2538 -0.0585
12394TIP3   OH258596   4.969   3.008  13.619  0.5751 -0.1151  0.1394
12394TIP3    H158597   5.018   2.961  13.551  1.6608  0.1211  0.7414
12394TIP3    H258598   5.036   3.055  13.669 -0.2282 -0.0410  1.1842
12395TIP3   OH258599   0.804   1.471   4.871 -0.2001  0.0131  0.1893
12395TIP3    H158600   0.872   1.404   4.880 -0.1362 -0.1599 -1.3270
12395TIP3    H258601   0.847   1.543   4.826 -1.2061 -0.4734 -1.6657
12396TIP3   OH258602   6.593   4.073  15.308  0.0446  0.3082  0.9028
12396TIP3    H158603   6.624   4.094  15.220 -0.7374  2.2638  1.0414
12396TIP3    H258604   6.652   4.121  15.367 -1.1769  1.4120  1.2880
12397TIP3   OH258605   0.459   1.400   5.180  0.5312  0.5150  0.4021
12397TIP3    H158606   0.406   1.440   5.111  0.5140 -3.9125 -2.5980
12397TIP3    H258607   0.397   1.384   5.252 -0.3095  2.1411  0.0892
12398TIP3   OH258608   2.465   2.032  16.567  0.2251  0.4249 -0.4557
12398TIP3    H158609   2.484   1.938  16.565  0.3616  0.4589 -2.2786
12398TIP3    H258610   2.429   2.047  16.655 -2.2930 -1.8231 -0.9789
12399TIP3   OH258611   6.146   3.352  16.091 -0.0808 -0.3109  0.8955
12399TIP3    H158612   6.201   3.429  16.106  0.2708 -0.5462  0.8383
12399TIP3    H258613   6.136   3.348  15.996 -0.3260 -0.1792  0.9161
12400TIP3   OH258614   2.652   5.510   5.644 -0.4718 -0.3981 -0.3119
12400TIP3    H158615   2.727   5.454   5.661 -0.8394 -1.3831 -1.7587
12400TIP3    H258616   2.629   5.546   5.730  0.9847 -0.9007  0.3192
12401TIP3   OH258617   5.048   6.607  13.000 -0.3149  0.5180  0.4865
12401TIP3    H158618   5.136   6.575  12.978 -1.0749 -2.1499  0.9594
12401TIP3    H258619   4.995   6.585  12.923 -0.6505  1.8898  0.3035
12402TIP3   OH258620   0.508   3.766  13.424 -0.8042  0.4452 -0.0749
12402TIP3    H158621   0.594   3.763  13.467 -0.6042 -0.5516 -0.5164
12402TIP3    H258622   0.528   3.769  13.331 -1.2491  0.3861 -0.1758
12403TIP3   OH258623   3.151   2.522   0.208 -0.5590 -0.1852  0.0836
12403TIP3    H158624   3.132   2.560   0.293 -0.8579 -1.6035  0.6722
12403TIP3    H258625   3.147   2.428   0.222 -0.2857 -0.4490 -1.4297
12404TIP3   OH258626   1.671   0.290   1.738 -0.1246  0.3828  0.4836
12404TIP3    H158627   1.625   0.373   1.748 -2.7704 -0.6330 -1.7530
12404TIP3    H258628   1.721   0.301   1.657  1.1809  0.4234  1.2683
12405TIP3   OH258629   6.722   3.873  12.144  0.0942  0.3638  0.1671
12405TIP3    H158630   6.754   3.911  12.062 -0.6354 -0.9410 -0.7643
12405TIP3    H258631   6.797   3.875  12.203  0.2555  2.6402 -0.0229
12406TIP3   OH258632   5.193   4.615  13.316  0.1089 -0.3577 -0.1654
12406TIP3    H158633   5.124   4.550  13.306 -0.7315  0.6264 -0.9081
12406TIP3    H258634   5.232   4.597  13.401  0.0963 -2.0129 -0.4844
12407TIP3   OH258635   1.019   4.802   1.236 -0.0676 -0.3810  0.1805
12407TIP3    H158636   0.925   4.795   1.217 -0.3807 -1.9662  2.0269
12407TIP3    H258637   1.060   4.741   1.175 -0.4450 -1.0022  0.5320
12408TIP3   OH258638   2.145   0.643   0.519 -0.1505 -0.2500 -0.2740
12408TIP3    H158639   2.055   0.657   0.488 -0.8685 -0.6515  1.5203
12408TIP3    H258640   2.137   0.580   0.591  1.8547 -2.0807 -1.5246
12409TIP3   OH258641   0.475   5.962   4.897  0.0647 -0.8063 -0.0614
12409TIP3    H158642   0.383   5.987   4.886 -0.0862 -1.6106 -0.7358
12409TIP3    H258643   0.506   6.015   4.971 -0.7005  0.0968 -0.3692
12410TIP3   OH258644   4.652   2.648   4.706 -0.2657  0.5478  0.8620
12410TIP3    H158645   4.598   2.669   4.782 -1.4248  0.7573  0.0114
12410TIP3    H258646   4.652   2.553   4.702  1.3644  0.4350  2.1770
12411TIP3   OH258647   0.838   2.765  14.811 -0.3568 -0.0355 -0.4572
12411TIP3    H158648   0.902   2.714  14.861 -1.4750 -0.7289  0.3183
12411TIP3    H258649   0.849   2.736  14.720  0.6164  0.0729 -0.3786
12412TIP3   OH258650   4.066   4.378   0.661 -0.2238 -0.0578  0.0316
12412TIP3    H158651   4.161   4.395   0.663 -0.7003  3.5006  1.5462
12412TIP3    H258652   4.032   4.441   0.597 -1.6779 -0.3196  0.5156
12413TIP3   OH258653   1.105   3.122   0.843  0.2366 -0.5918 -0.0081
12413TIP3    H158654   1.063   3.186   0.785 -0.2849 -1.1298 -0.2384
12413TIP3    H258655   1.161   3.071   0.785  0.8645 -0.1805  0.2215
12414TIP3   OH258656   1.760   2.709  11.934  0.0698 -0.1674 -0.0712
12414TIP3    H158657   1.796   2.740  12.017 -0.6738 -0.7207  0.4681
12414TIP3    H258658   1.772   2.782  11.874 -1.1446  0.9826  1.0336
12415TIP3   OH258659   6.515   3.927   0.826  0.1624 -0.4784  0.0093
12415TIP3    H158660   6.569   3.937   0.905  1.1062  0.4734 -0.7368
12415TIP3    H258661   6.486   3.836   0.829  1.7091 -0.9944  0.5091
12416TIP3   OH258662   2.875   3.097  12.524 -0.3656 -0.4699  0.2819
12416TIP3    H158663   2.960   3.136  12.543 -0.7678  1.3669 -1.3696
12416TIP3    H258664   2.814   3.145  12.581 -0.5172 -0.6165  0.2428
12417TIP3   OH258665   0.201   1.952   4.674 -0.5094 -0.1214  0.1956
12417TIP3    H158666   0.221   2.014   4.744 -0.8063 -0.1240  0.2838
12417TIP3    H258667   0.145   2.000   4.614 -0.4249 -0.1836  0.0666
12418TIP3   OH258668   6.231   6.237  11.407  0.4381 -0.2371 -0.2324
12418TIP3    H158669   6.318   6.238  11.446  0.4366  0.0679 -0.2387
12418TIP3    H258670   6.240   6.182  11.329  0.3564 -1.1629  0.3934
12419TIP3   OH258671   1.140   5.066  16.985  0.3140 -0.3144 -0.2809
12419TIP3    H158672   1.123   4.978  17.019  2.0574 -0.5356  0.1212
12419TIP3    H258673   1.229   5.062  16.950  0.2691  1.1780 -0.6522
12420TIP3   OH258674   2.951   2.576   4.043  0.1069  0.3122  0.2717
12420TIP3    H158675   3.014   2.630   3.995  1.2051  1.3379  2.6777
12420TIP3    H258676   2.868   2.624   4.035 -0.4320 -0.8895 -2.6578
12421TIP3   OH258677   3.666   0.564  15.586 -0.5700  0.5095  0.3285
12421TIP3    H158678   3.732   0.512  15.541  0.3591  1.4434  0.5845
12421TIP3    H258679   3.631   0.506  15.653 -2.1017 -0.9745 -1.6369
12422TIP3   OH258680   1.886   0.250  13.845  0.9184 -0.5409 -0.5318
12422TIP3    H158681   1.943   0.325  13.829  2.0010 -1.0943  0.5542
12422TIP3    H258682   1.799   0.281  13.821  1.6908  0.1936 -2.6485
12423TIP3   OH258683   5.966   2.482   2.101 -0.5119  0.2410 -0.6613
12423TIP3    H158684   5.900   2.546   2.128 -1.0082 -0.5112 -0.0079
12423TIP3    H258685   5.999   2.447   2.183 -0.2893 -0.3718 -1.0089
12424TIP3   OH258686   2.912   0.270  13.497  0.7217  0.5812 -0.2414
12424TIP3    H158687   3.001   0.250  13.526  0.9862 -0.9536 -1.9751
12424TIP3    H258688   2.922   0.307  13.410 -0.2882  1.6434  0.0649
12425TIP3   OH258689   5.028   4.165   4.936 -0.2845  0.3191  0.1117
12425TIP3    H158690   5.027   4.259   4.918 -1.7715  0.2598 -0.2827
12425TIP3    H258691   5.031   4.124   4.849  1.2948 -0.0199  0.3024
12426TIP3   OH258692   1.325   6.134  12.158 -0.3459 -0.8573  0.4160
12426TIP3    H158693   1.322   6.190  12.081 -1.3918 -1.3409  0.0792
12426TIP3    H258694   1.414   6.142  12.190  0.4596 -1.5334 -1.5110
12427TIP3   OH258695   5.785   2.066   4.668 -0.1801 -0.1815  0.5060
12427TIP3    H158696   5.775   1.985   4.718  1.1021  1.1404  3.0831
12427TIP3    H258697   5.879   2.077   4.659 -0.3544  0.6751 -0.4914
12428TIP3   OH258698   1.776   3.246   1.355  0.1502 -0.4227 -0.0412
12428TIP3    H158699   1.821   3.206   1.430 -0.4278  1.3489  1.3399
12428TIP3    H258700   1.689   3.207   1.356 -0.1456  0.2254  0.7931
12429TIP3   OH258701   6.490   1.547  12.895 -0.5465  0.3970 -0.1822
12429TIP3    H158702   6.508   1.460  12.930  0.3314  0.9257  0.7094
12429TIP3    H258703   6.411   1.535  12.842  0.6582 -1.3335 -1.6767
12430TIP3   OH258704   0.921   0.879   0.763  0.4546 -0.6840  0.1461
12430TIP3    H158705   0.894   0.879   0.672 -1.7178 -1.4119  0.7277
12430TIP3    H258706   0.968   0.962   0.775 -2.7418  1.4434 -0.6993
12431TIP3   OH258707   6.658   1.825   5.469 -0.8974  0.3966 -0.0283
12431TIP3    H158708   6.705   1.880   5.406  0.4554  0.9521  1.3963
12431TIP3    H258709   6.648   1.881   5.546  0.5671 -1.2940  1.4926
12432TIP3   OH258710   0.654   2.511  15.304  0.3271  0.2295 -0.2634
12432TIP3    H158711   0.707   2.468  15.237 -1.1746  0.1928 -1.5071
12432TIP3    H258712   0.715   2.567  15.352  1.6358 -0.5381 -0.9862
12433TIP3   OH258713   3.063   5.125   1.084  0.2460  0.1786  0.2463
12433TIP3    H158714   3.049   5.039   1.125  2.9178  0.3735  1.8023
12433TIP3    H258715   2.975   5.159   1.069 -0.8882 -2.5734  0.0865
12434TIP3   OH258716   5.817   3.502   4.481 -0.3341 -0.2379  0.0655
12434TIP3    H158717   5.723   3.520   4.482 -0.3550  0.3418 -2.7034
12434TIP3    H258718   5.838   3.474   4.570 -3.1779 -0.6726  0.6866
12435TIP3   OH258719   4.872   5.506  13.235 -0.3971  0.0096  0.2990
12435TIP3    H158720   4.874   5.601  13.231 -1.7086  0.0852  0.9830
12435TIP3    H258721   4.945   5.478  13.180 -0.9925  1.3834 -1.2661
12436TIP3   OH258722   1.344   3.732  14.957 -0.7411 -0.1309  0.1248
12436TIP3    H158723   1.326   3.678  14.880  3.0348  0.9037 -1.6982
12436TIP3    H258724   1.405   3.680  15.009 -0.4626  0.6284  0.5673
12437TIP3   OH258725   0.710   6.468   2.246 -0.1924  0.3894  0.2013
12437TIP3    H158726   0.626   6.446   2.206 -0.3975 -0.1536  0.9198
12437TIP3    H258727   0.709   6.563   2.253 -0.4283  0.4455 -0.4660
12438TIP3   OH258728   1.652   6.416   5.854  0.2710  0.2331 -0.0465
12438TIP3    H158729   1.678   6.467   5.931 -2.0222 -0.6542  1.4237
12438TIP3    H258730   1.725   6.425   5.793  2.9078 -0.2853  2.8315
12439TIP3   OH258731   0.521   2.451   4.614 -0.5817 -0.4215  0.5183
12439TIP3    H158732   0.614   2.465   4.635 -0.1761  0.3719 -1.5675
12439TIP3    H258733   0.520   2.369   4.565 -0.6604  0.6208 -1.2713
12440TIP3   OH258734   5.690   0.663   5.970 -0.3211  0.6031 -0.0937
12440TIP3    H158735   5.687   0.590   5.909 -1.1423  0.2618  0.3421
12440TIP3    H258736   5.656   0.627   6.052  0.2869  1.1875  0.4272
12441TIP3   OH258737   0.289   4.424  16.864  0.1754  0.6766  0.4869
12441TIP3    H158738   0.333   4.505  16.839  1.4729  0.2075  1.1045
12441TIP3    H258739   0.260   4.385  16.782  1.1721  0.8989  0.0180
12442TIP3   OH258740   2.923   2.077  11.585 -0.4347 -0.1995 -0.0905
12442TIP3    H158741   2.992   2.013  11.605 -0.0380  0.0469 -0.6473
12442TIP3    H258742   2.968   2.162  11.586 -0.6605 -0.0683 -0.7966
12443TIP3   OH258743   0.847   6.177   4.000 -0.4133 -0.9183 -0.3944
12443TIP3    H158744   0.780   6.188   3.932 -2.6468 -0.4767  1.7339
12443TIP3    H258745   0.855   6.083   4.011 -1.4976 -0.9852  0.0098
12444TIP3   OH258746   5.567   4.469   5.736 -0.1648  1.1719  0.4242
12444TIP3    H158747   5.504   4.449   5.668 -0.3186  1.4859  0.4758
12444TIP3    H258748   5.603   4.554   5.712  1.6015  0.2002 -0.6342
12445TIP3   OH258749   0.216   4.285  16.335 -0.2238  0.0103  0.0317
12445TIP3    H158750   0.272   4.363  16.343 -0.6152  0.4060 -0.9573
12445TIP3    H258751   0.276   4.215  16.312 -0.2354  0.6749 -2.2600
12446TIP3   OH258752   3.422   5.620  12.642  0.6133  0.6012 -0.9884
12446TIP3    H158753   3.498   5.655  12.596  0.9943 -2.5527 -3.0483
12446TIP3    H258754   3.392   5.547  12.588 -1.2379 -1.0098  1.9441
12447TIP3   OH258755   5.920   0.012   4.364 -0.2239 -0.2095 -0.4063
12447TIP3    H158756   5.872   0.092   4.342 -0.5849 -0.0535  0.8317
12447TIP3    H258757   5.877  -0.020   4.444  0.3636 -1.2633 -0.4867
12448TIP3   OH258758   1.595   2.881  12.568 -0.6001  0.0076  0.4956
12448TIP3    H158759   1.575   2.797  12.609  0.7445  0.1869  1.5785
12448TIP3    H258760   1.689   2.893  12.581 -0.3610  0.7129 -1.4988
12449TIP3   OH258761   0.445   5.003  14.691  0.2575  0.4381 -0.6291
12449TIP3    H158762   0.469   4.927  14.638  1.9898  1.3141 -1.1705
12449TIP3    H258763   0.397   5.060  14.631  1.9662  1.2987 -1.2239
12450TIP3   OH258764   6.477   6.513   2.868  0.2328 -0.1236 -0.6465
12450TIP3    H158765   6.535   6.441   2.842  0.0838 -0.0748 -1.1209
12450TIP3    H258766   6.535   6.575   2.912  0.2382 -0.8635  0.4405
12451TIP3   OH258767   1.773   0.200   4.612  0.1643 -0.0753  0.6852
12451TIP3    H158768   1.834   0.228   4.544 -1.1113  1.7162  0.2049
12451TIP3    H258769   1.811   0.234   4.693  0.0770  0.5611  0.4609
12452TIP3   OH258770   3.445   3.461  12.973 -0.2529  0.5008 -0.1530
12452TIP3    H158771   3.377   3.394  12.975  0.0028  0.2444  1.4020
12452TIP3    H258772   3.521   3.417  12.937 -0.0632 -0.0914  0.9346
12453TIP3   OH258773   0.548   4.565   5.627  0.1852  0.1272 -0.0705
12453TIP3    H158774   0.520   4.479   5.597  0.0753  0.5291 -1.1675
12453TIP3    H258775   0.613   4.594   5.562  0.2526  0.8567  0.2993
12454TIP3   OH258776   5.069   1.433  12.148  0.2582  0.0793 -0.4863
12454TIP3    H158777   5.069   1.398  12.237  0.5871 -0.3017 -0.6333
12454TIP3    H258778   4.976   1.431  12.122  0.2838 -0.8181 -0.5356
12455TIP3   OH258779   1.380   3.163   1.687 -0.1238  0.1888 -0.3716
12455TIP3    H158780   1.415   3.088   1.639 -0.8093 -0.9381  0.7964
12455TIP3    H258781   1.412   3.240   1.640 -1.1495 -0.8285 -2.8907
12456TIP3   OH258782   4.041   1.931  15.389  0.1254 -0.0761  0.4679
12456TIP3    H158783   4.128   1.966  15.411 -0.2888  1.0353  0.3662
12456TIP3    H258784   4.035   1.851  15.442  2.2114 -1.6002 -1.4063
12457TIP3   OH258785   3.690   1.492  15.757  0.4952  0.2540  0.5488
12457TIP3    H158786   3.719   1.516  15.846 -1.3600 -0.7044  1.4533
12457TIP3    H258787   3.727   1.405  15.742  0.4283  0.2219  0.5696
12458TIP3   OH258788   4.261   4.127  11.588  0.4685 -0.1699  0.1355
12458TIP3    H158789   4.254   4.031  11.589 -0.9909 -0.0737  1.0495
12458TIP3    H258790   4.286   4.150  11.677 -2.0200  0.4487  0.7434
12459TIP3   OH258791   4.826   3.363  12.052  0.2583  0.5790 -0.2866
12459TIP3    H158792   4.798   3.294  11.992 -0.6054  0.5565  0.1225
12459TIP3    H258793   4.856   3.315  12.130 -0.7581  0.6554  0.1717
12460TIP3   OH258794   4.277   0.142   3.491  0.5940 -0.3124 -0.4435
12460TIP3    H158795   4.227   0.219   3.518  1.8490  0.8082 -1.2224
12460TIP3    H258796   4.279   0.086   3.568  0.1807  0.7133  0.3256
12461TIP3   OH258797   1.195   0.648  15.140 -0.3465  0.2417 -0.1185
12461TIP3    H158798   1.189   0.554  15.159  2.4093  0.2058  1.0954
12461TIP3    H258799   1.107   0.681  15.153 -1.3723 -2.1410 -0.4506
12462TIP3   OH258800   2.977   1.588  14.020 -0.0476  0.5179 -0.1699
12462TIP3    H158801   2.908   1.527  14.046  1.2955 -0.6864  0.7034
12462TIP3    H258802   3.030   1.599  14.099  1.7067  0.1228 -1.2618
12463TIP3   OH258803   2.224   5.858   0.724 -0.1053  0.2849 -0.4101
12463TIP3    H158804   2.172   5.887   0.649 -0.6113 -0.5884 -0.4075
12463TIP3    H258805   2.243   5.938   0.773 -1.9091  0.5711 -0.1168
12464TIP3   OH258806   3.748   5.201   4.800 -0.0705 -0.3315  0.3355
12464TIP3    H158807   3.670   5.205   4.745  0.7715  0.0362 -0.8608
12464TIP3    H258808   3.716   5.219   4.888 -1.2812  0.1497 -0.1881
12465TIP3   OH258809   5.686   6.256  14.653 -1.0605 -0.4985 -0.0183
12465TIP3    H158810   5.720   6.270  14.565  1.0194 -0.6145  0.7091
12465TIP3    H258811   5.723   6.172  14.679 -0.7915  0.0195  1.3424
12466TIP3   OH258812   5.531   4.885   1.589  0.0526 -0.4326  0.6354
12466TIP3    H158813   5.449   4.929   1.610  0.2323 -0.9665  2.6836
12466TIP3    H258814   5.528   4.804   1.640  1.1803 -1.2193 -0.4782
12467TIP3   OH258815   3.445   6.743   4.355  0.6633  0.0095  0.2796
12467TIP3    H158816   3.528   6.752   4.401  0.7679  2.9783 -0.2834
12467TIP3    H258817   3.388   6.809   4.395 -0.4217  0.1418 -1.3681
12468TIP3   OH258818   5.721   4.649  11.935 -0.5320 -0.1097  0.1003
12468TIP3    H158819   5.745   4.740  11.950  1.9335 -0.6747  0.1256
12468TIP3    H258820   5.689   4.646  11.846  1.3355  0.5073 -0.6474
12469TIP3   OH258821   4.100   6.639  16.992  0.4563 -0.3634 -0.1266
12469TIP3    H158822   4.178   6.600  17.033 -0.7438 -1.1802  1.4609
12469TIP3    H258823   4.096   6.728  17.029  1.8700  0.5456 -1.9720
12470TIP3   OH258824   5.238   0.636  15.709 -0.2113 -0.4161  0.6661
12470TIP3    H158825   5.158   0.686  15.699 -0.0285 -0.5268 -2.1513
12470TIP3    H258826   5.305   0.702  15.728  0.0792  0.6559 -3.2469
12471TIP3   OH258827   6.247   1.600   3.730 -0.0701  0.2022 -0.5906
12471TIP3    H158828   6.276   1.669   3.791 -1.0804 -0.9060  1.2095
12471TIP3    H258829   6.152   1.602   3.735 -0.1644 -0.1964 -1.8754
12472TIP3   OH258830   4.291   1.413   4.873  0.1411 -0.3567 -0.8488
12472TIP3    H158831   4.274   1.505   4.857 -2.3286 -0.8357 -1.4751
12472TIP3    H258832   4.297   1.406   4.968 -1.9486  0.2043 -0.6103
12473TIP3   OH258833   5.822   5.592  10.907  0.0173 -0.2638 -0.2035
12473TIP3    H158834   5.823   5.496  10.896  1.1174 -0.2904 -0.0418
12473TIP3    H258835   5.891   5.608  10.972 -0.0657  0.6514 -0.3410
12474TIP3   OH258836   0.437   4.469   4.882  0.1223 -0.0785 -0.0027
12474TIP3    H158837   0.345   4.489   4.897 -0.3597  0.2716 -2.7806
12474TIP3    H258838   0.478   4.555   4.865  0.6350 -0.3556 -0.1997
12475TIP3   OH258839   2.543   6.715   1.616 -0.0276 -0.6472 -0.1884
12475TIP3    H158840   2.590   6.790   1.652 -0.7583  0.2824 -1.1151
12475TIP3    H258841   2.470   6.700   1.676 -0.4172 -0.0139 -0.4997
12476TIP3   OH258842   6.391   0.172   4.579  0.8168 -0.3633  0.0260
12476TIP3    H158843   6.445   0.114   4.525  0.7737 -0.0893 -0.3166
12476TIP3    H258844   6.307   0.127   4.586  1.0469 -0.7300  0.4516
12477TIP3   OH258845   3.760   4.894   4.676  0.2823  0.4938 -0.0129
12477TIP3    H158846   3.796   4.816   4.720 -0.5023 -0.3592 -0.8564
12477TIP3    H258847   3.835   4.953   4.669  0.8049 -0.0058  0.9936
12478TIP3   OH258848   4.271   1.021   0.502  0.2423  0.3779 -0.5720
12478TIP3    H158849   4.272   0.951   0.436  1.2382  0.5661 -0.7761
12478TIP3    H258850   4.357   1.063   0.494  0.1189  0.8502  0.3760
12479TIP3   OH258851   1.449   0.243   4.279  0.0854 -0.2606 -0.4871
12479TIP3    H158852   1.504   0.233   4.201  1.1444  3.3169 -0.3645
12479TIP3    H258853   1.391   0.316   4.258 -1.1513 -0.6586  1.3132
12480TIP3   OH258854   6.619   0.442  11.267  0.5805  0.6424 -0.4102
12480TIP3    H158855   6.617   0.522  11.214  0.8660  0.1576 -1.1805
12480TIP3    H258856   6.583   0.374  11.209  1.0494  0.0672 -0.0440
12481TIP3   OH258857   5.496   6.240   4.208 -0.4319  0.3830  0.4797
12481TIP3    H158858   5.566   6.229   4.145  0.0258  0.3880  0.9789
12481TIP3    H258859   5.442   6.161   4.198 -1.1455  1.0169 -0.8615
12482TIP3   OH258860   2.776   0.314  14.033  0.6582  0.2222 -0.0378
12482TIP3    H158861   2.726   0.380  14.080 -0.9847 -0.5994 -0.5765
12482TIP3    H258862   2.841   0.283  14.097 -0.7477 -0.0184  1.3166
12483TIP3   OH258863   3.754   2.108   1.467  0.5676  0.0657 -0.1619
12483TIP3    H158864   3.758   2.203   1.458  1.7354  0.0645  0.2589
12483TIP3    H258865   3.660   2.088   1.461  0.1914  1.3602  0.9153
12484TIP3   OH258866   3.273   1.822  17.134  0.0454  0.3640 -0.8075
12484TIP3    H158867   3.297   1.884  17.066 -0.4491  1.6759  0.1769
12484TIP3    H258868   3.357   1.786  17.163  0.1738 -1.6347 -3.3130
12485TIP3   OH258869   5.228   1.082  16.122 -0.4353  0.1572 -0.2356
12485TIP3    H158870   5.147   1.059  16.168 -1.0860  1.5556 -0.6273
12485TIP3    H258871   5.247   1.006  16.067 -0.8588 -0.6395  0.6873
12486TIP3   OH258872   3.903   6.425  14.401 -0.5305  0.3039 -0.2375
12486TIP3    H158873   3.813   6.451  14.379  0.0070 -0.7235 -4.5934
12486TIP3    H258874   3.896   6.331  14.421 -0.3585  0.0092 -1.4992
12487TIP3   OH258875   0.334   3.081   3.288  0.2076  0.2860 -0.3869
12487TIP3    H158876   0.279   3.028   3.231 -1.6132  2.3983 -0.7413
12487TIP3    H258877   0.420   3.082   3.245 -0.7623  0.7730 -2.4269
12488TIP3   OH258878   3.354   0.983  14.011  0.0041  0.3894  0.5159
12488TIP3    H158879   3.320   0.946  14.093  0.0255  0.8619  0.7414
12488TIP3    H258880   3.422   1.044  14.038 -0.2305  0.8161  0.1676
12489TIP3   OH258881   0.471   1.046  12.433 -0.0462 -0.1768 -0.1738
12489TIP3    H158882   0.436   0.957  12.445  2.3993 -1.1061  0.5736
12489TIP3    H258883   0.516   1.043  12.349  1.2520 -0.1009  0.4988
12490TIP3   OH258884   6.724   1.669  14.162  0.5355  0.0390 -0.7914
12490TIP3    H158885   6.678   1.588  14.186 -0.3179 -0.5269 -3.9475
12490TIP3    H258886   6.815   1.653  14.187 -0.2877 -0.1222  2.5437
12491TIP3   OH258887   4.944   5.150   0.094  0.3154  0.0892  0.2161
12491TIP3    H158888   4.898   5.231   0.072  1.3931  0.5485 -0.3900
12491TIP3    H258889   4.905   5.124   0.178 -0.3470  0.9997  0.2163
12492TIP3   OH258890   4.816   1.510   5.573  0.2086  0.1142 -0.1737
12492TIP3    H158891   4.834   1.417   5.561  1.1168  0.3985 -1.2125
12492TIP3    H258892   4.885   1.540   5.632  0.5360  0.3208 -0.6522
12493TIP3   OH258893   0.750   6.143  13.094  0.7539 -0.0662 -0.6160
12493TIP3    H158894   0.668   6.119  13.138  0.4898 -0.0688 -1.0987
12493TIP3    H258895   0.784   6.061  13.059 -0.4359  0.2696 -2.7520
12494TIP3   OH258896   4.373   6.661  15.839  0.2254 -0.6715 -0.1473
12494TIP3    H158897   4.381   6.579  15.888 -0.4271 -1.4199 -1.2613
12494TIP3    H258898   4.288   6.697  15.866  0.5493 -0.3020  0.4064
12495TIP3   OH258899   3.269   6.685  16.610 -0.1628 -0.5003 -0.4284
12495TIP3    H158900   3.350   6.732  16.630  0.1945 -0.5598 -1.6144
12495TIP3    H258901   3.268   6.611  16.670 -0.2177  0.4528  0.7727
12496TIP3   OH258902   4.295   6.389   0.155 -0.0487 -0.2691 -0.0534
12496TIP3    H158903   4.312   6.479   0.127  0.1489 -0.0489  0.7663
12496TIP3    H258904   4.381   6.348   0.159 -0.0835 -0.3216  0.1645
12497TIP3   OH258905   1.393   5.044   0.452  0.4040 -0.2121  0.1665
12497TIP3    H158906   1.412   4.990   0.529  0.8644 -0.1802  0.0739
12497TIP3    H258907   1.469   5.100   0.442  0.4124 -0.3173 -0.4030
12498TIP3   OH258908   5.004   4.405  13.314 -0.1347 -0.0760  0.4725
12498TIP3    H158909   4.913   4.426  13.336  0.2085  0.3958  1.5010
12498TIP3    H258910   5.000   4.319  13.272 -1.0034 -0.2873  0.9721
12499TIP3   OH258911   2.664   0.643   6.264 -0.1175  0.4116 -0.4668
12499TIP3    H158912   2.620   0.727   6.248 -1.8185 -0.4439 -0.5505
12499TIP3    H258913   2.723   0.660   6.337 -2.3788  1.0946  1.3279
12500TIP3   OH258914   6.759   1.055  14.086  0.0315  0.6826 -0.0097
12500TIP3    H158915   6.791   1.022  14.001 -0.0250  1.5775 -0.3988
12500TIP3    H258916   6.673   1.092  14.066 -1.4526 -1.9533  1.0921
12501TIP3   OH258917   0.654   6.614   3.824  0.2075 -0.3349  0.2092
12501TIP3    H158918   0.641   6.655   3.739  1.7357  0.6803  0.4222
12501TIP3    H258919   0.715   6.673   3.870  1.4306 -2.1713  1.0445
12502TIP3   OH258920   4.341   4.888  12.533  1.2506  0.0167  0.4802
12502TIP3    H158921   4.378   4.800  12.546 -0.9143 -1.0208  0.1348
12502TIP3    H258922   4.330   4.895  12.439  1.3539  0.6431  0.5142
12503TIP3   OH258923   4.138   2.355   6.550  0.0051  0.2418  0.3145
12503TIP3    H158924   4.108   2.427   6.495  0.3091  0.0574 -0.1016
12503TIP3    H258925   4.106   2.377   6.638 -3.1513 -0.9744 -0.4103
12504TIP3   OH258926   1.856   3.693   1.227  0.0874  0.7231  0.2261
12504TIP3    H158927   1.851   3.781   1.190  0.9389  0.4681 -0.5249
12504TIP3    H258928   1.902   3.704   1.310 -0.7899  1.1291  0.6774
12505TIP3   OH258929   6.588   2.750   3.771  0.3923 -0.1178 -0.5188
12505TIP3    H158930   6.674   2.789   3.754  0.4065 -0.6355 -1.7399
12505TIP3    H258931   6.526   2.822   3.756  0.5346 -0.0698 -0.8906
12506TIP3   OH258932   4.865   0.737   1.108  0.2004 -0.2339  0.0138
12506TIP3    H158933   4.861   0.800   1.181  1.6912  0.6469 -0.6133
12506TIP3    H258934   4.819   0.660   1.141  1.4088 -0.1213  2.1680
12507TIP3   OH258935   0.039   4.890   2.360 -0.4298 -0.4111  0.6958
12507TIP3    H158936  -0.011   4.813   2.390  0.7751 -1.0622  1.1117
12507TIP3    H258937   0.122   4.853   2.330 -0.0472  0.6879  0.3884
12508TIP3   OH258938   0.449   2.441  13.756 -0.1402 -0.3028  0.5213
12508TIP3    H158939   0.354   2.430  13.763 -0.2447  1.0341  1.3887
12508TIP3    H258940   0.461   2.489  13.674 -0.1448 -0.9877  0.1045
12509TIP3   OH258941   4.318   1.066   3.189  0.1658  0.0940 -0.1774
12509TIP3    H158942   4.400   1.020   3.207 -0.4111 -0.6203  0.6946
12509TIP3    H258943   4.329   1.099   3.100  1.5709  0.3922  0.0757
12510TIP3   OH258944   0.564   2.089  11.706 -0.0377  0.0259 -0.6696
12510TIP3    H158945   0.535   2.112  11.795  0.8163  0.0384 -0.3869
12510TIP3    H258946   0.637   2.148  11.689  1.0817 -1.3156 -0.6040
12511TIP3   OH258947   1.133   2.855  12.552 -0.0888 -0.3883  0.2339
12511TIP3    H158948   1.224   2.865  12.581 -0.1634 -0.5706  0.5292
12511TIP3    H258949   1.129   2.765  12.519 -0.3911 -0.6812  1.0471
12512TIP3   OH258950   0.560   5.236   0.343  0.0292  0.0622  0.3794
12512TIP3    H158951   0.652   5.218   0.359  1.2379 -0.1738 -4.9676
12512TIP3    H258952   0.550   5.330   0.356  1.4066  0.3188 -0.3327
12513TIP3   OH258953   1.401   2.815   0.920  0.2299 -0.2298  0.0757
12513TIP3    H158954   1.309   2.822   0.945  0.1106 -1.0551 -0.1094
12513TIP3    H258955   1.409   2.728   0.881  0.6872  0.5028 -1.5491
12514TIP3   OH258956   1.904   4.638   5.322  0.2186  0.5391  0.5028
12514TIP3    H158957   1.899   4.729   5.354  2.9707  0.0512  2.6838
12514TIP3    H258958   1.986   4.634   5.273  1.5491 -1.3209  2.7091
12515TIP3   OH258959   6.210   0.647  13.105  0.2640  0.1328  0.8769
12515TIP3    H158960   6.169   0.601  13.178 -2.1788  1.1671  0.2596
12515TIP3    H258961   6.138   0.665  13.044  1.9384  0.6906 -1.0600
12516TIP3   OH258962   3.401   3.157   5.027 -0.0824  0.5250  0.1093
12516TIP3    H158963   3.494   3.134   5.024 -0.6130 -1.7119 -0.9951
12516TIP3    H258964   3.393   3.231   4.966  0.6590 -0.6153 -1.4356
12517TIP3   OH258965   6.663   1.002   0.547 -0.3603 -0.0426 -0.0520
12517TIP3    H158966   6.577   0.968   0.569  0.0420 -0.1654  1.4308
12517TIP3    H258967   6.647   1.061   0.472 -1.9676  1.1212  1.1306
12518TIP3   OH258968   4.487   5.184   3.852  0.7757  0.0878 -0.3124
12518TIP3    H158969   4.540   5.232   3.789 -0.1144  0.0309 -1.1351
12518TIP3    H258970   4.491   5.093   3.822 -1.1906  0.3135 -1.4832
12519TIP3   OH258971   0.771   4.912  12.662  0.5924  0.2585 -0.1830
12519TIP3    H158972   0.836   4.905  12.733  0.5163  0.1715 -0.1207
12519TIP3    H258973   0.798   4.846  12.598 -0.3594 -0.9432  0.5944
12520TIP3   OH258974   5.798   4.772   0.339  0.0995  0.1815 -0.2016
12520TIP3    H158975   5.703   4.785   0.345  0.2582  0.8572  3.4060
12520TIP3    H258976   5.817   4.707   0.407  1.9989 -2.3949 -2.9157
12521TIP3   OH258977   2.742   2.968  14.808 -0.0922 -0.3255 -0.2303
12521TIP3    H158978   2.676   2.935  14.747  1.7041 -1.7307 -1.5294
12521TIP3    H258979   2.753   2.897  14.872  0.7346 -0.5026 -0.5453
12522TIP3   OH258980   6.272   5.300   4.182 -0.3672 -0.2618  0.1678
12522TIP3    H158981   6.226   5.243   4.244  0.3855  0.0391  1.0237
12522TIP3    H258982   6.338   5.243   4.141 -0.6056 -0.3652 -0.0752
12523TIP3   OH258983   4.686   3.915  16.851  0.1367 -0.1928 -0.6021
12523TIP3    H158984   4.659   3.832  16.812 -0.3405 -0.0311 -0.6194
12523TIP3    H258985   4.617   3.977  16.827 -0.9847 -0.4241  1.7660
12524TIP3   OH258986   3.282   4.507   0.326 -0.5713  0.4779  0.6364
12524TIP3    H158987   3.336   4.429   0.320 -1.4640 -0.0762 -0.7075
12524TIP3    H258988   3.193   4.476   0.311 -0.7214  2.0158 -2.5498
12525TIP3   OH258989   1.679   4.589  11.166 -0.1525  0.2295 -0.7015
12525TIP3    H158990   1.750   4.560  11.108  0.0743  3.1808 -2.0877
12525TIP3    H258991   1.600   4.552  11.127 -0.2495  3.5696 -4.2332
12526TIP3   OH258992   2.852   6.465  16.375 -0.2684  0.4932 -0.2089
12526TIP3    H158993   2.772   6.448  16.325 -0.7728  0.3369  0.6352
12526TIP3    H258994   2.834   6.545  16.424  0.1222  0.4962 -0.0652
12527TIP3   OH258995   5.704   4.615  17.257  0.0828  0.1809 -0.0036
12527TIP3    H158996   5.668   4.704  17.260 -0.8945 -0.1013 -1.8037
12527TIP3    H258997   5.687   4.579  17.344  0.1984  1.6296  0.6440
12528TIP3   OH258998   4.577   3.797  12.452 -0.7167  0.0815 -0.3380
12528TIP3    H158999   4.567   3.708  12.486 -2.9753  0.6303  0.5863
12528TIP3    H259000   4.496   3.814  12.404 -0.3008  1.6200 -0.5353
12529TIP3   OH259001   2.666   3.854   3.722 -0.2260 -0.2846 -0.3555
12529TIP3    H159002   2.730   3.792   3.688 -0.6454 -0.7994 -0.2195
12529TIP3    H259003   2.584   3.832   3.677 -0.2054  0.6835 -0.8911
12530TIP3   OH259004   5.419   5.573   0.583 -0.6532  0.2939  0.3291
12530TIP3    H159005   5.335   5.566   0.628 -0.0545 -0.0680  1.4238
12530TIP3    H259006   5.415   5.505   0.516 -1.2105  0.2427  0.4060
12531TIP3   OH259007   3.307   0.866   3.568 -0.0680 -0.5583 -0.6288
12531TIP3    H159008   3.213   0.878   3.563 -0.2887 -0.5080  1.9711
12531TIP3    H259009   3.329   0.809   3.495 -1.8440  0.6696 -2.2005
12532TIP3   OH259010   5.319   0.039   2.303  0.2052 -0.7409  0.3161
12532TIP3    H159011   5.276   0.097   2.366  0.1415 -1.7326  1.2147
12532TIP3    H259012   5.248   0.008   2.247 -0.1306 -1.6598  1.2232
12533TIP3   OH259013   1.410   0.364   1.508 -0.5101  0.3056  0.1575
12533TIP3    H159014   1.337   0.346   1.568 -1.2820  2.1122 -0.1733
12533TIP3    H259015   1.393   0.310   1.432 -0.5532 -0.5761  0.7750
12534TIP3   OH259016   3.797   2.280  11.808 -0.6335  0.1291 -0.2032
12534TIP3    H159017   3.887   2.251  11.817 -0.9801 -1.1660 -0.6359
12534TIP3    H259018   3.776   2.318  11.893  0.1774  0.0096  0.0585
12535TIP3   OH259019   1.259   2.662  13.670 -0.5171 -0.6058 -0.2888
12535TIP3    H159020   1.283   2.584  13.720 -2.6458 -1.4213 -0.4312
12535TIP3    H259021   1.270   2.636  13.578  0.7592 -0.0198 -0.3195
12536TIP3   OH259022   3.852   1.951  16.307 -0.1122 -0.1981 -0.3415
12536TIP3    H159023   3.832   1.959  16.401  0.0945 -1.0323 -0.2220
12536TIP3    H259024   3.939   1.991  16.298  0.4467 -1.2810  0.0642
12537TIP3   OH259025   0.613   4.278   4.701 -0.2953  0.0368  0.0508
12537TIP3    H159026   0.538   4.219   4.699  0.1820 -0.5606 -0.3449
12537TIP3    H259027   0.575   4.365   4.688 -1.1108 -0.0640  1.5435
12538TIP3   OH259028   6.484   4.508   5.664 -0.0760 -0.0823  0.0611
12538TIP3    H159029   6.421   4.568   5.624 -0.4549 -0.0108  0.7618
12538TIP3    H259030   6.431   4.433   5.690  0.4061 -0.7771 -0.8852
12539TIP3   OH259031   2.691   3.507   1.679  0.8044 -0.3985 -0.1140
12539TIP3    H159032   2.752   3.433   1.686  0.1290 -1.0067 -0.5387
12539TIP3    H259033   2.748   3.582   1.662  1.5044 -0.8154  0.3031
12540TIP3   OH259034   5.149   3.753  15.150 -0.2226 -0.2178 -0.5070
12540TIP3    H159035   5.111   3.704  15.077  2.2538 -1.6257 -0.9604
12540TIP3    H259036   5.075   3.770  15.208 -1.8072 -1.3594 -2.0812
12541TIP3   OH259037   0.983   0.679   5.217 -0.4962 -0.2427  0.3072
12541TIP3    H159038   0.960   0.709   5.129  0.0207  1.8236  0.8112
12541TIP3    H259039   0.905   0.699   5.269 -1.0734 -2.1215  0.2217
12542TIP3   OH259040   6.754   2.495  15.430 -0.2761 -0.5354 -0.2174
12542TIP3    H159041   6.764   2.496  15.525 -1.7686  0.9054 -0.0283
12542TIP3    H259042   6.674   2.546  15.413  0.5309  0.1776 -2.2983
12543TIP3   OH259043   6.156   2.850  13.787 -0.5674 -0.6786  0.0216
12543TIP3    H159044   6.134   2.924  13.842 -0.6512 -0.4659 -0.2966
12543TIP3    H259045   6.197   2.787  13.847 -1.1635 -0.6843  0.4282
12544TIP3   OH259046   5.151   2.100  15.420  0.4057  0.7380 -0.1471
12544TIP3    H159047   5.093   2.132  15.488  0.5449 -0.4932  0.5727
12544TIP3    H259048   5.097   2.101  15.340 -0.5111 -0.0909  0.4452
12545TIP3   OH259049   0.504   3.002  12.527 -0.1131  0.5172  0.1859
12545TIP3    H159050   0.547   3.029  12.608  1.2002  0.9286 -0.6258
12545TIP3    H259051   0.532   3.067  12.462  0.4275 -0.8852 -1.0354
12546TIP3   OH259052   1.834   4.440  16.713 -0.6513  0.5016 -0.0872
12546TIP3    H159053   1.845   4.529  16.678 -1.3964  1.1168  1.1646
12546TIP3    H259054   1.860   4.383  16.641  0.0771  1.7288 -0.8499
12547TIP3   OH259055   6.305   4.220   3.729 -0.2963 -0.4028 -0.0485
12547TIP3    H159056   6.293   4.193   3.820 -1.4608 -1.0537 -0.3824
12547TIP3    H259057   6.286   4.142   3.678 -1.1741  0.3429 -0.9070
12548TIP3   OH259058   1.057   4.858   6.424  0.2026 -0.1872  0.3044
12548TIP3    H159059   1.013   4.778   6.452 -0.4050 -1.0882 -2.8180
12548TIP3    H259060   0.987   4.922   6.413  0.4707  0.2564  1.1329
12549TIP3   OH259061   0.652   0.661   3.049 -0.4147  0.4465 -0.2423
12549TIP3    H159062   0.580   0.701   3.000  1.1552  2.4999 -1.0140
12549TIP3    H259063   0.667   0.577   3.004 -3.4474 -0.9962  1.1074
12550TIP3   OH259064   5.253   6.022  16.376 -0.1455 -0.5234 -0.1718
12550TIP3    H159065   5.334   5.993  16.418 -0.5359 -0.0487  0.9371
12550TIP3    H259066   5.183   5.988  16.432 -0.6804  0.0642 -0.4715
12551TIP3   OH259067   0.778   3.728  13.543 -0.2786 -0.5262  0.2333
12551TIP3    H159068   0.872   3.749  13.546  0.2363 -2.6945  1.2540
12551TIP3    H259069   0.735   3.807  13.575  1.0865  0.9021 -1.2309
12552TIP3   OH259070   0.260   4.768  13.728 -0.1527  0.6002  0.1319
12552TIP3    H159071   0.218   4.840  13.775 -0.7215  1.1423 -1.1832
12552TIP3    H259072   0.200   4.694  13.741 -1.4474  1.2942 -1.4952
12553TIP3   OH259073   5.272   6.045   3.326 -0.3124  0.1956  0.4003
12553TIP3    H159074   5.217   5.973   3.355 -0.8396  0.4586  0.0544
12553TIP3    H259075   5.213   6.106   3.282  0.4226 -0.1250 -1.1166
12554TIP3   OH259076   1.920   2.286  15.911 -0.1135 -0.7005 -0.9630
12554TIP3    H159077   1.835   2.291  15.867 -1.9089 -0.8682  2.1912
12554TIP3    H259078   1.945   2.194  15.906  0.2679 -0.5323 -2.4964
12555TIP3   OH259079   0.880   1.075  11.491  0.4459 -0.1192 -0.5119
12555TIP3    H159080   0.832   1.070  11.574  1.4115  0.1002  0.0770
12555TIP3    H259081   0.875   1.167  11.466  1.8464  0.2202  0.3573
12556TIP3   OH259082   3.740   4.429  12.212 -0.3721 -0.3138  0.2948
12556TIP3    H159083   3.708   4.451  12.124 -3.3365 -0.2380  1.2731
12556TIP3    H259084   3.771   4.513  12.247 -2.5722  0.4734  0.5376
12557TIP3   OH259085   1.425   1.504   3.397  0.4272  1.0737  0.1636
12557TIP3    H159086   1.373   1.580   3.423 -0.6614  0.0982  0.9355
12557TIP3    H259087   1.398   1.435   3.457  1.9264  0.2642 -0.0542
12558TIP3   OH259088   0.197   2.317  13.736 -0.3527  0.5136 -0.2669
12558TIP3    H159089   0.236   2.229  13.737  1.9379  1.4577  0.7101
12558TIP3    H259090   0.215   2.350  13.648 -1.2329  0.0272 -0.6411
12559TIP3   OH259091   4.238   6.224   5.626 -0.1527  0.2984  0.1128
12559TIP3    H159092   4.234   6.138   5.669  0.7804  1.5026  2.8566
12559TIP3    H259093   4.291   6.208   5.548  0.7639 -1.4817  1.0162
12560TIP3   OH259094   6.169   6.011   1.894 -0.7214 -0.0175 -0.2934
12560TIP3    H159095   6.147   6.103   1.882  0.1539  0.5083  1.6734
12560TIP3    H259096   6.091   5.963   1.866 -0.0880  1.0157 -4.6216
12561TIP3   OH259097   3.379   2.442  15.710  0.0590  0.1381 -0.0812
12561TIP3    H159098   3.294   2.426  15.751 -0.2241 -0.1759 -0.7721
12561TIP3    H259099   3.443   2.410  15.774 -0.3117  0.9765  0.7231
12562TIP3   OH259100   1.204   3.628  11.183  0.2769 -0.1415 -0.5556
12562TIP3    H159101   1.225   3.542  11.147  1.7657 -0.0894  0.1387
12562TIP3    H259102   1.251   3.632  11.266 -0.1107  1.1867 -0.3734
12563TIP3   OH259103   3.154   0.656  15.711  0.1497 -0.2163  0.4078
12563TIP3    H159104   3.204   0.597  15.654 -0.4884 -0.6315  0.2670
12563TIP3    H259105   3.165   0.620  15.799  0.5094 -0.0172  0.4440
12564TIP3   OH259106   0.360   4.277  12.550  0.2133 -0.3073 -0.3403
12564TIP3    H159107   0.283   4.222  12.532 -0.2959 -0.3723  1.7660
12564TIP3    H259108   0.348   4.354  12.495 -2.5800  0.7064  1.4731
12565TIP3   OH259109   6.370   5.409   5.809  0.2418 -0.5828  0.4827
12565TIP3    H159110   6.423   5.455   5.874 -1.4810  1.6407  0.4362
12565TIP3    H259111   6.404   5.438   5.724 -0.7985  0.6740  0.4541
12566TIP3   OH259112   5.536   0.971  10.738 -0.0172  0.2478 -0.6753
12566TIP3    H159113   5.551   0.884  10.775  1.1845  0.1182 -1.3910
12566TIP3    H259114   5.482   0.956  10.661 -0.7150  0.2747 -0.2032
12567TIP3   OH259115   2.092   6.563   4.418 -0.6427  0.3313 -0.0642
12567TIP3    H159116   1.999   6.546   4.437 -0.7303  0.7016 -0.1467
12567TIP3    H259117   2.090   6.630   4.349 -0.3718 -2.0064 -2.4980
12568TIP3   OH259118   2.406   1.126   4.840  0.2715  0.2974  0.3020
12568TIP3    H159119   2.445   1.213   4.852  1.3240 -0.3222  1.6545
12568TIP3    H259120   2.328   1.126   4.896 -1.0737  1.1144 -1.4658
12569TIP3   OH259121   6.047   5.660   0.152  0.4026  0.0195 -0.0785
12569TIP3    H159122   6.108   5.730   0.131 -0.2028  0.6736  0.2890
12569TIP3    H259123   6.005   5.687   0.233 -0.2730 -0.4781 -0.2453
12570TIP3   OH259124   2.125   6.438  14.300  0.2565 -0.4975 -0.2438
12570TIP3    H159125   2.119   6.480  14.214 -0.8286 -2.2504 -1.0804
12570TIP3    H259126   2.186   6.492  14.349  0.7869  0.6367 -2.0731
12571TIP3   OH259127   5.669   3.190  13.241 -0.3326  0.1519  0.5523
12571TIP3    H159128   5.637   3.280  13.233  2.2196  1.1087  0.3166
12571TIP3    H259129   5.749   3.198  13.292  1.0683 -1.6844 -1.2232
12572TIP3   OH259130   4.743   4.199   4.152  0.5247 -0.1432  0.0056
12572TIP3    H159131   4.691   4.238   4.082  0.3017  0.7492  0.6585
12572TIP3    H259132   4.828   4.243   4.146  1.0157 -1.1379 -0.6482
12573TIP3   OH259133   2.114   2.994  13.152  0.3698  0.0685 -0.1038
12573TIP3    H159134   2.020   3.000  13.163  0.4897 -0.2480  1.1688
12573TIP3    H259135   2.126   2.926  13.085 -0.2275 -2.2852  2.0422
12574TIP3   OH259136   3.047   1.631  11.308 -0.8264  0.7052  0.2395
12574TIP3    H159137   2.984   1.703  11.305 -0.6788  0.8332  0.1955
12574TIP3    H259138   3.131   1.674  11.327 -0.3985  0.7788 -1.6327
12575TIP3   OH259139   1.296   6.558   6.445  0.2763 -0.4122  0.1539
12575TIP3    H159140   1.301   6.602   6.529  1.4090  1.0817 -0.6520
12575TIP3    H259141   1.380   6.514   6.435 -1.2272 -4.0299  1.4919
12576TIP3   OH259142   5.528   0.393  13.445  0.3655 -0.6804  0.0658
12576TIP3    H159143   5.454   0.351  13.488 -0.0757  1.3739  1.4651
12576TIP3    H259144   5.605   0.353  13.486 -0.0223 -0.4537  1.0368
12577TIP3   OH259145   6.252   1.344   4.768 -0.4764 -0.5605 -0.4881
12577TIP3    H159146   6.322   1.312   4.825 -1.4905 -0.8204  0.6647
12577TIP3    H259147   6.175   1.345   4.824 -2.1410 -3.3237 -2.5300
12578TIP3   OH259148   2.196   6.307   5.185 -0.7602 -0.4647  0.0029
12578TIP3    H159149   2.190   6.364   5.109 -1.1498 -0.1460  0.2642
12578TIP3    H259150   2.289   6.302   5.205 -0.7885  0.8203  0.5208
12579TIP3   OH259151   1.552   5.611   0.096  0.2278 -0.4402  0.0473
12579TIP3    H159152   1.607   5.555   0.152  0.4890  1.1824  1.4932
12579TIP3    H259153   1.597   5.695   0.094 -0.7499  0.0806 -1.1217
12580TIP3   OH259154   6.151   6.176   0.711 -0.3025 -0.0462 -0.5418
12580TIP3    H159155   6.093   6.123   0.766 -0.6165 -0.4479 -1.2463
12580TIP3    H259156   6.211   6.218   0.773 -1.2703  0.2873  0.1916
12581TIP3   OH259157   0.691   2.089   3.269  0.4398 -0.6961 -0.6655
12581TIP3    H159158   0.775   2.128   3.243  0.6517  0.1525  1.2009
12581TIP3    H259159   0.629   2.119   3.203  0.7067  2.3793  0.3693
12582TIP3   OH259160   2.300   5.593  17.058  0.2670 -0.5548 -0.1751
12582TIP3    H159161   2.316   5.640  17.141  0.7773  0.1141 -0.6354
12582TIP3    H259162   2.378   5.613  17.005  0.1183 -1.2916 -0.6724
12583TIP3   OH259163   4.906   5.873   1.359 -0.0053 -0.2470 -0.3919
12583TIP3    H159164   4.908   5.798   1.300 -0.4764  1.0468 -2.1610
12583TIP3    H259165   4.997   5.886   1.384  0.0496 -1.5131  0.0836
12584TIP3   OH259166   6.402   3.963  16.036 -0.0485 -0.1611 -0.2866
12584TIP3    H159167   6.476   3.981  16.094 -0.4108  1.6571 -0.3352
12584TIP3    H259168   6.423   4.009  15.955 -1.5612  1.0646 -0.0283
12585TIP3   OH259169   3.383   1.637   0.244  0.6842  0.8681  0.6059
12585TIP3    H159170   3.318   1.596   0.186  0.2870  1.3562  0.6908
12585TIP3    H259171   3.367   1.731   0.234  0.2843  0.9516  1.8710
12586TIP3   OH259172   2.119   1.095   4.658  0.2542 -0.6293 -0.3705
12586TIP3    H159173   2.058   1.046   4.603 -1.1022 -1.1716  1.5172
12586TIP3    H259174   2.184   1.030   4.685  0.4714 -0.5468 -0.6897
12587TIP3   OH259175   4.275   1.440  12.981 -0.1888 -0.1975  0.5316
12587TIP3    H159176   4.179   1.443  12.977 -0.2756 -0.9132  1.5221
12587TIP3    H259177   4.294   1.353  13.016  0.8663 -0.3745 -0.4512
12588TIP3   OH259178   5.484   2.736  14.284  0.3141  0.4447  0.0715
12588TIP3    H159179   5.393   2.704  14.285  0.5429 -0.2237  0.2516
12588TIP3    H259180   5.525   2.687  14.213  0.6429  0.4360  0.2687
12589TIP3   OH259181   3.744   1.482  10.344 -0.7863 -0.5426 -0.3161
12589TIP3    H159182   3.697   1.416  10.394 -0.4522  0.0748  0.8720
12589TIP3    H259183   3.696   1.563  10.359 -0.9723 -0.4329 -1.4379
12590TIP3   OH259184   1.627   6.406   2.019  0.2861  0.7676  0.1090
12590TIP3    H159185   1.573   6.405   2.098 -0.5808 -0.3119 -0.4666
12590TIP3    H259186   1.708   6.362   2.044  0.1488  0.7349  0.4943
12591TIP3   OH259187   2.245   0.185   5.827 -0.7165 -0.2271  0.0336
12591TIP3    H159188   2.216   0.228   5.747 -1.5328  1.3343  1.1129
12591TIP3    H259189   2.340   0.179   5.818 -0.8016 -0.0785 -1.0571
12592TIP3   OH259190   3.597   6.507  16.779 -0.5659 -0.1310 -0.0619
12592TIP3    H159191   3.561   6.468  16.699 -0.5202  2.0643 -1.2509
12592TIP3    H259192   3.532   6.488  16.846 -0.6306 -1.9934 -0.5907
12593TIP3   OH259193   3.892   6.418  13.990 -0.3279  0.5627  0.6405
12593TIP3    H159194   3.957   6.448  14.054 -0.4607  1.4503  0.3797
12593TIP3    H259195   3.943   6.383  13.918 -0.1687 -2.8406  2.2554
12594TIP3   OH259196   2.467   0.721  11.621 -0.3191 -0.3418  0.0507
12594TIP3    H159197   2.521   0.790  11.660  0.1884 -0.7168  0.0116
12594TIP3    H259198   2.494   0.718  11.530 -2.8094  1.8397 -0.8888
12595TIP3   OH259199   2.916   6.459   5.778 -0.2635  0.5006 -0.3280
12595TIP3    H159200   2.991   6.498   5.733 -0.0449  2.2244  1.4069
12595TIP3    H259201   2.928   6.482   5.870 -1.5922 -1.4116  0.3914
12596TIP3   OH259202   4.760   1.575  16.290  0.2627 -0.3456  0.2364
12596TIP3    H159203   4.728   1.663  16.269  2.3098  0.3203 -0.3055
12596TIP3    H259204   4.737   1.523  16.213  1.8030  0.5034 -0.8586
12597TIP3   OH259205   5.894   0.016   3.010  0.1403 -0.6475  0.0414
12597TIP3    H159206   5.816   0.064   2.980 -0.3905 -1.3023  0.3559
12597TIP3    H259207   5.859  -0.055   3.064  1.0345 -0.0095  1.4981
12598TIP3   OH259208   4.519   0.482  13.295 -0.3213 -0.1439  0.3689
12598TIP3    H159209   4.607   0.501  13.327  0.4286 -2.1073 -0.3583
12598TIP3    H259210   4.501   0.394  13.326 -2.1954  0.3557  0.7881
12599TIP3   OH259211   1.065   2.100   3.398  0.0354 -0.4502  0.4286
12599TIP3    H159212   1.021   2.153   3.332  0.0340 -0.4861  0.4005
12599TIP3    H259213   1.083   2.160   3.469  0.7306 -0.2354  0.0743
12600TIP3   OH259214   0.181   2.867   5.407 -0.1416 -0.4094 -0.2873
12600TIP3    H159215   0.113   2.888   5.344 -0.7933 -0.4810  0.3841
12600TIP3    H259216   0.173   2.934   5.475  0.4477 -0.4282 -0.1893
12601TIP3   OH259217   2.143   0.742  16.405 -0.0220 -0.0156 -1.1005
12601TIP3    H159218   2.119   0.834  16.416 -1.1181 -0.3826 -0.2785
12601TIP3    H259219   2.232   0.745  16.369  0.4166  1.3640  0.0063
12602TIP3   OH259220   5.894   3.760   1.404  0.4285 -0.7480 -0.0396
12602TIP3    H159221   5.949   3.743   1.327 -0.3585 -2.1671 -0.3355
12602TIP3    H259222   5.944   3.726   1.478  0.3506 -1.1772 -0.1839
12603TIP3   OH259223   3.623   1.785   1.490 -0.3620  0.0171  0.1528
12603TIP3    H159224   3.712   1.772   1.458 -0.1607  1.8955 -0.1890
12603TIP3    H259225   3.596   1.699   1.523  1.4253 -0.6777 -0.0850
12604TIP3   OH259226   4.398   1.186  15.341 -0.3770  0.0931 -0.2634
12604TIP3    H159227   4.330   1.156  15.281 -0.1235 -1.2756  0.0915
12604TIP3    H259228   4.352   1.200  15.424  0.0105 -2.7415  0.5338
12605TIP3   OH259229   2.280   0.547  13.351  0.4028  0.1838 -0.5544
12605TIP3    H159230   2.322   0.600  13.284  1.0146 -0.4408 -0.6811
12605TIP3    H259231   2.237   0.477  13.302  0.8268 -0.2570 -0.3120
12606TIP3   OH259232   5.550   2.325   5.925 -0.5098 -0.3448  0.7287
12606TIP3    H159233   5.538   2.293   5.836  0.5286 -1.7515  1.0568
12606TIP3    H259234   5.606   2.402   5.915 -0.7943 -0.2057  0.1400
12607TIP3   OH259235   2.156   0.813  14.824 -0.1938 -0.1533  0.5006
12607TIP3    H159236   2.228   0.758  14.796 -0.3857 -0.0552 -0.1979
12607TIP3    H259237   2.099   0.820  14.747 -0.9895 -0.3034  1.0612
12608TIP3   OH259238   3.642   2.934  12.565  0.2370  0.0123 -0.0850
12608TIP3    H159239   3.728   2.976  12.563  0.2340 -0.0004 -0.9820
12608TIP3    H259240   3.650   2.861  12.502 -0.4931  0.1496 -0.3414
12609TIP3   OH259241   6.643   0.972   5.023  0.0560 -0.2724  0.3106
12609TIP3    H159242   6.701   1.016   4.961  1.3316  0.1933  1.7803
12609TIP3    H259243   6.640   0.881   4.994  0.2023  0.0388 -0.7188
12610TIP3   OH259244   2.150   2.423  12.775 -0.2878 -0.0105 -0.5987
12610TIP3    H159245   2.197   2.481  12.836 -0.4280 -0.7153  0.1972
12610TIP3    H259246   2.219   2.379  12.726 -0.1728  0.5494 -0.9493
12611TIP3   OH259247   6.732   3.419  15.837 -0.1779  0.3053  0.8264
12611TIP3    H159248   6.756   3.509  15.816 -0.4961  0.6147  1.7528
12611TIP3    H259249   6.648   3.427  15.883 -1.6714 -0.6705 -1.5526
12612TIP3   OH259250   5.065   6.274  16.648 -0.1428  0.3257 -0.3458
12612TIP3    H159251   5.008   6.346  16.676 -1.6033 -0.5627 -0.9506
12612TIP3    H259252   5.106   6.245  16.729 -0.7399  0.8289  0.1572
12613TIP3   OH259253   1.334   0.902   5.720  0.0697  0.1874  0.2603
12613TIP3    H159254   1.295   0.815   5.716 -0.3930  0.4326 -0.9507
12613TIP3    H259255   1.342   0.921   5.814 -0.1192 -1.0158  0.5310
12614TIP3   OH259256   5.520   3.808   3.710  0.1464 -0.2572 -0.2306
12614TIP3    H159257   5.509   3.901   3.731  0.5288 -0.6539  2.0281
12614TIP3    H259258   5.445   3.787   3.654 -0.5109  1.1841  0.0632
12615TIP3   OH259259   6.015   4.391   5.888 -0.9065 -0.3039 -0.2121
12615TIP3    H159260   5.996   4.380   5.795 -0.8531 -2.6762  0.0182
12615TIP3    H259261   5.932   4.375   5.932 -0.5823 -0.7544  0.2428
12616TIP3   OH259262   1.523   2.327   5.666  0.3251  0.2637 -0.1892
12616TIP3    H159263   1.428   2.313   5.665  0.2740  0.4482  1.0684
12616TIP3    H259264   1.535   2.407   5.716  1.2118 -0.4019  0.6994
12617TIP3   OH259265   0.049   1.242  15.661 -0.2763 -0.2414 -0.0911
12617TIP3    H159266   0.107   1.294  15.605  0.2319  1.6011  2.0150
12617TIP3    H259267   0.101   1.165  15.684 -0.5125 -1.0724 -2.0851
12618TIP3   OH259268   6.394   3.865  13.373  0.3409  0.6222 -0.0972
12618TIP3    H159269   6.446   3.896  13.298  1.2114  0.7984  0.5604
12618TIP3    H259270   6.310   3.909  13.363  0.6149  1.0255 -0.7114
12619TIP3   OH259271   2.385   1.466   1.126 -0.2469 -0.1766  0.1846
12619TIP3    H159272   2.417   1.554   1.148 -1.8977  0.1738  1.4028
12619TIP3    H259273   2.384   1.420   1.210 -2.1818 -0.3781  0.0955
12620TIP3   OH259274   3.152   2.663   5.803 -0.2642 -0.9485  0.2421
12620TIP3    H159275   3.115   2.663   5.891 -0.5203 -1.1344  0.1353
12620TIP3    H259276   3.246   2.669   5.817 -0.3060 -0.9378  0.5279
12621TIP3   OH259277   2.277   1.203  11.359 -0.3959 -0.3783 -0.1139
12621TIP3    H159278   2.347   1.177  11.298  0.4078  0.7779  0.2775
12621TIP3    H259279   2.252   1.290  11.330  2.3683  1.7400  3.0974
12622TIP3   OH259280   5.851   0.971  12.200 -0.4164 -0.2393 -0.0231
12622TIP3    H159281   5.814   1.058  12.184 -0.5098  0.8998  4.7943
12622TIP3    H259282   5.945   0.986  12.207 -0.2122 -0.9571 -1.0939
12623TIP3   OH259283   1.707   5.873  15.532  0.1047  0.6158  0.0272
12623TIP3    H159284   1.626   5.913  15.500 -1.0548 -0.9747  0.8415
12623TIP3    H259285   1.687   5.780  15.538  1.8791  0.2344  0.6685
12624TIP3   OH259286   5.626   1.897  12.729  0.1198 -0.4000 -0.3261
12624TIP3    H159287   5.549   1.937  12.688  0.0274 -2.1100 -1.9509
12624TIP3    H259288   5.695   1.963  12.720 -0.5193  0.1831 -1.0886
12625TIP3   OH259289   3.714   5.369   2.568 -0.0828  0.4929  1.4901
12625TIP3    H159290   3.654   5.437   2.537 -0.7974 -0.1130  1.5012
12625TIP3    H259291   3.695   5.362   2.662  1.2170  1.4721  1.8532
12626TIP3   OH259292   4.772   2.200   5.206 -0.6309  0.1189 -0.1546
12626TIP3    H159293   4.677   2.200   5.218 -0.5277  0.5536  0.7346
12626TIP3    H259294   4.802   2.123   5.255 -0.4806  0.2386 -0.0577
12627TIP3   OH259295   4.204   0.210  15.059  0.1843 -0.2393  0.0547
12627TIP3    H159296   4.148   0.285  15.074 -0.4393 -0.4760 -0.9683
12627TIP3    H259297   4.158   0.136  15.098 -1.6273 -0.9246 -3.0314
12628TIP3   OH259298   3.884   0.928  12.204  0.0871  0.2085  0.1912
12628TIP3    H159299   3.934   0.965  12.277  1.9817  0.6230 -1.2667
12628TIP3    H259300   3.880   0.834  12.222  5.0508 -0.6301 -1.5476
12629TIP3   OH259301   6.177   4.619   1.775 -0.3486 -0.2400  0.4896
12629TIP3    H159302   6.237   4.694   1.778 -0.8605  0.2183  4.6826
12629TIP3    H259303   6.090   4.658   1.767 -0.5232 -0.3932  1.4647
12630TIP3   OH259304   5.441   1.544  13.164  0.1118  0.6535 -0.2962
12630TIP3    H159305   5.488   1.607  13.110 -2.2625  2.4607 -0.4000
12630TIP3    H259306   5.496   1.534  13.242  0.5932  2.8814 -0.2815
12631TIP3   OH259307   5.538   0.138  16.873  0.1810 -0.3691  0.1092
12631TIP3    H159308   5.526   0.198  16.947  0.6589 -1.3858  1.0527
12631TIP3    H259309   5.504   0.055  16.905  0.7373 -0.9170 -0.6957
12632TIP3   OH259310   2.480   2.536   0.808  0.3623 -0.5897  0.8559
12632TIP3    H159311   2.485   2.618   0.759 -1.4071 -0.3626  0.9870
12632TIP3    H259312   2.442   2.561   0.893 -0.7798 -1.5952  0.6755
12633TIP3   OH259313   6.672   4.721  12.364 -0.2476  0.2204 -0.4687
12633TIP3    H159314   6.730   4.763  12.299  0.4918 -1.8938 -1.2467
12633TIP3    H259315   6.597   4.780  12.369  2.3698  3.8599  1.5817
12634TIP3   OH259316   2.340   5.262  12.676  0.2218 -0.0514  0.0053
12634TIP3    H159317   2.347   5.168  12.662 -0.1905 -0.0732 -0.0581
12634TIP3    H259318   2.305   5.271  12.764  1.3844  0.0667  0.4828
12635TIP3   OH259319   1.744   2.185   4.849  0.2988 -0.9709  0.1366
12635TIP3    H159320   1.686   2.178   4.773  0.2644  1.1898 -0.0870
12635TIP3    H259321   1.719   2.111   4.905 -1.7243 -0.9061 -0.6087
12636TIP3   OH259322   0.387   4.119   0.945  0.1968  0.0904  0.6013
12636TIP3    H159323   0.438   4.167   1.010  0.7237  0.9911 -0.4469
12636TIP3    H259324   0.334   4.186   0.901 -1.2910 -0.7120  1.1013
12637TIP3   OH259325   6.530   2.638   0.403 -0.1564 -0.4632 -0.0404
12637TIP3    H159326   6.590   2.674   0.468 -0.1103 -1.2868  0.3919
12637TIP3    H259327   6.479   2.713   0.371  1.3310  0.3135 -0.6723
12638TIP3   OH259328   5.113   1.457   2.207  0.2245 -0.3050 -0.0470
12638TIP3    H159329   5.179   1.510   2.164  1.0652 -1.3147 -0.0333
12638TIP3    H259330   5.047   1.441   2.139  1.3312 -1.5316 -0.8735
12639TIP3   OH259331   0.376   1.643  11.759 -0.5213 -0.0722 -0.1874
12639TIP3    H159332   0.416   1.601  11.682 -0.2640  1.1961 -0.7751
12639TIP3    H259333   0.322   1.713  11.722  0.3984  1.2137  0.8285
12640TIP3   OH259334   3.913   0.470  12.492  0.3429 -0.2916 -0.3803
12640TIP3    H159335   3.929   0.525  12.569 -0.4996 -1.0923  0.3933
12640TIP3    H259336   3.937   0.382  12.520  2.8347 -0.2136 -1.9808
12641TIP3   OH259337   0.929   3.375   4.014  0.1029 -0.3794 -0.0999
12641TIP3    H159338   0.990   3.344   4.081  0.1063 -0.9918 -0.3704
12641TIP3    H259339   0.849   3.325   4.030 -0.0179 -0.2550 -0.3112
12642TIP3   OH259340   5.818   2.671  12.148 -0.2458 -0.1667  0.3285
12642TIP3    H159341   5.874   2.597  12.171 -1.1345 -0.4303  1.8454
12642TIP3    H259342   5.762   2.639  12.078 -0.1968 -0.7323  0.5473
12643TIP3   OH259343   0.524   1.372  13.783  0.6305 -0.0462  0.0261
12643TIP3    H159344   0.578   1.328  13.718 -2.1067  1.6647 -3.7927
12643TIP3    H259345   0.451   1.311  13.799 -0.6562  0.9773 -1.5783
12644TIP3   OH259346   1.159   1.527   5.070  0.8368 -0.1817  0.4373
12644TIP3    H159347   1.080   1.557   5.115 -1.7254 -2.2146 -2.3345
12644TIP3    H259348   1.189   1.453   5.123  0.2431 -0.0782  0.9422
12645TIP3   OH259349   4.432   0.821  16.844  0.7072 -0.1245  0.4635
12645TIP3    H159350   4.434   0.903  16.893  0.0656  0.3843 -0.3334
12645TIP3    H259351   4.446   0.753  16.910 -1.4208  0.4427  1.5772
12646TIP3   OH259352   1.488   1.681  15.770  0.2695  0.7817 -0.4883
12646TIP3    H159353   1.399   1.716  15.771 -0.1885 -0.2186 -2.1041
12646TIP3    H259354   1.483   1.604  15.713  2.1602  0.6620 -0.5624
12647TIP3   OH259355   2.297   4.898  16.454  0.0817 -0.1485 -0.0963
12647TIP3    H159356   2.333   4.958  16.518 -1.0340  0.3121  0.1164
12647TIP3    H259357   2.299   4.946  16.371 -0.8622  0.2217  0.0833
12648TIP3   OH259358   2.701   0.178   5.976  0.2734 -0.4044  0.0210
12648TIP3    H159359   2.620   0.207   6.020  0.2280 -1.5579  0.7179
12648TIP3    H259360   2.672   0.112   5.914  0.5336  0.1400 -0.6994
12649TIP3   OH259361   4.935   3.697   1.676  0.0076  0.2105 -0.5672
12649TIP3    H159362   4.986   3.686   1.757 -2.6878  1.4543  1.4521
12649TIP3    H259363   4.964   3.781   1.641 -0.5531  0.8781  0.5258
12650TIP3   OH259364   3.236   1.453  15.178  0.6288 -0.2983  0.4019
12650TIP3    H159365   3.236   1.548  15.168 -0.6204 -0.4732 -2.1470
12650TIP3    H259366   3.169   1.436  15.244  0.2008  0.5423  0.1933
12651TIP3   OH259367   0.255   5.858   3.548  0.3488  0.0333  0.2277
12651TIP3    H159368   0.261   5.763   3.552 -1.3718 -0.0899  0.6147
12651TIP3    H259369   0.283   5.880   3.459 -4.5374 -1.4468 -2.0477
12652TIP3   OH259370   0.744   5.286  10.790 -0.3359 -0.0001  0.3048
12652TIP3    H159371   0.671   5.310  10.732  0.5918  0.0816 -0.8574
12652TIP3    H259372   0.763   5.195  10.768  2.7144  1.1673 -2.5938
12653TIP3   OH259373   5.417   5.267  13.183 -0.2834 -0.9155  0.3720
12653TIP3    H159374   5.390   5.280  13.092 -0.8574  1.0471  0.7744
12653TIP3    H259375   5.340   5.228  13.225 -1.0169  0.6849  0.5741
12654TIP3   OH259376   5.569   4.834  11.523 -0.3964  0.1566  0.5024
12654TIP3    H159377   5.635   4.804  11.586  0.3005  0.5424 -0.0360
12654TIP3    H259378   5.564   4.765  11.458 -1.6064 -0.5609  1.3025
12655TIP3   OH259379   0.022   5.551  12.097 -0.0538  0.0027 -0.3772
12655TIP3    H159380  -0.011   5.599  12.021 -0.1073 -1.1103 -1.0807
12655TIP3    H259381   0.083   5.611  12.139 -0.3688  0.8037 -1.0390
12656TIP3   OH259382   6.667   0.131  15.223  0.3295  0.4484  0.2139
12656TIP3    H159383   6.686   0.049  15.176  0.8103 -0.4160  1.8324
12656TIP3    H259384   6.631   0.102  15.307 -0.1390  1.9311  0.5427
12657TIP3   OH259385   6.752   5.532  14.132 -0.0970  0.1884  0.4683
12657TIP3    H159386   6.788   5.567  14.050  0.6462 -0.5896  0.4419
12657TIP3    H259387   6.700   5.604  14.168 -0.1373  0.6662 -0.5009
12658TIP3   OH259388   1.662   3.249  14.619 -0.5882 -0.5492  0.1371
12658TIP3    H159389   1.573   3.223  14.594 -0.6941 -1.5850  1.4666
12658TIP3    H259390   1.714   3.170  14.607  0.3147  0.2226 -1.2338
12659TIP3   OH259391   3.464   6.179  11.574 -0.5597 -0.1936  0.3514
12659TIP3    H159392   3.481   6.245  11.641 -0.8956  1.4334 -1.0795
12659TIP3    H259393   3.502   6.098  11.609 -0.5931  0.6191  2.3997
12660TIP3   OH259394   4.878   6.371   0.099 -0.0680 -0.0029 -0.0114
12660TIP3    H159395   4.871   6.357   0.193 -1.9205 -1.0194 -0.2433
12660TIP3    H259396   4.883   6.283   0.062 -0.1648  0.3546 -0.9094
12661TIP3   OH259397   2.699   3.922   2.159  0.5726  0.3359  0.3627
12661TIP3    H159398   2.654   3.963   2.085  0.3994 -2.3481 -1.1410
12661TIP3    H259399   2.791   3.945   2.148  0.3773  0.9755  0.0534
12662TIP3   OH259400   4.811   5.054   0.338  0.4529 -0.1130  0.0837
12662TIP3    H159401   4.865   5.005   0.400 -0.3857 -0.9212  0.1937
12662TIP3    H259402   4.787   5.134   0.385  1.5521  0.2671  0.0267
12663TIP3   OH259403   3.358   1.102   3.193 -0.2081 -0.1566 -0.3765
12663TIP3    H159404   3.439   1.082   3.146 -0.2804 -2.3001  0.3218
12663TIP3    H259405   3.334   1.020   3.235 -1.5653  1.0182  1.2499
12664TIP3   OH259406   1.938   1.024   5.818  0.0424 -0.0198  0.4827
12664TIP3    H159407   1.888   1.047   5.896  0.5980  0.9900  0.5458
12664TIP3    H259408   1.873   1.026   5.747 -0.1482  0.6040  0.6700
12665TIP3   OH259409   6.758   6.419  17.123 -0.3977  0.1332  0.1479
12665TIP3    H159410   6.748   6.511  17.099  1.4793  0.6717  1.2086
12665TIP3    H259411   6.823   6.384  17.061 -0.4668 -0.2486  0.2862
12666TIP3   OH259412   2.292   4.757   0.575 -0.2565  0.4125  0.6025
12666TIP3    H159413   2.217   4.733   0.521  0.4556 -0.3200 -0.0756
12666TIP3    H259414   2.352   4.683   0.568 -0.1380  0.2887  2.4179
12667TIP3   OH259415   6.282   0.937   2.996 -0.1739  0.1012  0.1972
12667TIP3    H159416   6.278   0.906   3.087  1.4419  0.7875  0.5444
12667TIP3    H259417   6.213   1.004   2.991 -0.5955 -0.2800  0.7684
12668TIP3   OH259418   0.615   4.379   4.207 -0.0158  0.6095 -0.1880
12668TIP3    H159419   0.648   4.442   4.272 -0.1046  0.6014 -0.1342
12668TIP3    H259420   0.533   4.418   4.175 -1.1011 -0.3729  1.2574
12669TIP3   OH259421   5.351   3.149   1.609  0.7455  0.7523 -0.5076
12669TIP3    H159422   5.362   3.057   1.631 -1.1906  0.5686 -0.1728
12669TIP3    H259423   5.260   3.169   1.629  1.0041  2.6504 -0.9439
12670TIP3   OH259424   6.180   1.550  16.051  0.0248  0.2119  0.1249
12670TIP3    H159425   6.153   1.467  16.089  1.0121 -0.0864  0.2146
12670TIP3    H259426   6.197   1.531  15.959 -0.8518  0.5781 -0.1190
12671TIP3   OH259427   3.872   1.010   5.359  0.1258  0.5729 -0.1283
12671TIP3    H159428   3.862   0.936   5.418 -0.6900  0.0820 -0.8508
12671TIP3    H259429   3.965   1.012   5.337  0.0993 -0.4534 -0.3698
12672TIP3   OH259430   1.500   4.670   4.136  0.0843  0.1169  0.8107
12672TIP3    H159431   1.408   4.680   4.111  0.0649  1.1072  1.2039
12672TIP3    H259432   1.497   4.628   4.222 -0.0009  0.0250  0.7623
12673TIP3   OH259433   5.214   0.163   5.003 -0.1315  0.6161  0.5896
12673TIP3    H159434   5.182   0.085   5.047  0.7618  0.1885  0.5091
12673TIP3    H259435   5.308   0.164   5.022  0.1805  0.7222 -0.8359
12674TIP3   OH259436   0.012   0.618   3.067  0.1060 -0.0503  0.0407
12674TIP3    H159437   0.042   0.577   2.986 -1.2359 -0.5119 -0.2417
12674TIP3    H259438  -0.065   0.669   3.042 -0.9305 -0.9835  1.1671
12675TIP3   OH259439   2.514   3.509  11.433  0.2653 -0.2961 -0.0705
12675TIP3    H159440   2.600   3.498  11.394 -0.2103  0.3138 -1.3160
12675TIP3    H259441   2.471   3.576  11.381 -0.2804  0.8315  1.7218
12676TIP3   OH259442   1.983   1.934  16.105  0.6889 -0.6372 -0.0495
12676TIP3    H159443   1.997   1.991  16.029  1.7432 -0.3240  0.3600
12676TIP3    H259444   1.961   1.849  16.068 -0.0914 -0.1692 -0.6843
12677TIP3   OH259445   0.590   2.379  15.662  0.3175  0.0433 -0.0554
12677TIP3    H159446   0.573   2.368  15.568 -1.2214  0.8485  0.0948
12677TIP3    H259447   0.634   2.463  15.668  1.5319 -0.5560 -0.1328
12678TIP3   OH259448   5.987   3.772  12.362  0.4715 -0.6238  0.0680
12678TIP3    H159449   5.895   3.761  12.386  0.1427  0.0235 -0.8417
12678TIP3    H259450   6.027   3.687  12.378 -0.2693 -0.8886  0.5294
12679TIP3   OH259451   3.855   0.298  15.470 -0.0551  0.6569 -0.3516
12679TIP3    H159452   3.915   0.286  15.397  1.3658  1.2201  0.6860
12679TIP3    H259453   3.779   0.243  15.448  1.2514 -0.8851 -1.2173
12680TIP3   OH259454   0.961   2.032  11.681 -0.3705  0.0170 -0.2948
12680TIP3    H159455   1.046   1.987  11.685 -0.8637 -0.8452  1.1292
12680TIP3    H259456   0.902   1.968  11.641 -0.5670  0.2483 -0.3737
12681TIP3   OH259457   0.124   5.176   3.374 -0.0743  0.1736 -0.3791
12681TIP3    H159458   0.034   5.205   3.357 -1.0210 -2.4702 -0.2272
12681TIP3    H259459   0.120   5.132   3.459  1.3036 -0.2652 -0.5192
12682TIP3   OH259460   5.542   6.016  11.373  0.1495 -0.2237  0.4565
12682TIP3    H159461   5.625   5.988  11.411  1.1561  3.3385  1.1710
12682TIP3    H259462   5.564   6.042  11.284 -0.4979 -0.4566  0.2205
12683TIP3   OH259463   4.689   6.651   6.597 -0.0263  0.2115 -0.0335
12683TIP3    H159464   4.680   6.589   6.525 -0.2043  0.7058 -0.4397
12683TIP3    H259465   4.765   6.705   6.573  0.6704 -0.3927  0.7335
12684TIP3   OH259466   5.691   0.031   5.723 -0.3397 -0.5496 -0.0797
12684TIP3    H159467   5.693   0.101   5.657 -0.6128 -2.0234 -1.7306
12684TIP3    H259468   5.599   0.018   5.742 -0.2225  0.3830  1.1991
12685TIP3   OH259469   0.208   0.405  15.017  0.0297  0.3580 -0.0957
12685TIP3    H159470   0.134   0.461  15.042  0.2855  0.0993  1.3225
12685TIP3    H259471   0.225   0.352  15.095 -0.1652 -1.6602 -1.3598
12686TIP3   OH259472   3.780   3.282  11.391  0.6547 -0.3203 -0.1592
12686TIP3    H159473   3.869   3.249  11.394  0.3195 -1.2314  0.0966
12686TIP3    H259474   3.768   3.311  11.300  2.0361  2.2419  0.3853
12687TIP3   OH259475   4.429   1.136   5.010 -0.0531 -0.2249 -0.3402
12687TIP3    H159476   4.466   1.106   5.094 -0.1425  0.2936 -0.1135
12687TIP3    H259477   4.487   1.098   4.944  1.5660  1.4386  0.0378
12688TIP3   OH259478   1.700   1.731  15.611  0.4538 -0.4486  0.3711
12688TIP3    H159479   1.697   1.826  15.595 -0.7800 -0.8362 -2.0118
12688TIP3    H259480   1.628   1.716  15.674 -0.2880  0.0284 -0.3386
12689TIP3   OH259481   4.977   1.738  13.268  0.8946 -0.1773 -0.2360
12689TIP3    H159482   4.971   1.810  13.205  0.5263  0.0719  0.0781
12689TIP3    H259483   4.907   1.677  13.241  0.6835 -0.0314 -0.0219
12690TIP3   OH259484   0.503   0.421  12.459 -0.2005 -0.3276 -0.2248
12690TIP3    H159485   0.447   0.450  12.531  0.8549  0.4691  0.3076
12690TIP3    H259486   0.571   0.368  12.501  0.4197  0.1297 -0.6259
12691TIP3   OH259487   5.974   0.393  11.158 -0.3155  0.8816  0.0728
12691TIP3    H159488   6.027   0.370  11.081  0.0572  1.1407  0.2475
12691TIP3    H259489   5.935   0.477  11.135 -0.8851  0.5544 -0.1704
12692TIP3   OH259490   5.563   2.871  13.840 -0.1844  0.2117  0.0234
12692TIP3    H159491   5.525   2.943  13.890 -0.7050 -0.1233  0.1210
12692TIP3    H259492   5.652   2.900  13.820 -0.6015  1.1879 -0.5411
12693TIP3   OH259493   6.690   4.303   6.006 -0.1484  0.2627 -0.2780
12693TIP3    H159494   6.644   4.227   5.970  0.2593 -1.1428  1.8945
12693TIP3    H259495   6.620   4.362   6.035 -0.4712  0.9340 -2.2751
12694TIP3   OH259496   5.170   1.890   4.121 -0.2860  0.0504  0.5056
12694TIP3    H159497   5.117   1.825   4.168  1.5589 -1.4984  0.5414
12694TIP3    H259498   5.215   1.939   4.190 -2.2064  1.9567  0.5169
12695TIP3   OH259499   1.732   5.355   0.556 -0.5144  0.2611 -0.6189
12695TIP3    H159500   1.773   5.392   0.634 -0.0348  0.9880 -1.1922
12695TIP3    H259501   1.711   5.265   0.579  1.0191 -0.0081 -0.1513
12696TIP3   OH259502   1.839   0.131  17.004  0.5342 -0.0874  0.4841
12696TIP3    H159503   1.846   0.096  16.916  1.1286  1.3191 -0.0467
12696TIP3    H259504   1.857   0.056  17.061 -2.1288 -1.6119 -0.4627
12697TIP3   OH259505   4.298   6.358  12.978 -1.1158  0.4207 -0.1512
12697TIP3    H159506   4.362   6.427  12.960 -2.2832  1.6398  0.2148
12697TIP3    H259507   4.215   6.404  12.988 -1.6465 -0.8441  1.8379
12698TIP3   OH259508   2.582   0.073  15.643 -0.1982  0.4574  0.3715
12698TIP3    H159509   2.624   0.158  15.627  2.5995 -1.0255 -1.0213
12698TIP3    H259510   2.557   0.043  15.556  1.3597 -1.2699  0.4705
12699TIP3   OH259511   2.682   3.648   0.638  0.0637 -0.2289  0.7626
12699TIP3    H159512   2.716   3.616   0.554  0.5726  1.0572  0.4600
12699TIP3    H259513   2.754   3.636   0.699  0.0254 -0.2720  0.7990
12700TIP3   OH259514   4.188   0.811  13.055 -0.4889 -0.3671  0.6519
12700TIP3    H159515   4.232   0.739  13.101 -1.4396 -1.1780  0.3330
12700TIP3    H259516   4.097   0.805  13.083 -0.1848  2.2643  2.5412
12701TIP3   OH259517   3.723   0.374  10.981 -0.2066  0.4056  0.2734
12701TIP3    H159518   3.670   0.394  10.904  0.3615  1.2519  0.0927
12701TIP3    H259519   3.800   0.431  10.973  0.9289 -1.0563  0.3143
12702TIP3   OH259520   6.640   0.132   3.219  0.2020 -0.2106 -0.7592
12702TIP3    H159521   6.581   0.126   3.294 -1.0522  3.6569 -1.2197
12702TIP3    H259522   6.728   0.130   3.257 -0.3958  0.6244  0.7217
12703TIP3   OH259523   1.729   6.658  13.102 -0.2398  0.2395 -0.2925
12703TIP3    H159524   1.683   6.736  13.132  0.6984  0.0998  1.7441
12703TIP3    H259525   1.813   6.660  13.149  1.5221  0.0565 -3.1893
12704TIP3   OH259526   4.706   3.386  16.506 -0.3648  0.6227  0.0724
12704TIP3    H159527   4.640   3.449  16.477  0.3312  1.4367  0.2269
12704TIP3    H259528   4.701   3.389  16.602  0.9461  1.8680  0.1424
12705TIP3   OH259529   4.983   5.053  14.000 -0.2720 -0.1258 -0.0485
12705TIP3    H159530   4.891   5.029  14.014 -0.2562 -0.2958 -0.2359
12705TIP3    H259531   4.984   5.149  14.005 -0.1782 -0.1857  1.6592
12706TIP3   OH259532   3.909   1.671  14.730  0.1947  0.0001  0.4310
12706TIP3    H159533   3.924   1.583  14.695 -2.4106 -0.2999 -0.1344
12706TIP3    H259534   3.841   1.659  14.797 -0.1748  1.5790  0.3831
12707TIP3   OH259535   4.493   1.411  11.504  0.0024  0.1640 -0.2647
12707TIP3    H159536   4.522   1.322  11.523 -1.9492 -0.4684 -0.0795
12707TIP3    H259537   4.493   1.454  11.590  2.4454  0.8925 -0.5367
12708TIP3   OH259538   6.157   0.257   3.476 -0.1016 -0.4279  0.3370
12708TIP3    H159539   6.086   0.204   3.511 -0.8734  1.3918  1.7169
12708TIP3    H259540   6.114   0.321   3.420  0.2655  1.2094  1.8198
12709TIP3   OH259541   3.856   5.262   0.793  0.0414  0.1877  0.1024
12709TIP3    H159542   3.789   5.275   0.860 -2.8366  0.6430 -2.6189
12709TIP3    H259543   3.870   5.167   0.792 -0.3871  0.1072  0.8633
12710TIP3   OH259544   3.036   5.428  11.805 -0.7994 -0.1539 -0.0179
12710TIP3    H159545   3.054   5.503  11.861  1.8364 -0.1566 -0.7039
12710TIP3    H259546   3.057   5.352  11.859 -1.0255 -0.2867 -0.1139
12711TIP3   OH259547   3.738   6.693  14.447 -0.2690 -0.2971 -0.4345
12711TIP3    H159548   3.745   6.710  14.353 -2.0611  0.9336 -0.4000
12711TIP3    H259549   3.828   6.689  14.478  0.3702 -1.5222 -2.3218
12712TIP3   OH259550   0.806   0.466  10.947  0.3651  0.0707  0.5084
12712TIP3    H159551   0.739   0.400  10.964  0.5945 -0.2689  0.0947
12712TIP3    H259552   0.765   0.527  10.886 -0.5561  1.4407  2.3913
12713TIP3   OH259553   4.764   1.068   0.307 -0.0373 -0.3287  0.9021
12713TIP3    H159554   4.699   1.081   0.376 -0.5788  0.2980  0.2804
12713TIP3    H259555   4.713   1.045   0.230  0.5623 -0.9630  0.6797
12714TIP3   OH259556   1.773   1.760   3.999  0.3779 -0.1813 -0.5538
12714TIP3    H159557   1.857   1.738   3.958  0.0413 -1.5569 -0.5457
12714TIP3    H259558   1.731   1.675   4.015  0.2949  0.2948  2.2656
12715TIP3   OH259559   5.261   0.801  12.154 -0.0504 -0.5208  0.4737
12715TIP3    H159560   5.294   0.737  12.217  0.6601  0.2083  0.8660
12715TIP3    H259561   5.336   0.821  12.098 -0.4959 -0.6542 -0.1839
12716TIP3   OH259562   1.696   2.630  15.281  0.1116  0.0617  0.0518
12716TIP3    H159563   1.641   2.653  15.356  1.7207  0.8921  1.0336
12716TIP3    H259564   1.646   2.658  15.205 -0.6609  1.1483  0.9256
12717TIP3   OH259565   6.122   1.304   5.020 -0.4319 -0.2613  0.7070
12717TIP3    H159566   6.200   1.341   5.060 -0.1942  0.4943 -0.4144
12717TIP3    H259567   6.147   1.213   5.000  0.4211  0.1650 -0.2738
12718TIP3   OH259568   1.928   3.362  10.629  0.3172  0.2228  0.2239
12718TIP3    H159569   1.845   3.324  10.603  0.8909 -0.0614 -1.3016
12718TIP3    H259570   1.910   3.455  10.643 -0.1488  0.2712 -0.6635
12719TIP3   OH259571   2.551   3.903  15.609  0.1846  0.9239  0.1903
12719TIP3    H159572   2.561   3.813  15.641 -1.1231  0.0303 -1.7458
12719TIP3    H259573   2.609   3.909  15.534 -1.3643  0.9290 -1.0615
12720TIP3   OH259574   5.034   5.942  11.571  0.4582  0.1345 -0.5691
12720TIP3    H159575   5.111   5.948  11.515  0.7730 -1.6934 -0.4127
12720TIP3    H259576   5.037   5.852  11.605 -0.6453  0.6625  1.0333
12721TIP3   OH259577   3.430   0.153  15.029  0.8042 -0.7198  0.2458
12721TIP3    H159578   3.395   0.210  14.960 -0.1333 -0.1190  1.1903
12721TIP3    H259579   3.517   0.187  15.046 -0.8385  2.7346  3.1035
12722TIP3   OH259580   1.966   1.769  11.247  0.0922 -0.0007  0.7066
12722TIP3    H159581   1.894   1.812  11.200  0.6466  1.4310  1.1185
12722TIP3    H259582   1.924   1.732  11.326 -0.2524  0.5058  0.7649
12723TIP3   OH259583   5.553   2.140   6.277 -0.3290 -0.0688 -0.1908
12723TIP3    H159584   5.642   2.114   6.254 -0.4907  1.1063 -2.4452
12723TIP3    H259585   5.552   2.235   6.269 -1.4676  0.0578  1.1227
12724TIP3   OH259586   2.787   5.747  14.409  0.1764 -0.3110 -0.1604
12724TIP3    H159587   2.870   5.756  14.361  1.0207 -0.0006  1.3068
12724TIP3    H259588   2.812   5.715  14.495 -1.3772 -1.4472 -0.0978
12725TIP3   OH259589   4.565   1.981  11.820  0.0359  0.3216 -0.4886
12725TIP3    H159590   4.646   1.974  11.770  0.8076  1.6701  0.5108
12725TIP3    H259591   4.519   2.055  11.782  0.6291  1.3601  0.7286
12726TIP3   OH259592   3.861   2.717   5.474  0.4020  0.8816 -0.2610
12726TIP3    H159593   3.803   2.643   5.491  0.8647  0.4079 -0.7280
12726TIP3    H259594   3.924   2.716   5.547  1.0802  0.1435 -0.8459
12727TIP3   OH259595   2.205   5.393  11.498  0.2441  0.1056  0.2349
12727TIP3    H159596   2.288   5.430  11.468  1.3428 -1.2552  1.4284
12727TIP3    H259597   2.157   5.374  11.418  1.1087  0.8686 -0.4870
12728TIP3   OH259598   5.515   2.321  15.062 -0.0541  0.3627 -0.2018
12728TIP3    H159599   5.435   2.268  15.061 -0.1949  0.5101  1.2912
12728TIP3    H259600   5.550   2.313  14.973 -0.7884 -1.1232 -0.3840
12729TIP3   OH259601   6.063   3.317  15.834 -0.4039 -0.2292 -0.2358
12729TIP3    H159602   6.086   3.299  15.743  0.2043  1.6074 -0.4922
12729TIP3    H259603   6.017   3.401  15.831 -1.5529 -0.7783  1.0153
12730TIP3   OH259604   4.172   3.680  12.934  1.0134  0.1707 -0.5977
12730TIP3    H159605   4.266   3.698  12.927  1.0105 -0.1489 -1.5818
12730TIP3    H259606   4.146   3.721  13.016  1.8642  0.9133 -0.6879
12731TIP3   OH259607   1.327   4.805   4.741 -0.3017  0.1279  0.2725
12731TIP3    H159608   1.268   4.730   4.750 -0.5527  0.1748 -0.8278
12731TIP3    H259609   1.329   4.844   4.828 -1.9771  0.1825  0.3108
12732TIP3   OH259610   2.432   1.240   2.612 -0.4360 -0.3028 -0.1036
12732TIP3    H159611   2.511   1.186   2.614 -0.2328 -0.0831 -1.3719
12732TIP3    H259612   2.428   1.280   2.699  1.4472  0.5263 -0.3427
12733TIP3   OH259613   3.877   0.146   2.184  0.0282 -0.4075  0.0570
12733TIP3    H159614   3.876   0.233   2.225 -2.0667  0.4556 -1.6235
12733TIP3    H259615   3.827   0.091   2.243  0.0311 -0.0589  0.3883
12734TIP3   OH259616   3.878   0.693   4.504 -0.4705  0.5179  0.4276
12734TIP3    H159617   3.840   0.710   4.418  0.6416 -0.2007 -0.2277
12734TIP3    H259618   3.972   0.688   4.488 -0.2547  0.2488  1.6729
12735TIP3   OH259619   5.490   0.042   1.994  0.7148 -0.1310 -0.6140
12735TIP3    H159620   5.537   0.058   2.076 -2.5439 -0.8230  1.5924
12735TIP3    H259621   5.408   0.090   2.003 -0.5358 -1.6874 -2.6725
12736TIP3   OH259622   1.742   6.195   6.084  0.6488  0.1520  0.4275
12736TIP3    H159623   1.682   6.139   6.034  1.9080  0.5856 -1.6761
12736TIP3    H259624   1.686   6.261   6.124 -0.4401 -0.3567 -0.2132
12737TIP3   OH259625   1.355   6.122   0.136  0.0379 -0.0140 -0.0341
12737TIP3    H159626   1.411   6.083   0.068 -2.1230 -0.3022 -1.7862
12737TIP3    H259627   1.345   6.213   0.110 -1.4207 -0.3027 -0.6284
12738TIP3   OH259628   2.247   1.246   4.175  0.6124 -0.6141 -0.0423
12738TIP3    H159629   2.231   1.155   4.200  0.0853 -0.1827  1.3242
12738TIP3    H259630   2.160   1.286   4.173  0.8450 -0.1274 -0.5824
12739TIP3   OH259631   4.664   2.393   2.924 -0.0720  0.1243 -0.2556
12739TIP3    H159632   4.715   2.380   3.004  0.9254  0.1543 -0.8684
12739TIP3    H259633   4.584   2.437   2.953 -0.0557 -0.5119  0.8146
12740TIP3   OH259634   2.873   6.214  16.780 -0.1231 -0.2983  0.4072
12740TIP3    H159635   2.875   6.291  16.837 -0.3652 -1.5504  2.1680
12740TIP3    H259636   2.783   6.212  16.747  0.2810  0.9970 -0.9028
12741TIP3   OH259637   2.824   1.537   0.967 -0.1007  0.5591  0.5430
12741TIP3    H159638   2.835   1.538   0.872  1.4386 -1.7043  0.6036
12741TIP3    H259639   2.872   1.614   0.997  2.4726 -0.5615 -0.3678
12742TIP3   OH259640   5.793   1.246  12.116 -0.1380 -0.2883 -0.2178
12742TIP3    H159641   5.750   1.228  12.200 -1.7691  2.4340 -0.3250
12742TIP3    H259642   5.870   1.297  12.139  0.0031 -0.4488 -0.3317
12743TIP3   OH259643   1.967   0.508   2.942  0.5376 -0.1130 -0.2038
12743TIP3    H159644   1.940   0.596   2.970  2.5192  0.1470  1.0944
12743TIP3    H259645   2.056   0.519   2.910  0.0885 -1.3399 -2.0121
12744TIP3   OH259646   2.227   0.285  11.200 -0.0048 -0.4173  0.4261
12744TIP3    H159647   2.290   0.223  11.164  0.9722  0.4521  0.5940
12744TIP3    H259648   2.276   0.334  11.265 -1.3425 -0.9132  1.8540
12745TIP3   OH259649   2.957   0.963   3.803  0.3503 -0.3705  0.4485
12745TIP3    H159650   2.925   0.968   3.893  0.9982  0.8237  0.6395
12745TIP3    H259651   2.878   0.959   3.749 -0.1016  0.8111  0.9908
12746TIP3   OH259652   6.242   6.464  11.653 -0.2487 -0.6723  0.5392
12746TIP3    H159653   6.182   6.444  11.725  0.0893 -0.4738  0.8744
12746TIP3    H259654   6.225   6.395  11.588  0.2125 -1.4942  1.2675
12747TIP3   OH259655   5.574   2.056   5.465  0.4268 -0.5027  0.3756
12747TIP3    H159656   5.530   2.099   5.538 -0.7232 -1.3961  0.2258
12747TIP3    H259657   5.654   2.108   5.452  0.6497 -0.3021  2.2211
12748TIP3   OH259658   0.955   3.328   0.699  0.1088  0.4764  0.3530
12748TIP3    H159659   0.942   3.396   0.766  0.2570  2.1827 -1.2668
12748TIP3    H259660   0.874   3.329   0.648  0.4721  0.0702 -0.2463
12749TIP3   OH259661   0.329   0.065  11.442 -0.2857 -1.2360  0.2944
12749TIP3    H159662   0.244   0.096  11.472  0.5573 -0.2688  1.7957
12749TIP3    H259663   0.334   0.092  11.350 -0.6344  0.8556  0.8511
12750TIP3   OH259664   0.348   5.177  14.516 -0.1306  0.1854 -0.7323
12750TIP3    H159665   0.296   5.118  14.461  1.3396 -0.6992 -1.2316
12750TIP3    H259666   0.283   5.232  14.560 -1.3683  1.3162 -3.7212
12751TIP3   OH259667   2.499   5.071  16.983  0.6549 -0.3415  0.1512
12751TIP3    H159668   2.494   5.153  17.032  1.4112 -0.8885  1.1753
12751TIP3    H259669   2.572   5.084  16.923 -0.2398  0.3104 -0.8359
12752TIP3   OH259670   5.049   1.991  11.138  0.5504  0.5275 -0.0174
12752TIP3    H159671   5.102   1.949  11.206  0.1911  1.7461  1.0665
12752TIP3    H259672   5.105   1.992  11.061  1.6717  0.7614  0.7776
12753TIP3   OH259673   4.157   1.470  15.825  0.7822  0.4130 -0.5601
12753TIP3    H159674   4.182   1.562  15.832  1.2839  0.1796  1.1060
12753TIP3    H259675   4.147   1.441  15.916 -0.2699 -0.9396 -1.0781
12754TIP3   OH259676   3.422   1.675  16.810 -0.4589  0.2229 -0.4551
12754TIP3    H159677   3.366   1.749  16.829 -0.3555  0.6106 -1.5616
12754TIP3    H259678   3.459   1.694  16.724  1.7980  0.2472  0.4436
12755TIP3   OH259679   6.316   1.197   1.214 -0.0840  0.0210  0.0468
12755TIP3    H159680   6.318   1.216   1.121  1.9209 -0.1095  0.0164
12755TIP3    H259681   6.380   1.257   1.253  0.2841 -1.0007  1.0917
12756TIP3   OH259682   1.171   6.429   1.644  0.3559 -0.4298  0.8533
12756TIP3    H159683   1.231   6.410   1.571 -1.4393 -1.0467 -0.5272
12756TIP3    H259684   1.117   6.501   1.613 -1.5038 -1.7408  0.8661
12757TIP3   OH259685   1.339   4.167  12.813 -0.1172  0.2909  0.5837
12757TIP3    H159686   1.320   4.260  12.804  2.1901  0.7413 -0.1334
12757TIP3    H259687   1.411   4.151  12.753 -1.8785 -2.4783 -1.0139
12758TIP3   OH259688   2.422   0.092  14.963 -0.2040 -0.3801  0.3938
12758TIP3    H159689   2.512   0.106  14.935 -0.2688  0.0007  0.3692
12758TIP3    H259690   2.386   0.029  14.900 -0.2716  0.2650 -0.2183
12759TIP3   OH259691   1.132   0.513   5.893  0.6586  0.0414 -0.4930
12759TIP3    H159692   1.039   0.523   5.914  0.6191  1.3511 -1.1677
12759TIP3    H259693   1.150   0.420   5.907 -0.9449 -0.3957 -1.1034
12760TIP3   OH259694   2.376   0.560   5.626 -0.1726  0.2581  0.2764
12760TIP3    H159695   2.429   0.609   5.564 -1.1453  1.9366  0.7303
12760TIP3    H259696   2.439   0.530   5.692  0.7060 -0.7098 -0.9537
12761TIP3   OH259697   6.394   3.702  10.670 -0.5777 -0.3340  0.1929
12761TIP3    H159698   6.413   3.610  10.686 -0.6980 -0.4756 -0.4349
12761TIP3    H259699   6.317   3.721  10.724 -0.8649 -0.7416 -0.0727
12762TIP3   OH259700   4.087   6.647   4.404  0.4014 -0.5441 -0.1852
12762TIP3    H159701   4.092   6.553   4.423  0.5224 -0.3698  0.6621
12762TIP3    H259702   4.174   6.669   4.370  1.0006 -0.3575  1.4141
12763TIP3   OH259703   3.355   2.328  13.182  0.4559 -0.5613  0.4429
12763TIP3    H159704   3.336   2.418  13.209 -0.2582 -0.5770  0.0083
12763TIP3    H259705   3.449   2.328  13.163 -0.0872  1.0431 -3.0492
12764TIP3   OH259706   1.624   5.808  13.146 -0.1497  0.1340 -0.0506
12764TIP3    H159707   1.574   5.759  13.082  0.2298  0.0807 -0.3097
12764TIP3    H259708   1.616   5.758  13.227  1.7832 -1.4208 -0.7337
12765TIP3   OH259709   3.775   1.559   6.406  0.4951 -0.0723  0.2076
12765TIP3    H159710   3.751   1.648   6.433  1.0822  0.6023 -1.4006
12765TIP3    H259711   3.695   1.507   6.418  0.0734  0.7214  0.9035
12766TIP3   OH259712   1.310   1.465   2.597  0.2894 -0.0970 -0.0241
12766TIP3    H159713   1.356   1.404   2.654  1.5254  0.0657 -0.8220
12766TIP3    H259714   1.294   1.416   2.516  0.1269  0.2232 -0.1908
12767TIP3   OH259715   5.731   1.923   4.032 -0.5680 -0.1602 -0.1015
12767TIP3    H159716   5.663   1.901   3.969  0.9959 -3.7120 -0.8045
12767TIP3    H259717   5.727   1.853   4.098  2.1475 -0.4093 -0.0511
12768TIP3   OH259718   5.520   4.142  16.215 -0.5938  0.3570 -0.0577
12768TIP3    H159719   5.434   4.129  16.173 -0.7016  2.4566 -0.5909
12768TIP3    H259720   5.565   4.203  16.157  0.5404  0.7528  1.2069
12769TIP3   OH259721   0.662   4.998   5.319 -0.0325  0.3578 -1.1286
12769TIP3    H159722   0.676   4.997   5.414 -0.7624  0.9396 -1.0066
12769TIP3    H259723   0.705   4.918   5.287 -2.1789 -1.3482  0.0142
12770TIP3   OH259724   3.404   2.779  16.429  0.1154 -0.0745 -0.0504
12770TIP3    H159725   3.478   2.834  16.456 -0.3830 -0.8757  3.3864
12770TIP3    H259726   3.327   2.835  16.438  0.0635  0.1820 -1.7594
12771TIP3   OH259727   2.683   6.268  12.139  0.1717  0.0842 -0.3631
12771TIP3    H159728   2.622   6.295  12.209  0.7069  1.4221 -0.3846
12771TIP3    H259729   2.761   6.238  12.186  0.3576  0.5497 -0.3689
12772TIP3   OH259730   0.164   5.718   1.101 -0.0856 -0.4413  0.0804
12772TIP3    H159731   0.159   5.771   1.181  0.1477 -0.4510  0.1035
12772TIP3    H259732   0.075   5.685   1.088 -0.2508  0.0159  0.0234
12773TIP3   OH259733   4.760   5.002  16.717 -0.5018  0.4163  0.1252
12773TIP3    H159734   4.827   4.939  16.691 -0.0201  0.8514  0.3110
12773TIP3    H259735   4.777   5.079  16.664 -0.7083  0.6146  0.3469
12774TIP3   OH259736   0.030   4.526  14.416  0.5373  0.3395 -0.2638
12774TIP3    H159737   0.087   4.453  14.439  0.1786 -0.6397 -2.3007
12774TIP3    H259738   0.077   4.573  14.347 -0.3637  0.5262 -0.7602
12775TIP3   OH259739   3.363   2.413   3.186 -0.0890  0.3858 -0.5137
12775TIP3    H159740   3.418   2.450   3.255  0.0657 -0.6679 -0.0443
12775TIP3    H259741   3.420   2.410   3.109 -0.6659  2.8490 -1.1364
12776TIP3   OH259742   3.104   2.884   4.210 -1.0448 -0.1316 -0.1441
12776TIP3    H159743   3.093   2.933   4.129 -1.2351  1.4966  0.8180
12776TIP3    H259744   3.018   2.888   4.253 -1.1650 -1.6377 -0.1942
12777TIP3   OH259745   5.994   1.129  11.914  0.7026 -0.3647 -0.0550
12777TIP3    H159746   5.918   1.153  11.968 -0.7100 -1.4637 -1.4583
12777TIP3    H259747   6.031   1.212  11.885 -0.4560  0.1930  0.0173
12778TIP3   OH259748   0.264   4.634   0.609 -0.2258  0.5138 -0.5361
12778TIP3    H159749   0.196   4.696   0.584  0.0830  1.9035  1.7372
12778TIP3    H259750   0.303   4.673   0.687 -0.4695 -2.8420  1.4474
12779TIP3   OH259751   1.145   1.348   4.766 -0.3890 -0.6244  0.3934
12779TIP3    H159752   1.095   1.346   4.684 -2.2116 -2.4025  1.4762
12779TIP3    H259753   1.090   1.303   4.829  1.4082 -0.1739  2.3887
12780TIP3   OH259754   4.400   4.469  16.319  0.0783  0.2652  0.3127
12780TIP3    H159755   4.383   4.434  16.407 -1.3901 -0.4887 -0.2489
12780TIP3    H259756   4.398   4.564  16.331  0.7143  0.1867  1.2216
12781TIP3   OH259757   0.800   0.261   3.356  0.1656 -0.3718 -0.3272
12781TIP3    H159758   0.784   0.265   3.451 -0.1410  1.1757 -0.4181
12781TIP3    H259759   0.718   0.230   3.319 -0.2286  0.4857 -0.1958
12782TIP3   OH259760   2.511   4.534  11.573 -0.2785  0.1488 -0.5087
12782TIP3    H159761   2.431   4.510  11.620  0.7131  1.1276  1.8720
12782TIP3    H259762   2.485   4.605  11.515 -1.4143 -0.5512 -0.8679
12783TIP3   OH259763   3.084   4.635  14.983 -0.4015 -0.1795 -0.2989
12783TIP3    H159764   3.156   4.671  14.931 -0.8169 -0.5370 -1.1202
12783TIP3    H259765   3.043   4.570  14.927  1.2178 -3.1142  1.6103
12784TIP3   OH259766   6.759   4.680   2.113 -0.0651  0.0700 -0.0469
12784TIP3    H159767   6.840   4.726   2.091  0.9628 -0.3967  2.4237
12784TIP3    H259768   6.706   4.744   2.161 -0.2945 -0.2068  0.0761
12785TIP3   OH259769   2.775   1.778  16.981  0.2377  0.0976  0.1098
12785TIP3    H159770   2.784   1.775  16.886 -2.3872 -1.5779 -0.1829
12785TIP3    H259771   2.723   1.857  16.998 -0.1832 -0.1672  0.0534
12786TIP3   OH259772   2.050   2.577   5.345 -0.6422  0.2051  0.1995
12786TIP3    H159773   2.137   2.567   5.385 -1.3189 -0.4288  1.5558
12786TIP3    H259774   2.039   2.498   5.293 -0.3251  0.3824 -0.1421
12787TIP3   OH259775   3.803   4.239   6.166 -0.0534  0.0141  0.6275
12787TIP3    H159776   3.834   4.149   6.172 -1.3033 -0.3673  2.2898
12787TIP3    H259777   3.710   4.234   6.190 -0.8518  1.4043 -1.8629
12788TIP3   OH259778   6.757   3.154   6.236  0.8282 -0.4824  0.1922
12788TIP3    H159779   6.699   3.103   6.179  0.9353 -0.8326  0.3980
12788TIP3    H259780   6.844   3.121   6.217  0.8700 -0.5624  0.5252
12789TIP3   OH259781   3.412   4.726   5.041 -0.5167 -0.0214 -0.3254
12789TIP3    H159782   3.405   4.771   5.125  0.2337 -1.4641  0.5480
12789TIP3    H259783   3.451   4.791   4.982 -0.7578  0.9111  0.5121
12790TIP3   OH259784   6.024   0.598   4.798 -0.5974  1.1263  0.0695
12790TIP3    H159785   6.093   0.553   4.846 -2.3923  0.0558  1.8172
12790TIP3    H259786   6.058   0.607   4.709  0.3849 -2.6064 -0.1012
12791TIP3   OH259787   6.004   0.993   3.424  0.3726  0.0266  0.1909
12791TIP3    H159788   6.082   0.982   3.478  0.7282 -0.7178 -0.4686
12791TIP3    H259789   5.982   0.905   3.394  0.2901  0.4315 -1.0134
12792TIP3   OH259790   5.630   2.215  15.928 -0.0143  0.1511  0.3176
12792TIP3    H159791   5.721   2.205  15.898 -0.3914  1.6565 -1.5200
12792TIP3    H259792   5.587   2.134  15.899  0.7919 -0.8074  1.6465
12793TIP3   OH259793   1.406   2.966  11.868 -0.3859 -0.2820 -0.2752
12793TIP3    H159794   1.446   2.880  11.863 -1.0727 -0.5843 -0.6606
12793TIP3    H259795   1.435   3.011  11.789 -0.6670 -0.4398 -0.4685
12794TIP3   OH259796   5.323   2.423  14.510  0.2294  0.1112 -0.3885
12794TIP3    H159797   5.273   2.451  14.433  0.9523 -1.9831 -1.7186
12794TIP3    H259798   5.273   2.349  14.545 -1.3458  2.4124  2.6703
12795TIP3   OH259799   6.686   3.564   6.096 -0.3291  0.1506  0.3875
12795TIP3    H159800   6.752   3.508   6.056  0.6996  0.1146  2.0216
12795TIP3    H259801   6.661   3.518   6.177 -2.5958  0.0256 -0.3146
12796TIP3   OH259802   2.167   2.137   4.866 -0.1104  0.4392  0.0291
12796TIP3    H159803   2.120   2.139   4.782  0.1050 -3.0006 -0.3183
12796TIP3    H259804   2.102   2.108   4.929  0.7179 -1.3392  0.1324
12797TIP3   OH259805   2.228   3.861  12.268  0.2536  0.8928  0.7287
12797TIP3    H159806   2.160   3.799  12.241  1.9119 -1.1458  1.0669
12797TIP3    H259807   2.218   3.869  12.362  1.2316 -0.3793  0.9558
12798TIP3   OH259808   1.518   0.857   1.880 -0.8062 -0.0988 -0.2308
12798TIP3    H159809   1.524   0.895   1.793 -1.4718 -0.2696 -0.3534
12798TIP3    H259810   1.522   0.933   1.939  2.9242 -0.1310 -0.2001
12799TIP3   OH259811   1.010   5.651   5.197  0.1946  0.3612  0.0975
12799TIP3    H159812   1.103   5.670   5.206  0.8459 -1.1968 -2.5251
12799TIP3    H259813   0.968   5.707   5.263  2.8699  1.7629  0.7494
12800TIP3   OH259814   5.798   0.162  16.836  0.2590 -0.0980 -0.5077
12800TIP3    H159815   5.820   0.103  16.764 -0.6635 -1.6445  0.4230
12800TIP3    H259816   5.703   0.169  16.833  0.3013  0.7639 -0.1321
12801TIP3   OH259817   5.163   3.543   3.825 -0.4018  0.1491 -0.2911
12801TIP3    H159818   5.142   3.634   3.845  0.9940  0.3777  0.3030
12801TIP3    H259819   5.160   3.537   3.729 -0.3840  0.8506 -0.3350
12802TIP3   OH259820   0.311   3.648   4.238  0.1953 -0.3282 -0.0396
12802TIP3    H159821   0.328   3.592   4.162  0.8988 -0.6001  0.3067
12802TIP3    H259822   0.347   3.733   4.214  2.4559 -0.9767  0.8011
12803TIP3   OH259823   6.691   0.787   6.366 -0.0877 -0.1486  0.1877
12803TIP3    H159824   6.681   0.837   6.447  2.7029  0.5764  0.1951
12803TIP3    H259825   6.763   0.727   6.384  0.2139 -0.3554 -1.5722
12804TIP3   OH259826   3.075   1.876   0.334 -0.2366 -0.7858 -0.1747
12804TIP3    H159827   3.010   1.934   0.295 -0.1516 -1.0257 -0.6889
12804TIP3    H259828   3.058   1.879   0.428  0.0645  0.4297 -0.1536
12805TIP3   OH259829   1.479   0.497   2.480 -0.6634 -0.8980  0.0750
12805TIP3    H159830   1.503   0.585   2.508  0.7531 -0.3868 -2.4469
12805TIP3    H259831   1.496   0.442   2.556 -0.6697  0.8440  1.3954
12806TIP3   OH259832   0.674   1.781  11.838  0.0235 -0.2010  0.0113
12806TIP3    H159833   0.660   1.688  11.819  1.8286 -0.4934 -0.0218
12806TIP3    H259834   0.675   1.822  11.751  0.2069 -0.3041 -0.0362
12807TIP3   OH259835   1.374   3.031  12.580 -0.0759 -0.1299  0.3550
12807TIP3    H159836   1.459   2.993  12.560 -0.3891 -1.5542  1.5264
12807TIP3    H259837   1.364   3.103  12.518  2.1265  0.3038  0.4399
12808TIP3   OH259838   6.593   1.541  15.655  0.1489  0.3800 -0.0684
12808TIP3    H159839   6.685   1.565  15.643 -0.0511  0.1620 -2.6342
12808TIP3    H259840   6.591   1.492  15.737  1.7972  2.8058  1.5410
12809TIP3   OH259841   0.131   5.549   1.911  0.2193  0.7141 -0.3256
12809TIP3    H159842   0.176   5.612   1.856  0.0409  0.1938 -1.0878
12809TIP3    H259843   0.061   5.599   1.953 -0.4224  0.8698 -1.5321
12810TIP3   OH259844   6.532   0.345  12.572  0.0069  0.0792 -0.1691
12810TIP3    H159845   6.497   0.263  12.537 -0.0346 -1.0265  2.2750
12810TIP3    H259846   6.482   0.360  12.652  1.4953  1.3273  0.5809
12811TIP3   OH259847   0.526   6.292  16.021 -0.0624 -0.0014  0.3148
12811TIP3    H159848   0.498   6.203  16.041 -1.3716  0.2405 -0.3106
12811TIP3    H259849   0.551   6.289  15.928  0.7402  0.0973  0.5167
12812TIP3   OH259850   2.747   1.043   2.070  0.4267 -0.0892 -0.5899
12812TIP3    H159851   2.669   1.023   2.018 -0.0689  1.8399 -0.6457
12812TIP3    H259852   2.715   1.056   2.159  0.5548  1.3583 -0.7327
12813TIP3   OH259853   4.132   3.851   5.490 -0.4744 -0.1774  0.3686
12813TIP3    H159854   4.068   3.818   5.427 -0.3524 -0.6346  0.4835
12813TIP3    H259855   4.205   3.790   5.484  0.1334  0.5800 -0.0669
12814TIP3   OH259856   5.514   1.719  17.178 -0.2369  0.2759 -0.2999
12814TIP3    H159857   5.554   1.806  17.188  0.0835  0.2232 -1.1193
12814TIP3    H259858   5.532   1.694  17.088  3.1740 -2.3974  0.9363
12815TIP3   OH259859   2.174   0.724  13.039 -0.1133 -0.2779 -0.0134
12815TIP3    H159860   2.256   0.679  13.055 -1.2305 -2.6618 -0.6457
12815TIP3    H259861   2.133   0.731  13.125  1.0508  1.7106  0.4490
12816TIP3   OH259862   4.653   3.689   2.246 -0.0273  0.3394  0.0443
12816TIP3    H159863   4.724   3.679   2.183 -0.4572 -0.3317 -0.3490
12816TIP3    H259864   4.688   3.748   2.313  1.0804 -0.3817  0.1290
12817TIP3   OH259865   6.359   6.385   2.634  0.1365 -0.1881 -0.1490
12817TIP3    H159866   6.311   6.382   2.552 -1.9740  1.3868  0.9205
12817TIP3    H259867   6.326   6.464   2.678 -0.7272 -2.2379  3.2584
12818TIP3   OH259868   6.190   2.148  15.286  0.2551 -0.4353  0.6794
12818TIP3    H159869   6.251   2.216  15.257 -2.4870  1.6351 -0.7004
12818TIP3    H259870   6.190   2.156  15.381  0.4266  1.1561  0.5772
12819TIP3   OH259871   6.183   3.682   3.056  0.5333 -0.2545 -0.4872
12819TIP3    H159872   6.184   3.705   2.963  0.8300  2.7889  0.1457
12819TIP3    H259873   6.109   3.731   3.092  0.6363 -1.0923  0.9454
12820TIP3   OH259874   0.279   0.710  11.741  0.3916  0.4885  0.3127
12820TIP3    H159875   0.265   0.639  11.803 -1.3132 -0.4422 -1.0529
12820TIP3    H259876   0.254   0.790  11.788 -3.4996 -0.4372  0.1110
12821TIP3   OH259877   3.081   1.184  11.230 -0.1494  1.1259  0.5484
12821TIP3    H159878   3.063   1.261  11.285  0.5235  1.8693 -0.2348
12821TIP3    H259879   3.025   1.195  11.154 -0.1733  0.7503  0.5105
12822TIP3   OH259880   1.710   4.125  13.040  0.1985  0.1249  0.1895
12822TIP3    H159881   1.751   4.082  13.115  0.0970 -0.4499 -0.0852
12822TIP3    H259882   1.713   4.218  13.062 -0.3111 -0.0786  1.1395
12823TIP3   OH259883   1.685   2.825  12.315  0.0904  0.0344  0.1089
12823TIP3    H159884   1.633   2.819  12.395  0.3357 -0.4632  0.2305
12823TIP3    H259885   1.752   2.757  12.324 -0.0185 -0.1807 -0.6207
12824TIP3   OH259886   1.907   0.915   3.791  0.1269  0.1179  0.2852
12824TIP3    H159887   1.978   0.906   3.728  0.3936 -1.2990  0.7404
12824TIP3    H259888   1.943   0.882   3.873 -0.5416  0.9503  0.9296
12825TIP3   OH259889   3.422   4.326   2.956  0.0793  0.3720  0.4619
12825TIP3    H159890   3.462   4.299   2.874 -0.6753 -2.2029  0.8526
12825TIP3    H259891   3.374   4.406   2.934  1.0723  0.5533 -1.2204
12826TIP3   OH259892   5.044   1.247   4.702 -0.0048  0.0860 -0.1025
12826TIP3    H159893   4.951   1.257   4.680  0.2374  1.0011 -0.7377
12826TIP3    H259894   5.048   1.164   4.750 -0.8036 -1.1911 -2.1029
12827TIP3   OH259895   1.604   5.051  10.877 -0.1377  0.3386  0.2336
12827TIP3    H159896   1.687   5.007  10.894 -1.4314 -2.0983  0.8100
12827TIP3    H259897   1.626   5.121  10.816  1.7832 -2.9741 -3.3658
12828TIP3   OH259898   3.872   5.318   5.062  0.0481  0.4444  0.3887
12828TIP3    H159899   3.886   5.247   5.125 -3.7320 -0.9444 -0.0608
12828TIP3    H259900   3.858   5.396   5.116 -0.1613 -0.1015  1.1410
12829TIP3   OH259901   0.477   3.632   6.185  0.0785  0.1979 -0.0906
12829TIP3    H159902   0.491   3.584   6.266 -1.6564  1.4109  0.9877
12829TIP3    H259903   0.564   3.665   6.161  0.6484 -0.3517  1.1479
12830TIP3   OH259904   4.732   6.409  11.995 -0.2993 -0.4180  0.4614
12830TIP3    H159905   4.813   6.427  11.946 -1.1461  0.0428 -0.8350
12830TIP3    H259906   4.761   6.359  12.071  1.1556 -0.6487 -0.1963
12831TIP3   OH259907   5.338   0.910  14.886  0.5782 -0.3101 -0.2601
12831TIP3    H159908   5.328   0.920  14.981  0.9476 -3.0798  0.1677
12831TIP3    H259909   5.273   0.845  14.862 -0.0486  0.9145 -2.1015
12832TIP3   OH259910   6.132   1.319  16.471  0.0890  0.2820 -0.0151
12832TIP3    H159911   6.166   1.271  16.547  0.9790 -0.0448 -0.5991
12832TIP3    H259912   6.038   1.300  16.471 -0.1653  1.3475  1.7408
12833TIP3   OH259913   4.406   2.131  12.706  0.4484 -0.4898 -0.6366
12833TIP3    H159914   4.441   2.124  12.795 -0.8594  1.6892  0.1263
12833TIP3    H259915   4.445   2.057  12.659  1.7379 -1.2883  1.5407
12834TIP3   OH259916   5.817   4.025  13.810 -0.0210 -0.3525 -0.2523
12834TIP3    H159917   5.831   3.934  13.837  0.3757  0.1225  1.2697
12834TIP3    H259918   5.888   4.044  13.750  0.2629 -0.8598 -0.0806
12835TIP3   OH259919   3.457   5.555   5.472 -0.9672 -0.7000  0.5481
12835TIP3    H159920   3.485   5.531   5.561 -2.1896  0.0961  1.1755
12835TIP3    H259921   3.529   5.607   5.438  0.3732 -2.5940  0.3109
12836TIP3   OH259922   2.744   4.342   3.945 -0.1700 -0.3624 -0.7242
12836TIP3    H159923   2.719   4.250   3.935 -1.0864  0.0958 -3.5547
12836TIP3    H259924   2.839   4.342   3.942 -0.0342 -1.3305  1.3713
12837TIP3   OH259925   0.498   4.543   0.423  0.0367 -0.1770 -0.4551
12837TIP3    H159926   0.442   4.547   0.346 -0.9227 -2.3826  0.0511
12837TIP3    H259927   0.439   4.561   0.496  0.7040  0.7856 -0.1459
12838TIP3   OH259928   5.803   3.343   3.149  0.1284  0.6988 -0.0431
12838TIP3    H159929   5.740   3.326   3.079 -0.0988  2.7938 -0.4018
12838TIP3    H259930   5.788   3.273   3.212 -0.9337 -0.1797 -1.2246
12839TIP3   OH259931   3.465   3.288  14.934 -0.7395 -0.2863  0.0357
12839TIP3    H159932   3.372   3.277  14.913 -0.2223 -2.2840 -1.5554
12839TIP3    H259933   3.511   3.247  14.860  1.3600 -1.0491  1.6719
12840TIP3   OH259934   1.110   6.004   0.146 -0.0637 -0.4074 -0.1509
12840TIP3    H159935   1.119   5.923   0.096 -0.3878 -1.5762  1.6024
12840TIP3    H259936   1.197   6.042   0.147  0.0554 -0.6260 -1.1276
12841TIP3   OH259937   3.966   1.213  15.005  0.0118  0.5448 -0.4183
12841TIP3    H159938   3.914   1.177  14.933 -0.8788  1.3639 -0.1955
12841TIP3    H259939   3.921   1.294  15.030  0.5949  0.5376  0.7266
12842TIP3   OH259940   5.516   4.940  14.786  0.4685  0.3578  0.4556
12842TIP3    H159941   5.424   4.964  14.792 -0.0014 -1.0010 -0.8428
12842TIP3    H259942   5.544   4.974  14.701  0.9683  0.1025  0.5157
12843TIP3   OH259943   2.104   1.278   6.151  0.1491 -0.0185  0.2982
12843TIP3    H159944   2.057   1.218   6.210 -0.6985 -0.8686 -1.1882
12843TIP3    H259945   2.046   1.289   6.076  1.0217  1.3769 -0.2075
12844TIP3   OH259946   3.136   3.986   1.667  0.0193 -0.0806 -0.3317
12844TIP3    H159947   3.174   4.061   1.620 -0.1793 -0.2822 -0.8254
12844TIP3    H259948   3.127   3.919   1.600 -0.2937 -0.3686 -0.0026
12845TIP3   OH259949   5.938   3.101  10.794 -0.3176 -0.7616  0.4557
12845TIP3    H159950   5.977   3.132  10.875  1.8724 -0.0614 -0.7815
12845TIP3    H259951   6.009   3.055  10.749 -0.4119  1.6095 -2.4787
12846TIP3   OH259952   3.668   0.991  11.514  0.2877  0.4204  0.1485
12846TIP3    H159953   3.652   1.076  11.474  1.0125  0.3038 -0.4077
12846TIP3    H259954   3.641   1.002  11.606 -2.3169  0.4047 -0.5434
12847TIP3   OH259955   5.216   2.308  16.273 -0.6297 -0.6054 -0.2703
12847TIP3    H159956   5.209   2.390  16.225  0.6811 -0.5168 -0.3570
12847TIP3    H259957   5.179   2.327  16.359 -2.3195 -0.5577 -0.9611
12848TIP3   OH259958   0.878   0.311  11.650 -0.1819 -0.6014 -0.4547
12848TIP3    H159959   0.793   0.352  11.669 -0.1627 -0.3577 -0.8828
12848TIP3    H259960   0.926   0.316  11.733 -0.6867 -0.9963 -0.1304
12849TIP3   OH259961   2.969   2.577  10.518 -0.1421 -0.0721 -0.0821
12849TIP3    H159962   2.960   2.489  10.480 -0.6942  0.9555 -2.5368
12849TIP3    H259963   2.892   2.586  10.574  0.0512 -1.2166  0.4016
12850TIP3   OH259964   3.149   3.471  12.108  0.1204  0.0481 -0.2637
12850TIP3    H159965   3.177   3.449  12.197  2.6581  0.5948 -0.8442
12850TIP3    H259966   3.127   3.387  12.068 -2.8421 -0.0612  1.3395
12851TIP3   OH259967   5.735   6.691  13.119  0.1930  0.2899  0.5899
12851TIP3    H159968   5.786   6.726  13.192  0.6757  1.4377 -0.2570
12851TIP3    H259969   5.801   6.655  13.059 -0.1096  0.3009  0.2455
12852TIP3   OH259970   0.903   1.090   2.904 -0.0678 -0.5312 -0.4636
12852TIP3    H159971   0.848   1.104   2.827  0.5630  1.1987 -0.6394
12852TIP3    H259972   0.851   1.033   2.960 -2.2292  1.2545 -0.4870
12853TIP3   OH259973   4.691   6.711  11.614  0.0020 -0.2563 -0.1255
12853TIP3    H159974   4.783   6.694  11.593  0.2611 -1.2665  1.6657
12853TIP3    H259975   4.680   6.805  11.595  0.7586 -0.5621 -2.4366
12854TIP3   OH259976   3.571   6.102  13.219  0.3608  0.4446 -0.1461
12854TIP3    H159977   3.521   6.034  13.264  3.4737 -1.6494  0.4457
12854TIP3    H259978   3.605   6.157  13.290 -0.3815  1.4089 -0.5005
12855TIP3   OH259979   2.410   6.660  13.896 -0.0093  0.3932 -0.1733
12855TIP3    H159980   2.348   6.589  13.910  0.8907 -0.3778  0.0087
12855TIP3    H259981   2.436   6.687  13.984  1.0720 -0.3410 -0.2541
12856TIP3   OH259982   6.680   3.157   0.950  0.8431 -0.8365  0.4876
12856TIP3    H159983   6.699   3.065   0.967 -0.6994 -1.1788  0.5449
12856TIP3    H259984   6.669   3.196   1.036 -1.4947 -1.3259  0.4874
12857TIP3   OH259985   4.006   5.110   1.322 -0.0369  0.0612 -0.0665
12857TIP3    H159986   3.933   5.147   1.271 -1.3920  0.3207  1.9705
12857TIP3    H259987   3.975   5.025   1.352  0.7727 -0.1178  0.2989
12858TIP3   OH259988   5.195   2.041   1.402 -0.3140  0.0519 -0.4693
12858TIP3    H159989   5.198   2.005   1.313 -1.5878  3.3686 -2.0105
12858TIP3    H259990   5.109   2.016   1.436 -0.7555  0.7041 -1.0954
12859TIP3   OH259991   4.359   1.272  12.148  0.3664  0.2709 -0.0108
12859TIP3    H159992   4.351   1.356  12.104 -0.0693  0.1798 -0.1118
12859TIP3    H259993   4.425   1.224  12.098  0.0557  0.2612 -0.4163
12860TIP3   OH259994   2.036   5.748  10.554 -0.5061  0.4300 -0.0684
12860TIP3    H159995   1.970   5.770  10.619 -0.8804  0.1789 -0.3561
12860TIP3    H259996   1.992   5.762  10.470 -0.5970 -0.8797 -0.2625
12861TIP3   OH259997   1.865   3.782  13.393  0.6351  0.3824 -0.2423
12861TIP3    H159998   1.864   3.689  13.368 -1.5262  0.5168 -0.8692
12861TIP3    H259999   1.952   3.795  13.432  0.6358 -2.1788  0.8707
12862TIP3   OH260000   2.503   1.971   0.083 -0.3276  0.4841  0.9475
12862TIP3    H160001   2.422   2.020   0.094 -0.9662 -0.5056  0.7630
12862TIP3    H260002   2.484   1.885   0.120  0.2075 -0.1746 -0.2540
12863TIP3   OH260003   3.503   6.371  16.569 -0.4422 -0.2154  0.6536
12863TIP3    H160004   3.487   6.440  16.505 -0.2223 -0.4785  0.3116
12863TIP3    H260005   3.435   6.305  16.551 -0.7451 -0.0201  1.0778
12864TIP3   OH260006   5.848   1.171   5.558 -0.2532  0.5425 -0.3448
12864TIP3    H160007   5.811   1.174   5.470  0.1966  1.2743 -0.5194
12864TIP3    H260008   5.937   1.206   5.547  0.3379 -0.7543  0.1373
12865TIP3   OH260009   2.750   3.359  12.495 -0.0648 -0.4702  0.1778
12865TIP3    H160010   2.820   3.424  12.505  0.0073 -0.6835  1.0970
12865TIP3    H260011   2.739   3.352  12.400 -1.8771  2.8324  0.0021
12866TIP3   OH260012   0.967   0.053   4.993  0.1124  0.1487  0.4933
12866TIP3    H160013   0.982   0.144   4.967 -1.2476  0.6592  1.3868
12866TIP3    H260014   0.922   0.059   5.077 -0.4050 -1.3476  0.3602
12867TIP3   OH260015   6.486   1.717   6.126 -0.3148  0.1773  0.0064
12867TIP3    H160016   6.419   1.703   6.193 -0.1884 -0.0904  0.0791
12867TIP3    H260017   6.470   1.648   6.062 -0.8716  0.8466 -0.5956
12868TIP3   OH260018   1.000   3.570  12.696 -0.1321 -0.6722  0.1665
12868TIP3    H160019   1.079   3.589  12.645 -0.7044 -0.5888 -0.7101
12868TIP3    H260020   1.030   3.570  12.787  0.9344 -0.9374 -0.1682
12869TIP3   OH260021   4.246   4.775   1.290  0.4990 -0.0506  0.0171
12869TIP3    H160022   4.312   4.708   1.271 -0.3291 -0.8334 -0.2302
12869TIP3    H260023   4.245   4.782   1.385  1.3997  0.4503 -0.0103
12870TIP3   OH260024   0.231   1.632   2.374 -0.1412  0.2969  0.0916
12870TIP3    H160025   0.274   1.619   2.290  3.5368  2.8977  1.2973
12870TIP3    H260026   0.215   1.544   2.408  3.1317 -0.9244 -1.1509
12871TIP3   OH260027   5.072   2.714  16.347 -0.1521  0.0523  0.4461
12871TIP3    H160028   5.044   2.647  16.285  0.5106 -0.1057  0.3098
12871TIP3    H260029   4.994   2.767  16.362 -0.1425  0.5623 -1.1221
12872TIP3   OH260030   4.156   1.984  15.777  0.3744  0.0079  0.1701
12872TIP3    H160031   4.062   1.967  15.770  0.2843  0.4756  0.2343
12872TIP3    H260032   4.189   1.978  15.687  0.1926  0.3623  0.0780
12873TIP3   OH260033   5.962   1.996  15.185  0.4010  0.5537  0.2423
12873TIP3    H160034   5.895   2.063  15.171  0.6136  0.7321  0.0836
12873TIP3    H260035   6.038   2.044  15.217  0.0944  0.2289  1.5661
12874TIP3   OH260036   2.387   2.977  13.248  0.0794 -0.6312  0.1282
12874TIP3    H160037   2.307   2.974  13.196 -0.0858  0.3236  0.2958
12874TIP3    H260038   2.421   2.888  13.246  1.1209 -0.2758 -3.2606
12875TIP3   OH260039   4.180   5.104   3.078 -0.2131  0.4888 -0.1162
12875TIP3    H160040   4.147   5.015   3.074 -1.0242  0.8013 -0.6902
12875TIP3    H260041   4.103   5.158   3.093  0.3081  1.0747  0.5353
12876TIP3   OH260042   1.602   2.647   2.137  0.5832  0.1500  0.0426
12876TIP3    H160043   1.516   2.610   2.156  0.0663  0.9443 -0.6894
12876TIP3    H260044   1.609   2.645   2.042  1.6055 -0.3876  0.1087
12877TIP3   OH260045   1.014   4.173   5.474 -0.1128  0.3566 -0.0720
12877TIP3    H160046   0.995   4.086   5.437  2.0243  0.1606 -0.8575
12877TIP3    H260047   0.989   4.166   5.566  0.1214 -1.1308 -0.0964
12878TIP3   OH260048   5.656   6.214   5.660 -0.4999  0.2311 -0.0638
12878TIP3    H160049   5.699   6.161   5.593 -0.4123  1.1153 -0.7274
12878TIP3    H260050   5.584   6.257   5.614 -1.5162 -0.4744  0.8151
12879TIP3   OH260051   3.990   6.691  14.325 -0.8539 -0.2602 -0.2482
12879TIP3    H160052   4.040   6.686  14.243  0.5024  0.7297  0.4639
12879TIP3    H260053   3.981   6.600  14.353  1.1267 -0.4777 -0.1234
12880TIP3   OH260054   4.094   3.843   2.278 -0.7431  0.4778 -0.4464
12880TIP3    H160055   4.017   3.786   2.284 -0.4314  0.1289  0.2685
12880TIP3    H260056   4.144   3.808   2.205 -1.8499  1.4476 -1.7440
12881TIP3   OH260057   3.197   4.846  14.020 -0.3864 -0.2910  0.4239
12881TIP3    H160058   3.280   4.843  13.972 -0.8035 -0.6004 -0.2870
12881TIP3    H260059   3.179   4.755  14.043 -1.1677 -0.3945 -0.5495
12882TIP3   OH260060   5.044   2.829  12.639 -0.5875  0.0738 -0.0487
12882TIP3    H160061   5.078   2.857  12.554 -0.5730 -0.1560 -0.1180
12882TIP3    H260062   5.094   2.750  12.660 -0.1105  0.5025  0.4881
12883TIP3   OH260063   5.264   1.300  15.976  0.5741 -0.4693 -0.4647
12883TIP3    H160064   5.184   1.270  15.932 -0.2599  0.7788  0.1338
12883TIP3    H260065   5.269   1.248  16.055 -1.2151  1.2598  0.8903
12884TIP3   OH260066   0.175   4.329   2.387  0.3526  0.0358 -0.7565
12884TIP3    H160067   0.221   4.321   2.303 -1.6466 -0.0595 -1.9056
12884TIP3    H260068   0.092   4.372   2.365 -1.1217 -1.8116  0.8290
12885TIP3   OH260069   5.729   1.343   1.697 -0.1602  0.0135 -0.3254
12885TIP3    H160070   5.731   1.439   1.702  0.4596 -0.0267  0.6938
12885TIP3    H260071   5.650   1.319   1.745 -0.6149  0.0335 -1.0646
12886TIP3   OH260072   1.816   0.672  11.177 -0.1208 -0.2610  0.3392
12886TIP3    H160073   1.800   0.612  11.250  0.8635  1.1210  1.7416
12886TIP3    H260074   1.854   0.750  11.217 -0.2011  0.8324 -1.5790
12887TIP3   OH260075   1.807   6.399   3.718  0.7304 -0.0884 -0.3471
12887TIP3    H160076   1.897   6.368   3.709  1.6098  2.0202  0.3717
12887TIP3    H260077   1.801   6.425   3.810 -0.9803 -1.1848 -0.1262
12888TIP3   OH260078   1.673   0.976   5.068  0.2371 -0.3992 -0.6705
12888TIP3    H160079   1.633   1.006   5.150  0.6795  0.4409 -0.7554
12888TIP3    H260080   1.725   0.899   5.094 -1.0429 -1.2387 -0.4870
12889TIP3   OH260081   4.412   6.643   1.188  0.1064 -0.5960  0.3024
12889TIP3    H160082   4.438   6.589   1.114  3.5484 -0.1638  1.0365
12889TIP3    H260083   4.333   6.601   1.222  0.3286 -2.7274 -1.5753
12890TIP3   OH260084   5.486   5.511  11.398  0.4567 -1.2085  0.0807
12890TIP3    H160085   5.426   5.578  11.432  0.4892 -0.5940 -1.0055
12890TIP3    H260086   5.506   5.456  11.473 -1.2007 -1.2232  0.5614
12891TIP3   OH260087   3.819   6.633   4.940  0.3369  0.1780  0.5668
12891TIP3    H160088   3.783   6.593   4.861 -1.3550  0.7595  0.9991
12891TIP3    H260089   3.870   6.563   4.981 -1.2786 -1.0893  0.5261
12892TIP3   OH260090   2.552   5.579   0.832 -0.3839  0.1662 -0.2499
12892TIP3    H160091   2.569   5.506   0.892 -0.4956 -0.2662 -0.7461
12892TIP3    H260092   2.591   5.552   0.749  2.0000  1.8061  0.2380
12893TIP3   OH260093   5.040   3.983   2.441  0.3964 -0.0691  0.5298
12893TIP3    H160094   5.066   4.044   2.372  0.2627  1.2995  1.6359
12893TIP3    H260095   5.022   3.901   2.396  1.4143  0.4656 -0.9045
12894TIP3   OH260096   0.557   0.113  16.754 -0.4186  0.2029  0.7174
12894TIP3    H160097   0.569   0.089  16.846 -0.6306 -0.4524  0.5762
12894TIP3    H260098   0.490   0.053  16.722  1.8426 -1.7042 -0.7059
12895TIP3   OH260099   0.146   2.507  16.754  0.3607 -0.4985 -0.1546
12895TIP3    H160100   0.131   2.571  16.824  0.2312 -0.5743 -0.1142
12895TIP3    H260101   0.082   2.439  16.770 -1.2472  0.5746 -1.7011
12896TIP3   OH260102   5.807   0.162   1.823  0.7317  0.3306  0.8020
12896TIP3    H160103   5.838   0.203   1.903 -1.9505  2.0392  1.0995
12896TIP3    H260104   5.762   0.082   1.851 -2.4175  2.1538  1.5020
12897TIP3   OH260105   4.846   5.569   3.426 -0.8969  0.0955  0.4152
12897TIP3    H160106   4.791   5.600   3.354 -1.4989  0.7371  1.1350
12897TIP3    H260107   4.849   5.643   3.488  0.6122 -0.0005  0.4893
12898TIP3   OH260108   3.049   2.368  10.979 -0.4046 -0.2236 -0.4033
12898TIP3    H160109   2.973   2.347  10.925  0.0549  0.1645 -1.2225
12898TIP3    H260110   3.033   2.457  11.009 -0.8753 -0.6031  0.4848
12899TIP3   OH260111   4.756   5.883  10.697  0.4080 -0.3177 -0.7147
12899TIP3    H160112   4.797   5.914  10.616 -0.8551  1.4631 -0.7221
12899TIP3    H260113   4.791   5.941  10.765  0.7567 -1.2218 -0.1059
12900TIP3   OH260114   3.292   4.670   3.782  0.7101  0.1693  0.2588
12900TIP3    H160115   3.372   4.624   3.759  0.2357 -1.0467  0.9466
12900TIP3    H260116   3.321   4.745   3.834  1.3264 -1.2814  2.1123
12901TIP3   OH260117   4.255   5.880   0.382 -0.5723  0.4534  0.0788
12901TIP3    H160118   4.183   5.926   0.337 -1.0197  0.9195  1.2221
12901TIP3    H260119   4.333   5.902   0.332 -0.8830  1.9385  0.1932
12902TIP3   OH260120   4.726   4.386   5.699 -0.3254  0.6043  0.0542
12902TIP3    H160121   4.695   4.298   5.677  2.1294 -0.2587 -0.2935
12902TIP3    H260122   4.673   4.413   5.773 -0.0524 -1.8999  1.2636
12903TIP3   OH260123   2.329   6.466   5.921 -0.4929  0.3407 -0.1950
12903TIP3    H160124   2.248   6.510   5.894 -0.7496 -0.2148 -0.3446
12903TIP3    H260125   2.305   6.418   6.000 -0.6342 -0.8114 -0.9191
12904TIP3   OH260126   1.063   2.216  14.395 -0.5101 -0.0405  0.0442
12904TIP3    H160127   1.131   2.282  14.382 -1.3811  0.7818 -0.4799
12904TIP3    H260128   1.045   2.219  14.489 -2.3404  2.3717 -0.2846
12905TIP3   OH260129   0.961   1.970   4.725  0.3121  0.4184  0.3097
12905TIP3    H160130   0.920   1.964   4.811  3.1916 -0.2815  1.7853
12905TIP3    H260131   0.994   2.060   4.720 -0.3490  0.6312 -0.3326
12906TIP3   OH260132   3.750   4.151   4.815 -0.1943 -0.3745 -0.2145
12906TIP3    H160133   3.840   4.123   4.801  0.3537 -0.1995  2.4515
12906TIP3    H260134   3.751   4.245   4.793  0.6546 -0.0544  1.0514
12907TIP3   OH260135   3.372   3.552   4.072 -0.4320  0.3695 -0.9310
12907TIP3    H160136   3.282   3.557   4.104 -0.4540  0.7485 -1.0529
12907TIP3    H260137   3.426   3.560   4.150 -0.4921  0.8592 -0.9392
12908TIP3   OH260138   2.276   2.150  11.206  0.8355  0.5827 -0.5595
12908TIP3    H160139   2.261   2.223  11.267  0.6442  0.9591 -1.0529
12908TIP3    H260140   2.295   2.075  11.263  1.4556  1.1083 -0.0517
12909TIP3   OH260141   3.959   4.736  14.620 -0.4785 -0.5300 -0.1434
12909TIP3    H160142   3.968   4.641  14.629 -1.6496 -0.5719  0.7135
12909TIP3    H260143   4.032   4.771  14.671  0.1106 -0.9571 -0.6686
12910TIP3   OH260144   6.521   4.687  15.544 -0.3318 -0.1943  0.3336
12910TIP3    H160145   6.563   4.769  15.516 -1.0747 -0.0311 -0.3212
12910TIP3    H260146   6.572   4.618  15.501 -1.2975  0.0407 -1.2702
12911TIP3   OH260147   4.280   5.537   2.455  0.3126 -0.3825 -0.4730
12911TIP3    H160148   4.362   5.587   2.453  0.1955 -0.1883 -0.4359
12911TIP3    H260149   4.296   5.467   2.518 -0.1097  0.6301  0.8027
12912TIP3   OH260150   6.549   2.855   5.408 -0.3135 -0.2854  0.1751
12912TIP3    H160151   6.518   2.767   5.431  1.9353 -0.9476  1.0068
12912TIP3    H260152   6.549   2.903   5.491 -0.9555  0.3304 -0.1702
12913TIP3   OH260153   1.759   5.735   1.351 -0.0224 -0.3429 -0.1857
12913TIP3    H160154   1.745   5.763   1.441  0.3368  2.5129 -0.9327
12913TIP3    H260155   1.839   5.683   1.354  1.2358  1.5644  0.8746
12914TIP3   OH260156   5.369   2.538   1.994  0.8467 -0.2706 -0.0882
12914TIP3    H160157   5.365   2.623   2.037 -0.0223 -1.3136  2.0062
12914TIP3    H260158   5.299   2.539   1.929  0.6092  0.4632  0.1842
12915TIP3   OH260159   5.142   1.397  14.712  0.2796 -0.0536  0.2898
12915TIP3    H160160   5.077   1.415  14.780 -2.4818 -0.8904 -1.9306
12915TIP3    H260161   5.188   1.319  14.743  0.7552  0.9089  2.2008
12916TIP3   OH260162   5.392   2.153  14.727 -0.8516 -0.5146  0.0785
12916TIP3    H160163   5.342   2.098  14.788 -0.9693 -0.4759  0.0160
12916TIP3    H260164   5.480   2.154  14.763 -0.6179 -1.5375 -0.4309
12917TIP3   OH260165   4.486   5.697  16.342 -0.3398 -0.4219 -0.5159
12917TIP3    H160166   4.505   5.739  16.258  2.0738 -0.4103 -0.0352
12917TIP3    H260167   4.571   5.667  16.374 -1.3378 -1.3551  1.4473
12918TIP3   OH260168   4.433   5.182  14.565 -0.4606 -0.2123 -0.5423
12918TIP3    H160169   4.432   5.128  14.644  0.1156 -1.3966 -1.3070
12918TIP3    H260170   4.401   5.123  14.496  1.4998 -0.0640 -1.6617
12919TIP3   OH260171   2.336   6.415   1.702  0.2153 -0.0015  0.0598
12919TIP3    H160172   2.356   6.443   1.792 -1.3953 -0.6592  0.6561
12919TIP3    H260173   2.401   6.346   1.685 -0.9148 -1.5658  1.6622
12920TIP3   OH260174   5.360   6.706  11.935 -0.5793  0.1871  0.0979
12920TIP3    H160175   5.444   6.714  11.890  0.6333 -2.1218  1.7115
12920TIP3    H260176   5.295   6.732  11.870  1.3418  2.0448 -1.2221
12921TIP3   OH260177   6.060   2.417  13.361  0.1567 -0.1178  0.4206
12921TIP3    H160178   6.008   2.495  13.344  1.9516  1.0331 -0.1080
12921TIP3    H260179   6.114   2.439  13.437  1.5412 -0.3523 -0.4561
12922TIP3   OH260180   5.547   1.596  15.889  0.0380  0.2181  0.0764
12922TIP3    H160181   5.624   1.566  15.842 -0.5551 -1.3955  0.0651
12922TIP3    H260182   5.572   1.594  15.981 -0.1982 -1.0067  0.1247
12923TIP3   OH260183   1.969   1.623   3.703 -0.0466 -0.1248 -0.2039
12923TIP3    H160184   1.969   1.574   3.621  1.7639  0.0115 -0.3215
12923TIP3    H260185   2.040   1.686   3.694 -2.2055  2.5075 -0.0075
12924TIP3   OH260186   4.445   1.387   1.662 -0.1599  0.1144 -0.6410
12924TIP3    H160187   4.505   1.408   1.590  1.2073  1.3058  0.7681
12924TIP3    H260188   4.498   1.340   1.725 -1.2591 -0.6205 -0.2246
12925TIP3   OH260189   1.890   6.319   0.505  0.4806 -0.3541 -0.0353
12925TIP3    H160190   1.870   6.253   0.571  0.9961 -0.1900  0.2901
12925TIP3    H260191   1.984   6.336   0.516  0.9861 -1.6049 -1.9827
12926TIP3   OH260192   1.023   5.551  11.175 -0.1987  0.2999  0.2950
12926TIP3    H160193   0.997   5.501  11.097  2.3836 -1.1660  0.2515
12926TIP3    H260194   0.978   5.635  11.165 -2.5800 -1.0112 -1.0244
12927TIP3   OH260195   3.625   1.915  12.824  0.0219 -0.3242  0.8816
12927TIP3    H160196   3.561   1.987  12.823 -1.0191 -1.2249  1.1255
12927TIP3    H260197   3.689   1.942  12.890  1.6535  2.0145 -1.4228
12928TIP3   OH260198   2.047   3.462   2.814 -0.3593  0.4046 -0.4578
12928TIP3    H160199   1.970   3.519   2.819  0.2922  1.2544  0.4745
12928TIP3    H260200   2.101   3.501   2.745 -0.1034  0.6980 -0.1006
12929TIP3   OH260201   3.970   0.971   0.790  0.3281  0.6669  0.0371
12929TIP3    H160202   3.876   0.991   0.785  0.4860  1.0860 -1.8683
12929TIP3    H260203   4.007   1.011   0.712  1.9150 -0.5902  0.1027
12930TIP3   OH260204   1.285   4.815   1.738 -0.1900  0.1095 -0.0447
12930TIP3    H160205   1.316   4.906   1.739  1.6100 -0.4255 -1.6062
12930TIP3    H260206   1.192   4.822   1.717  0.3601  1.5550 -2.4316
12931TIP3   OH260207   6.751   4.024  13.683 -0.4855  0.1705  0.0984
12931TIP3    H160208   6.810   4.045  13.611  0.2785  0.1086  0.6947
12931TIP3    H260209   6.665   4.055  13.654 -0.0580  0.7632 -0.5530
12932TIP3   OH260210   2.902   6.760  11.548 -0.5404  0.4227 -0.0549
12932TIP3    H160211   2.830   6.715  11.591 -0.7053  0.7198 -0.0143
12932TIP3    H260212   2.861   6.838  11.510 -0.6616 -0.4543 -1.8232
12933TIP3   OH260213   6.604   1.122   1.592 -0.2927  0.3348  0.1784
12933TIP3    H160214   6.595   1.217   1.598 -0.0861  0.3337  0.4960
12933TIP3    H260215   6.655   1.097   1.669 -0.7870 -0.0968  0.3715
12934TIP3   OH260216   3.121   4.030   6.110  0.8175 -0.6243 -0.5082
12934TIP3    H160217   3.097   4.050   6.019  1.1521 -1.7924 -0.8774
12934TIP3    H260218   3.207   4.071   6.122 -0.0719  1.1989 -0.0716
12935TIP3   OH260219   0.476   1.552   0.994  0.5282  0.1037 -0.4198
12935TIP3    H160220   0.522   1.631   1.022  0.7675 -0.0284 -0.4376
12935TIP3    H260221   0.462   1.563   0.900 -0.1536  0.4857 -0.2861
12936TIP3   OH260222   2.544   6.235  17.047 -0.1736  0.2007  0.5903
12936TIP3    H160223   2.591   6.307  17.005  1.1425  0.1571  1.9311
12936TIP3    H260224   2.518   6.270  17.132  1.3732 -1.1877  1.6840
12937TIP3   OH260225   2.694   4.456   5.793 -0.3684 -0.6510  0.2398
12937TIP3    H160226   2.761   4.524   5.804 -0.3162 -0.5289 -0.6907
12937TIP3    H260227   2.637   4.465   5.869 -2.5975  2.9829 -1.6017
12938TIP3   OH260228   3.068   0.897  15.497  0.4214 -0.4923 -0.1913
12938TIP3    H160229   2.993   0.850  15.459  0.6172 -0.1407 -1.0189
12938TIP3    H260230   3.104   0.836  15.561 -0.2569 -0.8699 -0.1602
12939TIP3   OH260231   2.166   2.293   1.280  0.1049 -0.4507 -0.7143
12939TIP3    H160232   2.075   2.281   1.306  0.8344 -0.8507  1.8702
12939TIP3    H260233   2.189   2.381   1.310  0.2875  0.1219 -2.4039
12940TIP3   OH260234   6.775   4.510   4.520 -0.5870  0.2548 -0.7080
12940TIP3    H160235   6.780   4.600   4.554 -0.7039 -0.1716  0.4592
12940TIP3    H260236   6.866   4.483   4.513 -0.5412  0.5390 -1.2916
12941TIP3   OH260237   3.344   3.696   0.972 -0.4145 -0.2648  0.1956
12941TIP3    H160238   3.253   3.712   0.947  0.3393  0.7447 -2.2154
12941TIP3    H260239   3.355   3.743   1.055 -0.8806  3.9542 -1.8768
12942TIP3   OH260240   2.899   0.060   1.193  0.3197  0.3794  0.4043
12942TIP3    H160241   2.920  -0.031   1.211 -2.2441 -1.0723 -2.8882
12942TIP3    H260242   2.978   0.097   1.156  0.2778 -1.8418 -2.1619
12943TIP3   OH260243   4.232   0.388  13.509 -0.1389  0.0267 -1.0476
12943TIP3    H160244   4.211   0.481  13.503 -0.4805  0.1517  1.2570
12943TIP3    H260245   4.225   0.368  13.602  1.0306 -2.0646 -1.3571
12944TIP3   OH260246   1.028   0.317   5.475 -0.1376  0.0631 -0.3177
12944TIP3    H160247   0.945   0.271   5.460 -0.8146  0.6631  1.3426
12944TIP3    H260248   1.081   0.254   5.525  0.3366 -0.2298 -1.1702
12945TIP3   OH260249   5.581   1.983   5.947  0.1288 -0.2428 -0.3129
12945TIP3    H160250   5.566   1.973   6.041  0.5572 -0.3509 -0.2502
12945TIP3    H260251   5.494   1.987   5.908 -0.0493  0.2542  0.1348
12946TIP3   OH260252   5.829   2.610  14.066 -0.2544  0.2406 -0.1180
12946TIP3    H160253   5.846   2.697  14.031 -0.9736  0.0400 -1.0114
12946TIP3    H260254   5.734   2.607  14.077 -0.1054  0.0292  1.1696
12947TIP3   OH260255   0.714   4.256   0.814 -0.0666  0.1870  0.1110
12947TIP3    H160256   0.643   4.308   0.853  0.6345  0.1042  1.5782
12947TIP3    H260257   0.694   4.255   0.720 -0.8157  2.0066  0.2015
12948TIP3   OH260258   3.095   5.575  12.024  0.5358  0.2660 -0.2363
12948TIP3    H160259   3.044   5.587  12.104 -0.1495  1.2255 -0.8091
12948TIP3    H260260   3.184   5.600  12.050  0.5151 -0.3413  0.4666
12949TIP3   OH260261   5.020   1.336  12.440 -0.0931 -0.5171  0.7101
12949TIP3    H160262   4.932   1.333  12.476 -0.7185 -2.5242 -0.8011
12949TIP3    H260263   5.066   1.263  12.480  0.7679  0.2070  1.0996
12950TIP3   OH260264   0.274   5.487   6.169 -0.3075 -0.2939  0.1836
12950TIP3    H160265   0.226   5.499   6.251 -0.2020  3.6226 -0.1636
12950TIP3    H260266   0.364   5.513   6.190 -0.0856 -0.1019 -0.9640
12951TIP3   OH260267   0.012   1.289  16.926  0.0746 -0.3718  0.3506
12951TIP3    H160268  -0.070   1.298  16.878  0.7420 -0.6844 -0.8784
12951TIP3    H260269  -0.014   1.251  17.011 -1.1246  0.2446  0.2780
12952TIP3   OH260270   5.083   1.680   5.575  0.0433  0.3445  0.1633
12952TIP3    H160271   5.084   1.663   5.669  2.6132  1.7965  0.5120
12952TIP3    H260272   5.032   1.760   5.565  1.4778  1.3690  0.6638
12953TIP3   OH260273   0.677   2.323  16.870  0.2524 -0.2193 -0.4941
12953TIP3    H160274   0.596   2.361  16.904  0.4738  0.3890 -0.6360
12953TIP3    H260275   0.747   2.371  16.915  0.5973 -2.5179  1.6592
12954TIP3   OH260276   5.724   5.147  12.261 -0.4667  0.0949  0.4505
12954TIP3    H160277   5.684   5.099  12.333  0.0091  0.3179  0.8746
12954TIP3    H260278   5.746   5.080  12.196 -0.5976 -0.1524  0.6615
12955TIP3   OH260279   0.360   6.045   2.788  0.5222  0.1210  0.0649
12955TIP3    H160280   0.426   5.979   2.809 -1.3458 -1.9560 -0.2412
12955TIP3    H260281   0.326   6.020   2.702  1.0283  2.6234 -0.9690
12956TIP3   OH260282   6.562   2.339  13.443  0.2659 -0.4211 -0.1036
12956TIP3    H160283   6.636   2.285  13.470 -0.8105 -1.7500  0.2805
12956TIP3    H260284   6.515   2.358  13.524  0.7437  1.3594 -0.1852
12957TIP3   OH260285   6.674   5.987  13.680  0.5555 -0.8698  0.2261
12957TIP3    H160286   6.607   5.957  13.741  0.2395 -3.3969 -1.2519
12957TIP3    H260287   6.735   5.914  13.672  1.8372  0.2456 -0.7783
12958TIP3   OH260288   5.642   3.798   4.252  0.2084 -0.4372  0.2660
12958TIP3    H160289   5.601   3.867   4.303  0.1769 -0.1424 -0.1540
12958TIP3    H260290   5.714   3.841   4.206  1.1309 -0.9850  1.1443
12959TIP3   OH260291   4.348   2.064  11.553 -0.1557  0.1229  0.0734
12959TIP3    H160292   4.400   2.137  11.520 -0.1372  0.2568  0.3894
12959TIP3    H260293   4.298   2.101  11.626 -1.6485  0.3144 -1.0021
12960TIP3   OH260294   2.843   6.614  12.152 -0.6178 -0.0131  0.4763
12960TIP3    H160295   2.812   6.576  12.070  0.5785  2.7148 -1.3808
12960TIP3    H260296   2.763   6.632  12.202 -1.4393 -0.7779 -0.5301
12961TIP3   OH260297   5.392   3.101   2.956  0.4553  0.0083 -0.1515
12961TIP3    H160298   5.302   3.123   2.979  0.6543  0.9760 -0.2565
12961TIP3    H260299   5.445   3.145   3.022  0.8465 -0.8200  0.0963
12962TIP3   OH260300   3.538   1.390   3.192  0.5594 -0.0005 -0.1730
12962TIP3    H160301   3.454   1.401   3.237  0.8095  2.8205 -0.1920
12962TIP3    H260302   3.579   1.314   3.235 -1.2666 -0.3916  0.9901
12963TIP3   OH260303   2.961   5.986  16.642 -0.2857 -0.1167 -0.4400
12963TIP3    H160304   2.890   5.995  16.578 -1.0074 -1.3349  0.1586
12963TIP3    H260305   2.961   6.070  16.689 -2.0675 -0.4623  0.2614
12964TIP3   OH260306   4.992   2.888   0.894 -0.1260 -0.3432  0.0043
12964TIP3    H160307   4.982   2.970   0.845  2.0181 -1.0696 -1.8163
12964TIP3    H260308   4.968   2.819   0.832  4.5078 -1.4193 -0.9780
12965TIP3   OH260309   2.914   0.914   0.237  0.1655 -0.2178  0.3059
12965TIP3    H160310   2.964   0.942   0.160 -0.8978 -1.4696 -0.8979
12965TIP3    H260311   2.975   0.858   0.286  0.3376 -0.7722 -0.5219
12966TIP3   OH260312   1.940   6.493  13.274  0.1475 -0.1821 -0.7347
12966TIP3    H160313   1.899   6.492  13.361 -0.4794  0.1261 -1.0189
12966TIP3    H260314   1.899   6.419  13.228  1.7641 -1.4651 -0.2100
12967TIP3   OH260315   5.776   5.254  15.770  0.1964  0.0603  0.4217
12967TIP3    H160316   5.697   5.287  15.812  0.8874 -1.2695  2.9713
12967TIP3    H260317   5.771   5.159  15.779  1.7484 -0.0926  0.0124
12968TIP3   OH260318   0.451   0.789  16.370  0.1807  0.3144  0.4840
12968TIP3    H160319   0.510   0.728  16.415  1.5422  1.6925  0.6582
12968TIP3    H260320   0.470   0.874  16.409 -3.1010  0.6293  1.6810
12969TIP3   OH260321   3.518   3.274  13.821 -0.3133  0.2261  0.2731
12969TIP3    H160322   3.451   3.219  13.781  0.4378 -1.6341  1.4595
12969TIP3    H260323   3.529   3.239  13.909  2.2112  0.4637  0.1244
12970TIP3   OH260324   0.223   6.472   1.643  0.0841 -0.0181  0.1193
12970TIP3    H160325   0.265   6.549   1.683  4.0150 -0.8539 -1.8556
12970TIP3    H260326   0.129   6.489   1.651  0.7209  4.1879  1.2476
12971TIP3   OH260327   1.736   6.336   0.035 -0.1941  0.5005  0.2017
12971TIP3    H160328   1.770   6.366   0.120  0.8180 -0.0228  0.0030
12971TIP3    H260329   1.725   6.242   0.046 -0.1695  0.4494 -0.2088
12972TIP3   OH260330   1.884   3.347  12.225  0.3243 -0.1842  0.0257
12972TIP3    H160331   1.825   3.306  12.288  0.4542 -1.3313 -0.5840
12972TIP3    H260332   1.883   3.289  12.149  1.1210  0.5428 -0.5636
12973TIP3   OH260333   1.900   0.167  15.298  0.2378 -0.1558 -0.4645
12973TIP3    H160334   1.817   0.166  15.250 -0.4123 -0.0962  0.6315
12973TIP3    H260335   1.911   0.077  15.328 -1.2802  0.5259  2.4331
12974TIP3   OH260336   2.762   3.277  14.254  0.3994 -1.0093  0.3393
12974TIP3    H160337   2.733   3.186  14.259 -0.2804 -0.8890 -0.9540
12974TIP3    H260338   2.732   3.307  14.168 -1.9253  1.3161  1.8323
12975TIP3   OH260339   2.852   0.329  17.073 -0.4046 -0.3262 -0.3501
12975TIP3    H160340   2.788   0.337  17.144 -0.4922 -0.9522 -0.3577
12975TIP3    H260341   2.937   0.327  17.118 -0.0995  3.4942 -0.4521
12976TIP3   OH260342   3.552   1.086  12.473 -0.4610  0.3365 -0.1357
12976TIP3    H160343   3.596   1.125  12.549  0.0889  1.6756 -1.0960
12976TIP3    H260344   3.622   1.039  12.428 -0.7425 -0.2785  0.0620
12977TIP3   OH260345   5.789   6.347   4.905 -0.1186 -0.1872  0.0233
12977TIP3    H160346   5.789   6.442   4.922 -0.5398 -0.3907  1.2511
12977TIP3    H260347   5.836   6.338   4.822 -0.7938  1.1703 -0.5448
12978TIP3   OH260348   2.586   1.976  13.779  0.1501 -0.2340 -0.1626
12978TIP3    H160349   2.621   2.064  13.767 -1.8370  0.6272 -0.0133
12978TIP3    H260350   2.575   1.941  13.691  0.2561 -0.0422 -0.2514
12979TIP3   OH260351   3.862   2.218   3.834  0.3569 -0.5453  0.0521
12979TIP3    H160352   3.897   2.264   3.757 -1.4995  0.8298 -0.0321
12979TIP3    H260353   3.838   2.288   3.894 -0.6158 -1.5105  0.8076
12980TIP3   OH260354   4.075   6.050   2.337 -0.7979  0.9901  0.0702
12980TIP3    H160355   4.148   5.991   2.357 -0.7068  0.9253 -0.4555
12980TIP3    H260356   4.025   6.004   2.270 -1.6878  0.7462  0.8674
12981TIP3   OH260357   5.837   4.730  14.629  0.1489 -0.0830 -0.2074
12981TIP3    H160358   5.884   4.756  14.708 -0.1737 -3.0269  1.0960
12981TIP3    H260359   5.788   4.809  14.603  0.1909  0.9832  2.5869
12982TIP3   OH260360   0.839   5.144   3.254 -0.0315 -0.2955  0.5481
12982TIP3    H160361   0.842   5.239   3.239  1.7305 -0.4331 -0.1509
12982TIP3    H260362   0.881   5.106   3.176 -1.4075 -1.7113  0.4492
12983TIP3   OH260363   5.773   2.699   4.042 -0.6460 -0.1743  0.2158
12983TIP3    H160364   5.864   2.694   4.073 -0.3781 -0.8101 -0.6196
12983TIP3    H260365   5.742   2.785   4.070  0.5342  0.4506 -0.3225
12984TIP3   OH260366   0.148   5.095  15.828  0.0100  0.2255 -0.3969
12984TIP3    H160367   0.170   5.004  15.809  2.6296  0.7144 -0.1817
12984TIP3    H260368   0.101   5.125  15.750 -2.2841 -1.6604  0.1685
12985TIP3   OH260369   2.848   6.266  12.692 -0.0232 -0.0383 -0.0472
12985TIP3    H160370   2.933   6.280  12.650  0.3390  0.0944  0.7132
12985TIP3    H260371   2.796   6.342  12.666 -0.8595 -1.3889 -2.7422
12986TIP3   OH260372   2.199   3.043  10.671  0.3575 -0.2115 -0.1202
12986TIP3    H160373   2.211   3.132  10.639 -0.0088 -0.2246 -0.2976
12986TIP3    H260374   2.116   3.046  10.718  0.4872 -0.3907  0.1219
12987TIP3   OH260375   4.063   3.573  14.104  0.5456 -0.5230 -0.2089
12987TIP3    H160376   4.052   3.520  14.184 -0.6035  0.7283  0.4908
12987TIP3    H260377   3.983   3.557  14.054 -0.3408  1.3458  0.5204
12988TIP3   OH260378   0.146   4.722   5.664 -0.2159  0.4536 -0.6334
12988TIP3    H160379   0.215   4.732   5.729  0.2154  0.5554 -1.1038
12988TIP3    H260380   0.081   4.664   5.706  1.4810 -2.0432 -1.2164
12989TIP3   OH260381   3.881   2.707  16.949  0.4478  0.1912 -0.7182
12989TIP3    H160382   3.951   2.644  16.933  2.6327  2.0290  0.8839
12989TIP3    H260383   3.823   2.663  17.010  0.8773 -0.9295 -1.0797
12990TIP3   OH260384   0.718   4.687   0.224 -0.4544  0.3888  0.6646
12990TIP3    H160385   0.649   4.732   0.175  0.4219  1.9403  0.7914
12990TIP3    H260386   0.707   4.595   0.200 -1.4244  0.8199 -0.7424
12991TIP3   OH260387   5.866   4.303  16.878  0.3267  0.4030  0.0048
12991TIP3    H160388   5.863   4.219  16.833  0.1280 -0.0924  0.9049
12991TIP3    H260389   5.785   4.306  16.930  0.3333  1.1476 -0.0109
12992TIP3   OH260390   5.243   0.494  13.620 -0.0846  0.0185 -0.5069
12992TIP3    H160391   5.318   0.437  13.635 -0.1619 -0.4706 -1.8842
12992TIP3    H260392   5.282   0.578  13.596  0.0251 -0.0699 -0.6419
12993TIP3   OH260393   3.024   2.330  12.066 -0.0895 -0.2112 -0.0815
12993TIP3    H160394   3.034   2.378  11.984  0.4719 -1.0440 -0.5218
12993TIP3    H260395   2.930   2.335  12.086 -0.0775  0.8671 -0.2180
12994TIP3   OH260396   6.411   2.816  11.018 -0.5713 -0.2317  0.2048
12994TIP3    H160397   6.462   2.890  10.987 -0.8037 -0.1814 -0.0621
12994TIP3    H260398   6.453   2.739  10.978 -1.5576 -0.0836 -1.2049
12995TIP3   OH260399   2.544   0.592  15.260 -0.3427 -0.2348  0.0074
12995TIP3    H160400   2.575   0.537  15.188 -3.3420 -1.4037 -0.5668
12995TIP3    H260401   2.459   0.625  15.229 -1.5681 -0.4628  2.7983
12996TIP3   OH260402   1.177   4.430   4.438  0.0380 -0.2341 -0.2574
12996TIP3    H160403   1.147   4.367   4.504 -3.0706  1.3180  0.0269
12996TIP3    H260404   1.129   4.407   4.359  0.7603  0.2761 -0.8624
12997TIP3   OH260405   6.710   2.367  16.861  0.1488  0.5612  0.5527
12997TIP3    H160406   6.657   2.435  16.820 -0.8279 -0.5149 -0.0039
12997TIP3    H260407   6.657   2.288  16.856  2.3244 -0.9136 -1.2634
12998TIP3   OH260408   0.707   3.590  14.781 -0.8207  0.4268 -1.0148
12998TIP3    H160409   0.747   3.647  14.847 -0.4703  0.7264 -1.4845
12998TIP3    H260410   0.617   3.577  14.813 -0.5588  0.3052 -0.3155
12999TIP3   OH260411   4.242   5.142   4.821  0.2770  0.3322  0.1807
12999TIP3    H160412   4.151   5.174   4.825 -0.1194 -0.8095  0.8984
12999TIP3    H260413   4.278   5.182   4.742 -1.2125 -0.0701 -0.7570
13000TIP3   OH260414   6.689   1.015  13.621 -0.3757 -0.2321 -0.3515
13000TIP3    H160415   6.598   0.986  13.622 -0.8781  1.2302 -0.2958
13000TIP3    H260416   6.700   1.060  13.705  1.1508 -2.4716  0.7290
13001TIP3   OH260417   4.232   2.377  12.141 -0.0241  0.5618  0.3681
13001TIP3    H160418   4.242   2.289  12.104  1.8063  0.0366  1.9469
13001TIP3    H260419   4.183   2.426  12.074 -0.6921 -1.5040 -0.7497
13002TIP3   OH260420   6.742   3.783  11.648  0.1171  0.0265  0.2027
13002TIP3    H160421   6.677   3.847  11.677  0.0681 -0.6004  1.6034
13002TIP3    H260422   6.823   3.810  11.691  0.0498 -0.9305  0.9838
13003TIP3   OH260423   6.624   1.001  16.654  0.0168 -0.1365  0.6064
13003TIP3    H160424   6.557   1.006  16.722  0.7640 -0.4868  1.3766
13003TIP3    H260425   6.586   1.049  16.580 -0.4133  1.0897  1.5810
13004TIP3   OH260426   6.331   0.141   2.719  0.0244 -0.1000  0.2078
13004TIP3    H160427   6.239   0.137   2.743  0.3145 -1.1586  1.2586
13004TIP3    H260428   6.349   0.234   2.706 -1.6757 -0.0020 -2.1526
13005TIP3   OH260429   0.686   2.868   0.963 -0.3010 -0.2642  0.2337
13005TIP3    H160430   0.701   2.784   0.919 -0.0779  0.3485 -0.8774
13005TIP3    H260431   0.678   2.932   0.892 -0.8287  0.6060  1.0538
13006TIP3   OH260432   1.580   6.674  15.621 -0.0214 -0.8463  0.0196
13006TIP3    H160433   1.537   6.590  15.637 -2.9374  1.0011  3.4386
13006TIP3    H260434   1.642   6.684  15.694  0.3599 -0.0501 -0.3967
13007TIP3   OH260435   6.503   3.031   0.733 -0.1705 -0.4661  0.2112
13007TIP3    H160436   6.510   3.087   0.656 -0.5363 -0.7338 -0.0190
13007TIP3    H260437   6.569   3.065   0.794  1.2407 -1.2260 -0.8315
13008TIP3   OH260438   0.049   3.628   1.285  0.3017 -0.4039  0.4791
13008TIP3    H160439   0.001   3.546   1.273  0.2517 -0.4077  0.7031
13008TIP3    H260440   0.138   3.609   1.256  0.5044 -0.7812  1.3254
13009TIP3   OH260441   5.390   4.116  11.518  0.3273  0.3366  0.3014
13009TIP3    H160442   5.440   4.194  11.497 -0.5257  0.8993  0.3137
13009TIP3    H260443   5.307   4.127  11.472  0.4032 -0.8347 -0.1626
13010TIP3   OH260444   5.739   2.274   5.492  0.2079  0.3766  0.3849
13010TIP3    H160445   5.819   2.325   5.476  1.2590 -0.9390  1.2759
13010TIP3    H260446   5.740   2.256   5.586 -2.1658  1.9359  0.8043
13011TIP3   OH260447   4.392   6.092  16.190 -0.3360  0.3537  0.1543
13011TIP3    H160448   4.298   6.082  16.201 -0.3854 -1.6911 -1.5226
13011TIP3    H260449   4.402   6.146  16.111 -0.0512  1.9882  1.2604
13012TIP3   OH260450   2.290   3.982  14.217 -0.4202 -0.3681  0.5274
13012TIP3    H160451   2.276   3.909  14.157 -0.0685  1.0334 -1.3708
13012TIP3    H260452   2.202   4.006  14.247 -0.7972 -0.1154 -0.7067
13013TIP3   OH260453   0.132   6.209  16.663  0.4469  0.1449 -0.0775
13013TIP3    H160454   0.089   6.124  16.656  0.5767  0.0250  0.4647
13013TIP3    H260455   0.085   6.265  16.603 -0.1911 -0.0968  0.1858
13014TIP3   OH260456   5.400   4.155   0.444 -0.7502 -0.2445  0.1781
13014TIP3    H160457   5.324   4.208   0.465 -0.7931 -0.4133  0.4598
13014TIP3    H260458   5.471   4.218   0.432 -1.0762 -0.0369 -0.7645
13015TIP3   OH260459   4.426   1.436   6.719  0.1803  0.7253 -0.3122
13015TIP3    H160460   4.412   1.478   6.634 -1.3619 -0.6136 -0.7712
13015TIP3    H260461   4.401   1.502   6.783 -1.6304  0.7486 -0.9935
13016TIP3   OH260462   5.470   1.962   2.102  0.7259 -0.6216 -0.0625
13016TIP3    H160463   5.476   1.912   2.184  0.6039  1.0167  0.9818
13016TIP3    H260464   5.377   1.957   2.079  0.7356 -0.9828 -0.0385
13017TIP3   OH260465   1.731   4.690  16.974 -0.7967  0.2937  0.0436
13017TIP3    H160466   1.770   4.603  16.963 -0.5649  0.4530 -0.4044
13017TIP3    H260467   1.719   4.699  17.068  0.7145  0.4434  0.2445
13018TIP3   OH260468   1.787   2.191   2.982 -0.8067 -0.8738 -0.3371
13018TIP3    H160469   1.837   2.215   3.060 -1.0500 -0.2086 -0.3841
13018TIP3    H260470   1.848   2.138   2.930  0.5584  1.4711 -1.3148
13019TIP3   OH260471   1.040   4.132   4.490  0.1031 -0.9388 -0.2497
13019TIP3    H160472   1.080   4.160   4.572  1.1269 -2.9333 -0.0090
13019TIP3    H260473   0.946   4.129   4.510 -0.0561  1.8309 -0.2185
13020TIP3   OH260474   4.804   0.122   3.178  0.2525  0.0324 -0.5646
13020TIP3    H160475   4.849   0.038   3.173  0.6175  0.2908 -2.2612
13020TIP3    H260476   4.848   0.168   3.250  1.5795 -0.3653 -1.0962
13021TIP3   OH260477   1.013   4.848   1.758  0.3644  0.1300  0.1030
13021TIP3    H160478   1.035   4.849   1.851 -1.0212  1.1338  0.4520
13021TIP3    H260479   0.973   4.933   1.742  0.8739  0.0847 -1.4974
13022TIP3   OH260480   1.483   1.862  14.737  0.8019 -0.0477  0.0059
13022TIP3    H160481   1.557   1.921  14.718  3.0338 -2.0433  1.8321
13022TIP3    H260482   1.414   1.920  14.769  1.8610  1.8313 -0.9494
13023TIP3   OH260483   5.488   1.430  10.775 -0.4297  0.3771 -0.2779
13023TIP3    H160484   5.544   1.482  10.718 -0.0702 -0.7454 -0.9733
13023TIP3    H260485   5.537   1.349  10.790 -1.7154 -0.4921 -0.6273
13024TIP3   OH260486   2.625   1.535  13.683 -0.3282  0.0731  0.5050
13024TIP3    H160487   2.609   1.448  13.647  0.3787  0.1748 -0.0636
13024TIP3    H260488   2.716   1.533  13.712 -0.4400  0.4830  0.9050
13025TIP3   OH260489   0.082   1.726   5.645  0.3553 -0.0314 -0.1480
13025TIP3    H160490   0.055   1.650   5.697  0.8053  0.5329  0.9382
13025TIP3    H260491   0.031   1.718   5.564 -0.1264 -1.1074  0.2341
13026TIP3   OH260492   3.216   0.534  11.521 -0.3077  0.2009 -0.2128
13026TIP3    H160493   3.197   0.588  11.444  1.1425  1.2919  0.1633
13026TIP3    H260494   3.183   0.584  11.595 -0.6858 -0.3341 -0.0084
13027TIP3   OH260495   6.568   2.261  14.566  0.0971 -0.1206 -0.1702
13027TIP3    H160496   6.636   2.307  14.615 -0.1067 -0.5462  0.5259
13027TIP3    H260497   6.569   2.172  14.601 -0.9985 -0.0683  0.0509
13028TIP3   OH260498   0.528   5.512   2.934 -0.4513  0.2172  0.5518
13028TIP3    H160499   0.548   5.425   2.969  2.3799  0.4906 -0.1567
13028TIP3    H260500   0.453   5.497   2.876  0.0124 -1.7886  0.3817
13029TIP3   OH260501   3.541   3.463   0.134 -0.1034  0.0090 -0.2912
13029TIP3    H160502   3.476   3.473   0.065  0.2975 -1.9416 -1.0177
13029TIP3    H260503   3.531   3.372   0.164  0.9267  0.2839  0.9835
13030TIP3   OH260504   3.778   1.550  16.517  0.2911 -0.0248  0.0571
13030TIP3    H160505   3.811   1.550  16.427 -0.5365  0.0975 -0.2611
13030TIP3    H260506   3.833   1.487  16.563  0.4719 -0.3854 -0.6344
13031TIP3   OH260507   3.619   5.819   2.063  0.6410 -0.3912  0.1434
13031TIP3    H160508   3.629   5.897   2.008  0.3044 -1.1847 -1.1028
13031TIP3    H260509   3.671   5.752   2.018  0.0659 -1.1577  0.6073
13032TIP3   OH260510   2.698   3.151   5.620  0.3871 -0.1798 -0.2393
13032TIP3    H160511   2.705   3.087   5.690  0.6735 -1.1247 -1.1125
13032TIP3    H260512   2.785   3.155   5.581  0.3512  0.6730 -0.2645
13033TIP3   OH260513   3.453   3.167   0.164 -0.8298 -0.4983 -0.0096
13033TIP3    H160514   3.462   3.197   0.255 -1.7483 -0.3489  0.0515
13033TIP3    H260515   3.363   3.191   0.141 -0.7181 -0.8590 -0.8419
13034TIP3   OH260516   3.158   3.008  12.826  0.0640 -0.3386 -0.6737
13034TIP3    H160517   3.191   2.973  12.909  0.4768 -2.1398 -1.5399
13034TIP3    H260518   3.128   2.931  12.778  0.1949  0.6104 -2.3577
13035TIP3   OH260519   3.126   6.193  15.878  0.0785 -0.7158 -0.0436
13035TIP3    H160520   3.103   6.101  15.870  1.4407 -1.0664 -0.0876
13035TIP3    H260521   3.069   6.237  15.814 -0.7054 -1.4898  0.0994
13036TIP3   OH260522   3.955   0.247  14.144  0.3648  0.6593 -0.7884
13036TIP3    H160523   3.874   0.296  14.131 -0.4189 -0.1384  0.8072
13036TIP3    H260524   3.970   0.202  14.061 -0.9114  0.6766 -1.0390
13037TIP3   OH260525   4.278   1.273   2.031 -0.1034 -0.2447 -0.2927
13037TIP3    H160526   4.266   1.348   1.973  1.7811 -0.0204 -0.4589
13037TIP3    H260527   4.370   1.277   2.055 -0.0322 -2.3479 -0.0755
13038TIP3   OH260528   4.678   2.559  13.389 -0.1041 -0.1825 -0.0038
13038TIP3    H160529   4.616   2.629  13.367 -0.9652 -0.2995  1.8469
13038TIP3    H260530   4.674   2.500  13.313 -2.3137 -0.1882  0.0379
13039TIP3   OH260531   6.254   1.854  17.181  0.3864  0.3399 -0.2226
13039TIP3    H160532   6.208   1.909  17.244 -0.8350 -0.8307 -0.0677
13039TIP3    H260533   6.235   1.764  17.207  0.4262 -0.1789 -1.8385
13040TIP3   OH260534   4.208   3.937   4.484  0.2123  0.1802 -0.7422
13040TIP3    H160535   4.138   3.890   4.439  0.5059  0.8201 -1.9156
13040TIP3    H260536   4.288   3.903   4.444  0.5185  0.2209 -0.1698
13041TIP3   OH260537   1.006   3.586  11.765  0.1203 -0.0396  0.4187
13041TIP3    H160538   1.022   3.538  11.846  1.7725  1.7876  1.2348
13041TIP3    H260539   0.953   3.661  11.791  2.1961  1.5863  0.2278
13042TIP3   OH260540   5.608   5.056  13.610 -0.3745  0.0091 -0.5215
13042TIP3    H160541   5.592   5.144  13.644 -0.0045  0.1151 -0.6148
13042TIP3    H260542   5.675   5.068  13.543  3.2560 -0.8330  2.5754
13043TIP3   OH260543   0.861   2.615  14.559 -0.6699  0.1367 -0.6553
13043TIP3    H160544   0.915   2.549  14.603 -0.1523  0.1119 -1.3183
13043TIP3    H260545   0.792   2.564  14.515  0.2327 -0.0510 -1.8876
13044TIP3   OH260546   3.329   1.091   5.807 -0.2142 -0.8685 -0.0611
13044TIP3    H160547   3.276   1.171   5.805 -0.3203 -0.8390  2.1111
13044TIP3    H260548   3.348   1.073   5.715 -0.9674  1.1325 -0.6600
13045TIP3   OH260549   3.295   2.823   5.273  0.0263  0.5592 -0.6187
13045TIP3    H160550   3.253   2.737   5.277  0.0079  0.4617 -2.0916
13045TIP3    H260551   3.296   2.854   5.363 -0.9672 -0.5132 -0.2110
13046TIP3   OH260552   4.411   2.656  11.456 -0.5117  0.2510 -0.2944
13046TIP3    H160553   4.480   2.611  11.409 -1.2294 -0.3233 -0.8183
13046TIP3    H260554   4.366   2.708  11.390 -0.8597  0.2750 -0.0423
13047TIP3   OH260555   2.000   2.449   2.786  0.2622  0.2180 -0.5971
13047TIP3    H160556   1.975   2.358   2.798 -1.1234  0.5625 -0.7231
13047TIP3    H260557   1.959   2.474   2.703 -0.0213  1.1749 -0.1750
13048TIP3   OH260558   4.758   5.968   2.589  0.8334 -0.0190  0.3955
13048TIP3    H160559   4.675   5.943   2.549  0.9397  0.6648 -0.2939
13048TIP3    H260560   4.743   5.961   2.683 -0.5769  1.7248  0.3679
13049TIP3   OH260561   4.237   0.143   1.339 -0.1080 -0.5015 -0.1131
13049TIP3    H160562   4.253   0.115   1.249  0.8883 -1.2861  0.2954
13049TIP3    H260563   4.320   0.126   1.385 -0.1812  1.0413  0.6725
13050TIP3   OH260564   6.027   6.557  16.949  0.1825 -0.5397  0.5195
13050TIP3    H160565   6.099   6.495  16.945  0.0342 -0.6612 -0.6630
13050TIP3    H260566   5.982   6.547  16.865  0.0965  1.0839  0.3357
13051TIP3   OH260567   6.062   5.567   2.176 -0.1147 -0.4895 -0.4344
13051TIP3    H160568   6.144   5.516   2.175  0.4017  0.3114  0.0759
13051TIP3    H260569   6.090   5.657   2.157 -0.8552 -0.1748 -0.0571
13052TIP3   OH260570   6.234   1.836   1.740  0.0504 -0.0819 -0.7391
13052TIP3    H160571   6.176   1.764   1.764 -0.5929  1.2382  2.1903
13052TIP3    H260572   6.184   1.888   1.677 -0.1860 -1.2253 -1.5078
13053TIP3   OH260573   2.354   6.058  14.714  0.2717 -0.7130 -0.5289
13053TIP3    H160574   2.263   6.034  14.731  0.0861  1.5490  2.4494
13053TIP3    H260575   2.402   5.976  14.720 -0.7534 -1.3364  5.5530
13054TIP3   OH260576   4.656   6.098  15.686  0.2608  0.3312  0.3147
13054TIP3    H160577   4.572   6.111  15.729  0.0868  0.6051 -0.1017
13054TIP3    H260578   4.718   6.084  15.758  0.1333  1.6531  0.7061
13055TIP3   OH260579   2.788   3.113   2.845 -0.2313 -0.5661  0.5188
13055TIP3    H160580   2.818   3.129   2.756  1.0692 -1.1669  0.8307
13055TIP3    H260581   2.708   3.061   2.834 -1.4280  1.3186 -0.3251
13056TIP3   OH260582   6.395   0.760   3.715  0.2378 -0.3104 -0.1233
13056TIP3    H160583   6.305   0.742   3.743 -0.2026  0.5541 -0.9218
13056TIP3    H260584   6.416   0.844   3.755  1.3979 -1.3527  1.5937
13057TIP3   OH260585   4.885   6.671   5.852  0.1453  0.0414  0.5703
13057TIP3    H160586   4.905   6.747   5.905  3.9873 -0.7656  0.5389
13057TIP3    H260587   4.925   6.689   5.767  0.5599 -1.6677  0.3527
13058TIP3   OH260588   3.980   2.984  14.699  0.7980  0.8765  0.2881
13058TIP3    H160589   3.970   2.903  14.749 -0.2218  0.2002 -0.9262
13058TIP3    H260590   4.072   3.008  14.709  1.6107 -1.4837 -0.8452
13059TIP3   OH260591   4.437   4.621  13.471 -0.7686 -0.0005  0.6277
13059TIP3    H160592   4.428   4.713  13.450 -0.7452 -0.6587 -2.7332
13059TIP3    H260593   4.530   4.610  13.492 -0.7559  0.7112  0.9569
13060TIP3   OH260594   4.947   1.868  10.897 -0.2802 -0.5316 -0.2692
13060TIP3    H160595   4.963   1.885  10.990 -2.1023  1.0676 -0.1872
13060TIP3    H260596   4.867   1.917  10.877  1.4656  1.3994 -3.2957
13061TIP3   OH260597   5.490   4.651  14.749  0.7125  0.3818 -0.4659
13061TIP3    H160598   5.497   4.741  14.783 -0.8999  0.4651 -0.2793
13061TIP3    H260599   5.405   4.648  14.706  0.7548 -1.0570 -0.4970
13062TIP3   OH260600   3.151   6.217   2.438  0.0934  0.1277  0.0711
13062TIP3    H160601   3.240   6.250   2.442  0.9639 -1.9910 -0.5051
13062TIP3    H260602   3.129   6.197   2.529 -0.1003  1.3464  0.3067
13063TIP3   OH260603   0.970   2.424  11.462 -0.5491  0.0003  0.2503
13063TIP3    H160604   0.945   2.515  11.477 -2.1094 -0.3816  0.2213
13063TIP3    H260605   1.023   2.427  11.382 -3.0514  0.6156 -1.5149
13064TIP3   OH260606   6.613   4.000   5.270  0.1463  0.0796 -0.3232
13064TIP3    H160607   6.538   4.029   5.219  0.0389 -2.5385 -1.8319
13064TIP3    H260608   6.575   3.949   5.342  0.4011 -0.4247 -0.5349
13065TIP3   OH260609   3.102   4.842   3.222 -0.1246 -0.3942 -0.1433
13065TIP3    H160610   3.098   4.936   3.204 -1.7689 -0.3810  0.1874
13065TIP3    H260611   3.088   4.801   3.136 -1.2508 -0.3229 -0.0071
13066TIP3   OH260612   0.761   0.506  14.189 -0.2429 -0.1278 -0.9596
13066TIP3    H160613   0.671   0.474  14.177 -0.2146 -0.4736 -0.2829
13066TIP3    H260614   0.809   0.429  14.219  0.0989  0.2632 -0.5040
13067TIP3   OH260615   6.174   0.440  15.350  0.7945  0.1728 -0.3212
13067TIP3    H160616   6.236   0.370  15.333 -1.5141 -2.3653  0.9569
13067TIP3    H260617   6.133   0.457  15.265  1.8575  0.5188 -0.7796
13068TIP3   OH260618   2.326   4.024   3.049 -0.4633  0.0375 -0.3330
13068TIP3    H160619   2.266   4.036   3.123  0.4054  0.9676  0.2412
13068TIP3    H260620   2.335   3.929   3.042 -0.0471 -0.0612  1.1948
13069TIP3   OH260621   6.543   4.259  13.437 -0.5384 -0.2334  0.9795
13069TIP3    H160622   6.508   4.187  13.490  0.1355 -0.0648  1.6580
13069TIP3    H260623   6.638   4.252  13.446 -0.4393  2.3509  3.3278
13070TIP3   OH260624   2.148   0.782   0.246  0.0223 -0.0196 -0.4103
13070TIP3    H160625   2.135   0.764   0.339 -1.9090  2.2566 -0.1425
13070TIP3    H260626   2.078   0.735   0.202 -0.2010  0.3970 -0.5081
13071TIP3   OH260627   0.208   5.119   2.910  0.0865 -0.3581  0.5868
13071TIP3    H160628   0.177   5.051   2.849 -0.9473  0.3997  0.2303
13071TIP3    H260629   0.268   5.172   2.858  1.0155 -1.0742  0.9098
13072TIP3   OH260630   4.901   0.296   1.953  0.2086  0.4210 -0.4964
13072TIP3    H160631   4.808   0.279   1.941  0.5159 -0.7882 -1.2760
13072TIP3    H260632   4.945   0.229   1.901  1.5294  0.5409  0.4257
13073TIP3   OH260633   3.296   0.576   0.926  0.7704  0.0871 -0.2884
13073TIP3    H160634   3.365   0.640   0.906  0.0255  0.6469 -1.1554
13073TIP3    H260635   3.331   0.493   0.895  1.2881  0.2669 -0.1994
13074TIP3   OH260636   0.349   0.147  15.088  0.2997 -0.2304 -0.3778
13074TIP3    H160637   0.365   0.053  15.088  1.3670 -0.0573 -0.2053
13074TIP3    H260638   0.387   0.178  15.006  0.4737  0.1345 -0.1615
13075TIP3   OH260639   5.194   4.437  14.719  0.1858  0.0927 -0.0324
13075TIP3    H160640   5.115   4.424  14.771 -0.4759  2.0897 -0.4277
13075TIP3    H260641   5.229   4.349  14.704 -2.2729 -0.9142 -0.3323
13076TIP3   OH260642   3.572   3.050  14.810  0.0883  0.0844  0.1300
13076TIP3    H160643   3.560   2.973  14.867  0.3188  0.6838  1.0131
13076TIP3    H260644   3.533   3.024  14.727  0.2645 -1.0349  0.3761
13077TIP3   OH260645   3.809   3.198   0.804 -0.0195 -0.4702 -0.0950
13077TIP3    H160646   3.754   3.169   0.732 -0.5794 -0.6112  0.3836
13077TIP3    H260647   3.819   3.120   0.859 -1.0461  0.0686  0.8894
13078TIP3   OH260648   0.105   3.773   5.329 -0.7457  0.1280 -0.0286
13078TIP3    H160649   0.183   3.760   5.275 -0.1502 -1.8790  1.1983
13078TIP3    H260650   0.130   3.842   5.391 -1.3354  2.2248 -2.0078
13079TIP3   OH260651   3.362   4.882   5.251  0.1948  0.3997  0.6026
13079TIP3    H160652   3.327   4.919   5.332 -0.6510 -0.7394  0.7769
13079TIP3    H260653   3.322   4.934   5.181 -1.3631 -0.4360  0.8252
13080TIP3   OH260654   2.561   5.699   4.491 -0.1983  0.4312  0.0035
13080TIP3    H160655   2.613   5.634   4.539  0.8078  1.9681  1.0645
13080TIP3    H260656   2.624   5.741   4.432 -1.1144 -0.3884 -1.6497
13081TIP3   OH260657   0.408   6.505   0.546  0.3925 -0.2174 -0.7152
13081TIP3    H160658   0.405   6.485   0.639  1.3852  0.8468 -0.4393
13081TIP3    H260659   0.316   6.512   0.520  0.0985 -1.0195  0.0512
13082TIP3   OH260660   2.435   6.288   3.637  0.5345  0.0072 -0.2185
13082TIP3    H160661   2.420   6.194   3.646 -1.1353  0.3496  1.0947
13082TIP3    H260662   2.510   6.295   3.579 -0.8240 -2.0916 -2.4400
13083TIP3   OH260663   4.935   1.169   3.411  0.4055  0.3229 -0.0448
13083TIP3    H160664   5.009   1.123   3.449  1.5122  2.2000  0.2016
13083TIP3    H260665   4.920   1.244   3.469 -0.9671  0.6097 -0.7059
13084TIP3   OH260666   6.424   0.760  12.952 -0.0978 -0.0532  0.0479
13084TIP3    H160667   6.357   0.786  12.888  0.6307  2.7987  0.2803
13084TIP3    H260668   6.379   0.700  13.011 -1.0431 -2.1098 -2.5511
13085TIP3   OH260669   2.777   3.918   3.352  0.7382 -0.0503 -0.9557
13085TIP3    H160670   2.710   3.956   3.294 -0.0384  0.2773  0.1193
13085TIP3    H260671   2.727   3.881   3.425  1.7168  0.0119 -0.2278
13086TIP3   OH260672   0.771   1.500  14.235  0.1554 -0.1902 -0.4420
13086TIP3    H160673   0.766   1.437  14.163 -0.7533 -0.3772 -0.2342
13086TIP3    H260674   0.837   1.563  14.207 -2.6228  1.8114 -3.1269
13087TIP3   OH260675   4.056   2.934  15.645  0.1268 -0.1101 -0.7605
13087TIP3    H160676   4.038   2.957  15.736  0.8811  2.3514 -1.1389
13087TIP3    H260677   3.969   2.918  15.607 -0.6083  2.6031 -0.4409
13088TIP3   OH260678   0.799   2.683  16.025  0.0023 -0.1292 -0.1008
13088TIP3    H160679   0.829   2.628  15.953  1.1681  0.1463  0.1573
13088TIP3    H260680   0.841   2.646  16.103 -0.3184  0.2833  0.2766
13089TIP3   OH260681   0.145   6.677  12.175  0.0157  0.0797 -0.0166
13089TIP3    H160682   0.192   6.745  12.127 -0.5073 -0.0652 -0.7462
13089TIP3    H260683   0.124   6.717  12.259  2.8764 -0.3778  1.0178
13090TIP3   OH260684   5.320   0.636  13.407 -0.1562 -0.1478 -0.4720
13090TIP3    H160685   5.347   0.706  13.466 -0.3378 -1.3081  1.0549
13090TIP3    H260686   5.394   0.575  13.407 -1.0354 -1.2610  0.3741
13091TIP3   OH260687   6.312   3.945   3.593 -0.7261  0.7209  0.1674
13091TIP3    H160688   6.318   3.851   3.576  0.3064  0.8536 -0.2914
13091TIP3    H260689   6.230   3.955   3.642 -3.6563  0.1724 -4.0442
13092TIP3   OH260690   4.223   2.563  17.173 -0.1258  0.0966  0.0708
13092TIP3    H160691   4.316   2.560  17.195  0.2150 -0.0464 -1.3118
13092TIP3    H260692   4.189   2.639  17.221  0.6378 -0.0183  0.7984
13093TIP3   OH260693   2.674   1.834   2.720  0.2949 -0.7276 -0.2135
13093TIP3    H160694   2.677   1.809   2.813  1.6135 -2.6151 -0.7071
13093TIP3    H260695   2.581   1.851   2.703  0.2038  1.2816  1.8011
13094TIP3   OH260696   4.086   5.442   1.878 -0.2766  0.3957  0.5720
13094TIP3    H160697   4.152   5.384   1.917  0.2965  0.2642 -0.5209
13094TIP3    H260698   4.019   5.382   1.845  0.8741  0.1743 -1.6012
13095TIP3   OH260699   3.188   0.695   4.488  0.1687  0.6538 -0.0794
13095TIP3    H160700   3.183   0.615   4.541  1.2790 -0.5973 -1.7486
13095TIP3    H260701   3.274   0.732   4.508  1.4262 -0.8624 -2.2871
13096TIP3   OH260702   2.747   1.592   1.614 -0.5243  0.4245  0.5116
13096TIP3    H160703   2.732   1.500   1.635  2.4890 -0.8259 -1.9860
13096TIP3    H260704   2.812   1.621   1.678 -0.8925  0.6163  0.8065
13097TIP3   OH260705   5.063   0.116   4.165 -0.1010 -0.0869  0.4284
13097TIP3    H160706   5.122   0.042   4.153  1.3073  0.3646  3.6716
13097TIP3    H260707   4.981   0.076   4.194  0.1593 -0.4777  0.6356
13098TIP3   OH260708   6.472   1.173   5.723  0.1268  0.4584  0.1945
13098TIP3    H160709   6.391   1.221   5.703  0.0753 -0.2536 -1.4068
13098TIP3    H260710   6.537   1.241   5.738 -0.8477  1.0607  2.0358
13099TIP3   OH260711   1.714   6.054  14.902  0.0496  0.1651 -0.1872
13099TIP3    H160712   1.627   6.015  14.899  0.5032 -0.9059 -0.0191
13099TIP3    H260713   1.699   6.148  14.899 -1.0914 -0.0198 -0.5200
13100TIP3   OH260714   0.175   0.311  13.939  0.0484 -0.5973  0.0134
13100TIP3    H160715   0.141   0.398  13.961 -1.3409 -0.2120 -2.9773
13100TIP3    H260716   0.120   0.283  13.865  2.6446 -2.5375 -1.3377
13101TIP3   OH260717   5.082   4.670  13.654  0.1049  0.1665  0.9332
13101TIP3    H160718   5.105   4.721  13.732  0.8831  0.8296  0.2720
13101TIP3    H260719   5.163   4.627  13.628  0.0950  0.7766 -0.1291
13102TIP3   OH260720   2.730   4.938  13.880  0.0315  0.1531  0.2138
13102TIP3    H160721   2.740   5.023  13.837  0.3236  0.4117  0.7712
13102TIP3    H260722   2.702   4.960  13.969 -1.6130 -0.4000 -0.1322
13103TIP3   OH260723   4.098   0.822   1.476  0.0392 -0.2080  0.5085
13103TIP3    H160724   4.103   0.816   1.572 -0.3505  0.1953  0.5565
13103TIP3    H260725   4.070   0.912   1.459 -2.7338 -1.0595  0.1184
13104TIP3   OH260726   6.641   5.217   1.996 -0.5676  0.2405 -0.1958
13104TIP3    H160727   6.554   5.257   1.993 -0.2811  0.9481  0.5774
13104TIP3    H260728   6.654   5.194   2.088  0.0872  0.2025 -0.2940
13105TIP3   OH260729   2.852   2.912   0.318 -0.1959 -0.3859 -0.4147
13105TIP3    H160730   2.845   3.006   0.307 -1.4058 -0.5503 -1.2465
13105TIP3    H260731   2.825   2.896   0.408 -0.7321 -0.0012 -0.5019
13106TIP3   OH260732   5.109   2.717  13.000  0.2739 -0.0061  0.6528
13106TIP3    H160733   5.088   2.801  12.959  0.1999 -1.5515 -2.7903
13106TIP3    H260734   5.184   2.684  12.950 -0.8735 -2.7864  0.6133
13107TIP3   OH260735   5.067   0.701   0.936 -1.2594  0.1902 -0.0516
13107TIP3    H160736   5.126   0.639   0.978  0.4330  2.0989  0.5515
13107TIP3    H260737   4.995   0.711   0.998 -1.0413 -0.3711  0.3046
13108TIP3   OH260738   4.174   1.824  12.827  0.7824  0.0365  0.2243
13108TIP3    H160739   4.104   1.783  12.776  0.6015 -1.7530  1.7871
13108TIP3    H260740   4.137   1.907  12.857 -0.5771 -0.7052  0.7020
13109TIP3   OH260741   2.414   4.236   2.431  0.6100  0.2435  0.4896
13109TIP3    H160742   2.450   4.269   2.514 -0.0599 -1.5641  1.5716
13109TIP3    H260743   2.486   4.187   2.391  0.3980 -0.4586  0.9486
13110TIP3   OH260744   5.446   6.139   2.682 -0.1186 -0.1847 -0.3164
13110TIP3    H160745   5.414   6.073   2.743  0.1375  0.2132  0.2555
13110TIP3    H260746   5.541   6.128   2.681 -0.1827 -0.7688 -1.3218
13111TIP3   OH260747   4.322   2.962  15.560 -0.1386  0.0859  0.0201
13111TIP3    H160748   4.341   2.896  15.494  0.6239  1.2751 -1.0170
13111TIP3    H260749   4.244   2.931  15.605 -0.0664 -1.2649 -0.7578
13112TIP3   OH260750   6.423   0.959   2.487 -0.1038 -0.6348  0.5131
13112TIP3    H160751   6.430   0.982   2.394 -0.9915 -1.8873  0.1033
13112TIP3    H260752   6.505   0.915   2.507 -0.0080 -0.5786  0.2461
13113TIP3   OH260753   4.856   1.351  10.866 -0.2162 -0.0323  0.4244
13113TIP3    H160754   4.792   1.398  10.919 -0.7552 -0.1399 -0.1150
13113TIP3    H260755   4.811   1.271  10.839  0.6404 -0.8251  1.2228
13114TIP3   OH260756   4.650   2.646  11.210  0.1882 -0.4407 -0.1294
13114TIP3    H160757   4.573   2.605  11.171 -0.4979  0.5755  0.1065
13114TIP3    H260758   4.649   2.736  11.176  0.3337  0.0635  1.1512
13115TIP3   OH260759   4.224   6.682  12.581  0.1691 -0.0078  0.0462
13115TIP3    H160760   4.168   6.629  12.637 -0.0154  1.3459  1.1935
13115TIP3    H260761   4.308   6.636  12.580 -0.3268 -0.9277  0.0505
13116TIP3   OH260762   3.775   0.884   1.369 -0.5802 -0.3627  0.1403
13116TIP3    H160763   3.728   0.847   1.443 -0.2934 -0.3984  0.3083
13116TIP3    H260764   3.831   0.812   1.338 -1.3178 -0.6072 -0.6426
13117TIP3   OH260765   4.467   4.995   1.685  0.2959 -0.5005 -0.5039
13117TIP3    H160766   4.441   5.082   1.716 -1.9420 -1.5557  0.8438
13117TIP3    H260767   4.523   5.012   1.609  1.1216  2.1123  0.5871
13118TIP3   OH260768   4.368   2.462   0.311  0.1528  0.0992 -0.8675
13118TIP3    H160769   4.383   2.545   0.266 -0.5351 -1.1345 -3.6158
13118TIP3    H260770   4.456   2.427   0.327  0.4268  0.3854 -1.6945
13119TIP3   OH260771   2.929   0.788  10.991 -0.4292  0.1308  0.0985
13119TIP3    H160772   2.908   0.756  11.079  0.4238 -0.9718 -0.0750
13119TIP3    H260773   2.871   0.739  10.933 -0.3031  0.1319 -0.0290
13120TIP3   OH260774   4.237   1.335  16.695  0.7523  0.3366  0.1414
13120TIP3    H160775   4.206   1.256  16.739  1.1746  0.6864  1.1167
13120TIP3    H260776   4.256   1.396  16.767  0.4710  1.3066 -0.5824
13121TIP3   OH260777   1.938   3.725  13.023  0.1178 -0.6521  0.6380
13121TIP3    H160778   1.971   3.807  13.059  0.5312 -0.6045  0.1614
13121TIP3    H260779   1.859   3.750  12.974 -0.0382 -0.6135  0.9079
13122TIP3   OH260780   6.256   1.712  16.267 -0.4732 -0.3339 -0.6504
13122TIP3    H160781   6.209   1.658  16.204  0.5305 -0.1648 -1.5904
13122TIP3    H260782   6.265   1.797  16.223 -0.9631  0.2269  0.3003
13123TIP3   OH260783   3.391   2.527   5.023  0.3088 -0.5815  0.0613
13123TIP3    H160784   3.426   2.474   5.094 -1.8068  0.0574  1.6506
13123TIP3    H260785   3.331   2.470   4.976  0.5849 -0.5612 -0.3271
13124TIP3   OH260786   1.158   2.410   4.131  0.0165 -0.0686 -0.2056
13124TIP3    H160787   1.132   2.346   4.065  0.9132 -0.4239 -0.2259
13124TIP3    H260788   1.227   2.367   4.180 -0.7341  0.1409  1.0666
13125TIP3   OH260789   4.354   4.440  13.939  0.3191  0.4568 -0.5818
13125TIP3    H160790   4.421   4.474  13.997 -0.6411  0.6000  0.4835
13125TIP3    H260791   4.387   4.455  13.851  1.1158  1.6447 -0.0878
13126TIP3   OH260792   4.808   0.626  15.557  0.2651 -0.2150 -0.3123
13126TIP3    H160793   4.731   0.659  15.511  1.4740  3.1490 -0.1506
13126TIP3    H260794   4.845   0.560  15.497 -0.5751  0.9398 -2.1946
13127TIP3   OH260795   2.080   0.899   3.315 -0.6666 -0.1988  0.3786
13127TIP3    H160796   2.123   0.848   3.247  2.9311  1.5202  1.1629
13127TIP3    H260797   2.094   0.990   3.290 -2.1272  0.4694  1.7846
13128TIP3   OH260798   4.884   2.352  13.412  0.0616 -0.2083  0.0401
13128TIP3    H160799   4.808   2.367  13.355  1.8350  1.3537 -2.1139
13128TIP3    H260800   4.878   2.419  13.480  0.2731  0.9629 -1.0533
13129TIP3   OH260801   5.398   6.661  16.204 -0.3842  0.3134 -0.7092
13129TIP3    H160802   5.366   6.724  16.140 -2.9654 -0.4246 -0.2609
13129TIP3    H260803   5.333   6.663  16.274  0.5411 -1.3933  0.2700
13130TIP3   OH260804   6.303   1.473  15.806 -0.4889  0.1974  0.5883
13130TIP3    H160805   6.320   1.435  15.720 -0.0459 -0.1208  0.8109
13130TIP3    H260806   6.326   1.565  15.797  2.1901 -0.3299  1.0602
13131TIP3   OH260807   6.372   3.019   4.626  0.4353  0.0012  0.7579
13131TIP3    H160808   6.305   3.070   4.670  1.3407  0.1848  1.9780
13131TIP3    H260809   6.452   3.070   4.637  0.8645 -0.3962 -0.3334
13132TIP3   OH260810   0.866   6.453  11.744  0.1156  0.0912  0.0587
13132TIP3    H160811   0.858   6.419  11.833  1.7821  1.1334  0.6606
13132TIP3    H260812   0.791   6.511  11.733 -0.0632  0.0058  0.8290
13133TIP3   OH260813   2.176   5.539   5.004 -0.1495 -0.0898  0.2197
13133TIP3    H160814   2.185   5.453   4.964  1.4250  0.4473 -0.6382
13133TIP3    H260815   2.249   5.590   4.970 -1.3303  1.7659  0.2774
13134TIP3   OH260816   6.380   6.503   3.587  0.6676  0.4799  0.0601
13134TIP3    H160817   6.339   6.445   3.651 -0.3559  0.7154 -0.3640
13134TIP3    H260818   6.341   6.479   3.503  0.6973  1.3390 -0.2163
13135TIP3   OH260819   1.825   4.802   6.038 -0.0255  0.4947 -0.1813
13135TIP3    H160820   1.843   4.879   5.983  1.8374  0.6900  0.6199
13135TIP3    H260821   1.911   4.765   6.056 -0.5422  0.4497  2.5951
13136TIP3   OH260822   5.372   3.338  14.546  0.0717 -0.5757 -0.2811
13136TIP3    H160823   5.325   3.287  14.480  1.0436  1.1706 -2.4653
13136TIP3    H260824   5.461   3.303  14.545 -0.0303 -0.8849  0.5275
13137TIP3   OH260825   6.568   1.807  12.136 -0.3375 -0.0621  0.4154
13137TIP3    H160826   6.492   1.814  12.193  0.1242  4.0052  0.8164
13137TIP3    H260827   6.538   1.842  12.052  1.0592  1.8280  0.6514
13138TIP3   OH260828   0.747   0.012  16.016 -0.3334 -0.2328 -0.0268
13138TIP3    H160829   0.666  -0.017  16.059 -0.8636  0.9773 -0.1521
13138TIP3    H260830   0.816  -0.003  16.081 -0.6299 -1.3409  0.0562
13139TIP3   OH260831   5.079   5.636   6.245  0.1818 -0.1350 -0.1672
13139TIP3    H160832   5.066   5.632   6.150 -3.3834  0.1940  0.1709
13139TIP3    H260833   5.067   5.728   6.267  3.1747  0.2000  0.4728
13140TIP3   OH260834   0.594   0.097  11.643  0.1851  0.1725 -0.6500
13140TIP3    H160835   0.582   0.062  11.555 -0.3678 -0.1716 -0.4405
13140TIP3    H260836   0.526   0.164  11.652  0.4456  0.4371 -0.5963
13141TIP3   OH260837   4.683   2.483   1.335 -0.7093 -0.2635  0.5062
13141TIP3    H160838   4.708   2.469   1.244 -0.6500  0.7498  0.3610
13141TIP3    H260839   4.756   2.446   1.385 -0.8070 -0.9522  0.1548
13142TIP3   OH260840   3.200   3.082   3.458 -0.9717 -0.4612  0.0386
13142TIP3    H160841   3.171   2.998   3.495 -1.3309  0.4256  1.8509
13142TIP3    H260842   3.253   3.122   3.527 -2.5625  1.7623  0.0525
13143TIP3   OH260843   0.213   4.806   3.460 -0.2962 -0.3959 -0.0914
13143TIP3    H160844   0.251   4.853   3.386 -0.8434 -2.0218 -1.4679
13143TIP3    H260845   0.149   4.866   3.497 -0.9350  0.0010 -1.7543
13144TIP3   OH260846   3.153   5.307  11.324  0.1476  0.5230  0.4825
13144TIP3    H160847   3.144   5.266  11.410 -1.7131  0.5978  0.3751
13144TIP3    H260848   3.097   5.384  11.328 -0.8515 -0.0553 -1.1191
13145TIP3   OH260849   1.808   5.586   4.296 -0.0149 -0.4059  0.1464
13145TIP3    H160850   1.872   5.553   4.359 -1.2025  0.4510  1.8773
13145TIP3    H260851   1.723   5.554   4.328 -0.5667 -0.8705 -1.6485
13146TIP3   OH260852   0.714   4.416  16.951  0.2857 -0.3149 -0.0223
13146TIP3    H160853   0.718   4.331  16.994 -0.9877  0.6720  2.2296
13146TIP3    H260854   0.678   4.397  16.864  1.7148 -2.2425 -0.2547
13147TIP3   OH260855   0.883   5.087   1.750  0.0099 -0.0812  0.2934
13147TIP3    H160856   0.920   5.165   1.708  1.0995  0.0143  1.3710
13147TIP3    H260857   0.804   5.068   1.700  1.5876 -0.4166 -2.2398
13148TIP3   OH260858   1.181   6.254  11.715  0.1709  0.9934  0.1243
13148TIP3    H160859   1.150   6.334  11.674  3.3236  2.2793 -0.0409
13148TIP3    H260860   1.225   6.206  11.645  0.3677  0.2651  0.7240
13149TIP3   OH260861   4.608   4.507  15.821  0.1893 -0.4474 -0.0027
13149TIP3    H160862   4.519   4.472  15.832  0.3248 -1.6255 -2.1744
13149TIP3    H260863   4.595   4.602  15.816 -0.9352 -0.5878 -0.1831
13150TIP3   OH260864   0.536   5.590   2.453 -0.0846 -0.2949 -0.9641
13150TIP3    H160865   0.446   5.587   2.488  0.1432  0.1960 -0.3154
13150TIP3    H260866   0.539   5.518   2.390  0.4779 -3.4630  2.3577
13151TIP3   OH260867   5.062   3.181   0.827 -1.1998 -0.2660  0.3818
13151TIP3    H160868   5.155   3.197   0.846 -0.5302 -1.0393 -1.9704
13151TIP3    H260869   5.035   3.256   0.774 -1.7148 -0.4244  0.4141
13152TIP3   OH260870   3.775   4.871  16.851 -0.2540 -0.1171  0.3878
13152TIP3    H160871   3.692   4.910  16.879 -0.7564  0.0745 -1.2557
13152TIP3    H260872   3.750   4.804  16.787  0.8706  1.4645 -1.8832
13153TIP3   OH260873   4.233   0.482   3.762 -0.1353 -0.1382 -0.2976
13153TIP3    H160874   4.278   0.553   3.716  1.0187 -0.8441 -0.2853
13153TIP3    H260875   4.190   0.525   3.836 -0.1837  0.6698 -0.7804
13154TIP3   OH260876   1.724   3.560   0.160 -0.4422 -0.2854 -0.2804
13154TIP3    H160877   1.658   3.532   0.097 -0.0530 -0.8847 -0.4268
13154TIP3    H260878   1.677   3.568   0.243 -1.4857  2.6887 -1.0272
13155TIP3   OH260879   5.324   2.193   6.022  0.4380  0.2825  0.2550
13155TIP3    H160880   5.303   2.203   6.115  3.6109 -1.8324  1.3894
13155TIP3    H260881   5.406   2.242   6.011  0.4304 -0.0086 -1.2805
13156TIP3   OH260882   1.752   5.580   2.184 -0.0441 -0.0594  0.0052
13156TIP3    H160883   1.680   5.635   2.151  0.1836  0.1713 -0.1119
13156TIP3    H260884   1.820   5.587   2.117  0.6183  0.8141  0.7365
13157TIP3   OH260885   1.763   3.490  15.285  0.8779 -0.1026  0.4963
13157TIP3    H160886   1.766   3.576  15.325 -0.1113  0.6317 -0.9388
13157TIP3    H260887   1.846   3.483  15.236  0.8779  0.1027  0.4686
13158TIP3   OH260888   5.301   5.607   2.294  0.1099  0.0386 -0.3090
13158TIP3    H160889   5.266   5.589   2.381 -0.2978  0.3127 -0.4149
13158TIP3    H260890   5.391   5.575   2.298  0.5503  1.2614  0.6538
13159TIP3   OH260891   6.559   2.303  12.329 -0.1701  0.0495 -0.0311
13159TIP3    H160892   6.540   2.221  12.373 -1.2624  0.4195  0.2233
13159TIP3    H260893   6.588   2.362  12.399 -0.1731  0.1168 -0.0862
13160TIP3   OH260894   6.097   2.785   0.233  0.1052  0.1764 -0.5341
13160TIP3    H160895   6.142   2.794   0.317 -2.3992  1.2983  0.8096
13160TIP3    H260896   6.149   2.835   0.171  1.1627  0.6501  0.6983
13161TIP3   OH260897   3.278   3.033   1.110  0.2072  0.4268  0.3729
13161TIP3    H160898   3.232   3.018   1.027  1.3412  0.0511 -0.2090
13161TIP3    H260899   3.328   3.113   1.096 -1.0649  1.4273  1.3695
13162TIP3   OH260900   5.497   3.105   6.127 -0.3517 -0.0013 -0.0277
13162TIP3    H160901   5.442   3.106   6.049 -0.2305  1.3471 -0.1225
13162TIP3    H260902   5.546   3.187   6.123 -0.1887 -0.0085  1.3623
13163TIP3   OH260903   4.858   4.932   2.082 -0.6500 -0.1194  0.0873
13163TIP3    H160904   4.915   4.860   2.054  2.1268  1.5935  1.0534
13163TIP3    H260905   4.871   4.938   2.176 -1.7952  0.9151  0.2002
13164TIP3   OH260906   3.353   3.940   0.352  0.1110  0.1893 -0.2115
13164TIP3    H160907   3.449   3.944   0.347  0.0608  1.6639 -0.2986
13164TIP3    H260908   3.336   3.882   0.427  1.0676 -0.0509 -0.1656
13165TIP3   OH260909   1.685   3.160  11.483 -0.1487  0.1858  0.4575
13165TIP3    H160910   1.734   3.189  11.406  0.3735  0.2223  0.8005
13165TIP3    H260911   1.752   3.137  11.547 -0.5771 -0.1394  0.7953
13166TIP3   OH260912   6.149   4.741  11.206 -0.3271  0.5245 -0.7885
13166TIP3    H160913   6.099   4.687  11.145 -0.2260  0.5054 -0.8533
13166TIP3    H260914   6.191   4.807  11.151  0.0385  0.2982 -0.7771
13167TIP3   OH260915   1.280   6.558  14.349 -0.1992  0.2379  0.4610
13167TIP3    H160916   1.186   6.574  14.362 -0.1866  0.3295  0.4424
13167TIP3    H260917   1.321   6.593  14.428 -0.1503  0.5131  0.3169
13168TIP3   OH260918   4.152   6.341  14.513 -0.0814  0.9235  0.2253
13168TIP3    H160919   4.078   6.380  14.467 -0.5635  0.2448  0.4009
13168TIP3    H260920   4.139   6.365  14.605 -0.1600  0.6993  0.2746
13169TIP3   OH260921   4.985   4.148   3.893  0.3585  0.9959 -0.8328
13169TIP3    H160922   4.952   4.065   3.927 -0.8249  1.7804  0.0195
13169TIP3    H260923   5.080   4.142   3.904  0.2098  0.1705  0.1829
13170TIP3   OH260924   2.787   1.650   4.612  0.2536  0.5231  0.5125
13170TIP3    H160925   2.751   1.675   4.526 -1.7203 -0.7118  0.9169
13170TIP3    H260926   2.812   1.733   4.652  0.3120  1.2035 -0.8734
13171TIP3   OH260927   6.552   3.737   2.779  0.2568 -0.0377 -0.1248
13171TIP3    H160928   6.539   3.686   2.859  1.6477  0.8233  0.6885
13171TIP3    H260929   6.607   3.683   2.723 -0.5146 -0.5379 -0.4146
13172TIP3   OH260930   3.161   5.466  12.582  0.4606  0.2943  0.0058
13172TIP3    H160931   3.081   5.501  12.543  1.1202  2.3726  0.3843
13172TIP3    H260932   3.225   5.466  12.511 -0.2008 -3.0000 -0.7789
13173TIP3   OH260933   2.069   2.375  11.185 -0.1422 -1.2788  0.1852
13173TIP3    H160934   2.040   2.296  11.139  0.4120 -1.4246  0.0801
13173TIP3    H260935   2.052   2.446  11.124 -0.8304 -1.2890  0.3574
13174TIP3   OH260936   4.158   1.419   3.479  0.1036  0.0704  0.1812
13174TIP3    H160937   4.106   1.488   3.439  0.4174  0.6641  0.7732
13174TIP3    H260938   4.155   1.346   3.417  0.6042  0.9741 -0.9206
13175TIP3   OH260939   3.938   0.903  14.741 -0.3093  0.5608 -0.1524
13175TIP3    H160940   3.895   0.817  14.737 -0.2551  0.5742 -1.7437
13175TIP3    H260941   3.877   0.958  14.789 -1.2670  0.1113 -0.8158
13176TIP3   OH260942   0.434   5.126  14.144  0.1239 -0.1620  0.3001
13176TIP3    H160943   0.413   5.039  14.110 -1.5588  0.7842 -1.2749
13176TIP3    H260944   0.524   5.142  14.116  0.3487 -1.2776  0.3621
13177TIP3   OH260945   3.108   3.213   1.241  0.3365 -0.0226 -0.3897
13177TIP3    H160946   3.039   3.161   1.199 -1.7051  0.5386  1.9793
13177TIP3    H260947   3.189   3.168   1.218 -1.1059 -2.9543 -0.3070
13178TIP3   OH260948   1.229   4.591   1.370  0.1157 -0.2513  0.9537
13178TIP3    H160949   1.159   4.597   1.435  0.3829 -1.4641  1.3787
13178TIP3    H260950   1.274   4.509   1.391  0.2480 -0.6329 -0.7309
13179TIP3   OH260951   6.034   4.727   2.983 -0.0882  0.6106 -0.7417
13179TIP3    H160952   5.991   4.813   2.988  0.3855  0.9049 -1.5520
13179TIP3    H260953   6.097   4.736   2.912 -0.6744 -0.7016 -1.4555
13180TIP3   OH260954   1.698   1.959   0.483  0.2526 -0.6009 -0.0747
13180TIP3    H160955   1.774   2.012   0.507 -0.2615  0.2017 -0.2029
13180TIP3    H260956   1.655   2.008   0.413 -1.2568 -0.2647  1.0388
13181TIP3   OH260957   1.978   0.272  16.015  0.5445 -0.8939 -0.2969
13181TIP3    H160958   1.939   0.202  15.963  0.9560 -1.5962  0.3268
13181TIP3    H260959   2.028   0.227  16.083  1.1641 -0.0026 -0.1408
13182TIP3   OH260960   0.167   2.679   2.827  0.0477  0.2834 -0.0071
13182TIP3    H160961   0.116   2.750   2.786 -0.2999  0.0844  0.0763
13182TIP3    H260962   0.103   2.609   2.842 -0.0463  0.6874  1.7167
13183TIP3   OH260963   3.761   3.689  16.038 -0.2257 -0.2830 -0.0351
13183TIP3    H160964   3.691   3.639  16.079 -1.2611  1.2277  0.1166
13183TIP3    H260965   3.719   3.734  15.965  0.5133  0.8566  0.2219
13184TIP3   OH260966   4.226   2.852   4.864 -0.3339 -0.3428 -0.1370
13184TIP3    H160967   4.142   2.847   4.909 -0.8192  0.7636 -0.8878
13184TIP3    H260968   4.205   2.876   4.774  0.8110  0.3182 -0.2503
13185TIP3   OH260969   0.091   0.946  13.159 -0.1511  0.0260  0.6544
13185TIP3    H160970   0.096   0.996  13.240 -0.1571  2.5064 -0.7714
13185TIP3    H260971  -0.002   0.920  13.153  0.0288 -1.0022  1.8346
13186TIP3   OH260972   5.851   4.736  13.594 -0.2659  0.0098 -0.7509
13186TIP3    H160973   5.940   4.714  13.618 -0.7048 -2.6785 -1.1800
13186TIP3    H260974   5.855   4.754  13.500 -0.1045  0.3417 -0.6793
13187TIP3   OH260975   1.198   4.614  16.901 -0.2472  0.2783 -0.4836
13187TIP3    H160976   1.281   4.647  16.865  0.6009  0.4441  1.5001
13187TIP3    H260977   1.180   4.670  16.976 -2.3654  0.4381 -1.0377
13188TIP3   OH260978   0.522   5.625  17.216  0.0610 -0.3589 -0.0954
13188TIP3    H160979   0.488   5.638  17.305  0.4908 -1.2293  0.2101
13188TIP3    H260980   0.451   5.654  17.159  0.7022  2.6241  0.4735
13189TIP3   OH260981   0.984   1.037  15.870  0.0950 -0.4008 -0.3742
13189TIP3    H160982   0.998   1.131  15.876 -0.9890 -0.3269  2.6297
13189TIP3    H260983   0.889   1.028  15.865 -0.0037 -1.3087  1.8782
13190TIP3   OH260984   2.680   5.816  12.850  0.2944  0.2279  0.0038
13190TIP3    H160985   2.641   5.779  12.930 -1.4779 -0.4965 -1.1192
13190TIP3    H260986   2.668   5.911  12.859 -3.3314  0.0289 -0.9051
13191TIP3   OH260987   2.309   6.711   1.905 -0.3029  0.2873 -0.1216
13191TIP3    H160988   2.350   6.778   1.961  1.8422 -0.0458 -1.1605
13191TIP3    H260989   2.327   6.629   1.951  1.0825  0.0559 -1.0122
13192TIP3   OH260990   2.342   0.907   3.681 -0.7625 -0.1877 -0.4186
13192TIP3    H160991   2.329   0.928   3.773  1.4469 -0.0211 -0.0847
13192TIP3    H260992   2.390   0.982   3.646  0.4425 -1.2467 -1.1107
13193TIP3   OH260993   3.432   1.449   0.707 -0.1273  0.8100 -0.4319
13193TIP3    H160994   3.486   1.381   0.747 -2.1015 -0.0923  0.8706
13193TIP3    H260995   3.451   1.527   0.758 -0.5745  0.3164  0.5237
13194TIP3   OH260996   4.271   2.908  12.922 -0.3911  0.0936  0.4008
13194TIP3    H160997   4.284   3.002  12.928 -0.4745  0.0495  1.2752
13194TIP3    H260998   4.276   2.876  13.012  2.4462 -1.1113 -0.0594
13195TIP3   OH260999   3.480   4.622  12.062  0.4500  0.0457  0.7663
13195TIP3    H161000   3.492   4.527  12.053 -1.5149 -0.1496 -0.2947
13195TIP3    H261001   3.569   4.657  12.061  1.1840 -1.7058  0.0542
13196TIP3   OH261002   0.058   6.406  13.480 -0.4358  0.0808  0.0068
13196TIP3    H161003   0.048   6.311  13.469  1.1012 -0.1160  0.1540
13196TIP3    H261004   0.052   6.441  13.392  1.0298 -0.3905 -0.3132
13197TIP3   OH261005   6.035   3.170  11.321  0.0926 -0.1608  0.4415
13197TIP3    H161006   6.024   3.081  11.356 -0.1872 -0.3328 -0.0673
13197TIP3    H261007   5.998   3.165  11.233  1.1799  0.1577 -0.0359
13198TIP3   OH261008   2.322   3.229   1.999  0.3131 -0.2066  0.4123
13198TIP3    H161009   2.313   3.278   2.080 -1.7964  0.3535 -0.0965
13198TIP3    H261010   2.351   3.294   1.935  4.0444 -1.0509  1.0387
13199TIP3   OH261011   3.339   1.854   1.489 -0.4212  0.0318  0.3526
13199TIP3    H161012   3.427   1.893   1.484 -0.0598 -0.6793  1.0108
13199TIP3    H261013   3.283   1.915   1.441 -0.0975  1.9915  2.3004
13200TIP3   OH261014   5.480   4.493  10.563 -0.5714 -0.5088  0.9229
13200TIP3    H161015   5.519   4.451  10.640 -2.4307 -1.8155  1.2075
13200TIP3    H261016   5.517   4.444  10.488 -0.9239 -1.1193  1.1395
13201TIP3   OH261017   6.152   1.435  12.995 -0.3635 -0.1926 -0.4145
13201TIP3    H161018   6.086   1.379  13.036  1.7448 -0.7091  2.6568
13201TIP3    H261019   6.201   1.377  12.937 -0.5082 -0.6302 -0.1058
13202TIP3   OH261020   0.907   0.311   2.655  0.1790 -0.3062  0.2014
13202TIP3    H161021   0.841   0.297   2.587  0.2536  0.7862 -0.1133
13202TIP3    H261022   0.986   0.334   2.607  0.2049  0.5752  0.6464
13203TIP3   OH261023   4.412   1.775  11.907 -0.3869 -0.3445 -0.2396
13203TIP3    H161024   4.460   1.850  11.874 -0.5953 -0.7296 -1.4769
13203TIP3    H261025   4.475   1.703  11.905 -1.2312 -1.1643 -3.1054
13204TIP3   OH261026   4.584   0.636   6.281  0.2829  0.5255 -0.0848
13204TIP3    H161027   4.622   0.717   6.314  0.6186 -0.4436  2.1127
13204TIP3    H261028   4.618   0.568   6.339 -1.2994 -0.9856 -0.8152
13205TIP3   OH261029   6.251   4.434  12.082 -0.3232 -0.5326 -0.5734
13205TIP3    H161030   6.287   4.510  12.129  2.5387 -0.8647 -2.0129
13205TIP3    H261031   6.206   4.384  12.150  2.5764 -0.3760  1.6641
13206TIP3   OH261032   1.966   3.270  16.064  0.3213 -0.8533 -0.1900
13206TIP3    H161033   2.026   3.296  16.133  0.3859  0.2831 -0.6625
13206TIP3    H261034   1.893   3.331  16.071  0.6506 -0.2623 -1.5532
13207TIP3   OH261035   1.797   3.017  13.883  0.3064 -0.3292  0.5177
13207TIP3    H161036   1.817   2.983  13.795 -1.0103  0.9487 -0.3369
13207TIP3    H261037   1.872   3.071  13.906  0.2048  0.1842 -0.3155
13208TIP3   OH261038   2.284   3.676  14.963  0.4500  0.2567  0.0635
13208TIP3    H161039   2.265   3.593  14.920  2.3129 -1.0826  1.6313
13208TIP3    H261040   2.258   3.663  15.054  0.7764  1.4020  0.3476
13209TIP3   OH261041   0.745   2.170  11.961  0.5000 -0.2237  0.0068
13209TIP3    H161042   0.652   2.149  11.966 -0.2455  2.1907 -1.6798
13209TIP3    H261043   0.749   2.246  11.903  3.6709 -1.0235 -1.0067
13210TIP3   OH261044   0.607   3.809   5.925  0.3224  1.3189  0.2423
13210TIP3    H161045   0.665   3.782   5.996  0.7465  1.8122  0.0873
13210TIP3    H261046   0.602   3.904   5.933 -0.7341  1.2547  0.4566
13211TIP3   OH261047   1.433   0.238  11.850 -0.1279 -0.0566 -1.1515
13211TIP3    H161048   1.491   0.162  11.860  0.1700  0.4331  1.9870
13211TIP3    H261049   1.490   0.308  11.821  1.0149  0.3864  1.7734
13212TIP3   OH261050   6.152   1.349   0.455  1.0613 -0.7804  0.4830
13212TIP3    H161051   6.160   1.299   0.374  1.6717  0.9491 -0.5807
13212TIP3    H261052   6.180   1.437   0.432  0.9718 -0.1571  2.5217
13213TIP3   OH261053   6.398   5.403   1.107  0.1750  0.0711 -0.1223
13213TIP3    H161054   6.426   5.431   1.194  0.3851 -2.1284  0.5784
13213TIP3    H261055   6.477   5.405   1.054  0.0788  1.2524 -0.2524
13214TIP3   OH261056   2.908   4.222   1.954 -0.1392  0.3885  0.0697
13214TIP3    H161057   2.820   4.204   1.989  0.2982 -1.7870  0.2192
13214TIP3    H261058   2.903   4.312   1.921 -2.7616 -0.0196 -0.9135
13215TIP3   OH261059   1.178   4.097   1.862 -0.0490  0.0993 -0.4207
13215TIP3    H161060   1.193   4.004   1.881 -1.7479 -0.3284 -1.0177
13215TIP3    H261061   1.264   4.129   1.833  0.8585 -0.9612  0.9446
13216TIP3   OH261062   1.146   5.390   3.482 -0.3456  0.1314 -0.1267
13216TIP3    H161063   1.183   5.394   3.394 -2.5221 -1.1330 -1.1788
13216TIP3    H261064   1.189   5.461   3.529  0.2101  1.4544 -2.4765
13217TIP3   OH261065   5.662   5.135   3.872 -0.3054  0.7799  0.1030
13217TIP3    H161066   5.670   5.215   3.820  1.7669  1.1758  0.9549
13217TIP3    H261067   5.568   5.117   3.872 -0.7237  2.6263 -0.9623
13218TIP3   OH261068   3.464   4.765  12.565  0.0384  0.3686 -0.8930
13218TIP3    H161069   3.455   4.858  12.587 -1.1246  0.5245 -1.9268
13218TIP3    H261070   3.432   4.758  12.475  0.8011 -0.9190 -1.0931
13219TIP3   OH261071   6.631   2.775   4.979  0.3006  0.0725  0.4098
13219TIP3    H161072   6.675   2.690   4.979  0.4225  0.1089 -0.9100
13219TIP3    H261073   6.556   2.763   5.036  0.5873 -0.7754  0.6270
13220TIP3   OH261074   5.110   4.596   6.531  0.7889 -0.0861  0.3312
13220TIP3    H161075   5.143   4.627   6.616 -3.7025  0.6817  2.0755
13220TIP3    H261076   5.063   4.515   6.552 -0.4291  0.1256 -1.4007
13221TIP3   OH261077   3.941   0.749  14.409 -0.0855 -0.7152 -0.4068
13221TIP3    H161078   3.883   0.747  14.485 -1.2888  0.0747 -1.2614
13221TIP3    H261079   3.962   0.657  14.392  0.5800 -0.8775  1.1264
13222TIP3   OH261080   5.200   1.264  12.690  0.3763 -0.4054  0.3181
13222TIP3    H161081   5.260   1.319  12.739 -0.4298  1.6498 -0.8915
13222TIP3    H261082   5.241   1.253  12.604 -0.3354 -0.1237 -0.0638
13223TIP3   OH261083   3.105   5.815   2.060 -0.3362  0.1264  0.2182
13223TIP3    H161084   3.070   5.751   1.998 -0.5305 -0.6671  1.1344
13223TIP3    H261085   3.101   5.898   2.012  0.3855 -0.5997 -1.1682
13224TIP3   OH261086   5.406   5.767  15.594 -0.1215 -1.0026 -0.4548
13224TIP3    H161087   5.373   5.813  15.517  1.5262 -0.8520 -1.1148
13224TIP3    H261088   5.473   5.825  15.630 -0.5418 -1.2836  0.8331
13225TIP3   OH261089   1.369   4.709   2.000  0.3514 -0.3817  0.1976
13225TIP3    H161090   1.358   4.747   1.913 -2.4722 -1.1435  0.1116
13225TIP3    H261091   1.312   4.761   2.056  0.4922 -1.2183  1.1499
13226TIP3   OH261092   6.531   6.234  13.389 -0.6073  0.2728  0.6020
13226TIP3    H161093   6.470   6.163  13.369 -1.2051 -0.1286  3.3980
13226TIP3    H261094   6.602   6.223  13.326 -1.0824 -2.3197  0.3769
13227TIP3   OH261095   5.829   1.279  14.148 -0.4101 -0.0701  0.8243
13227TIP3    H161096   5.834   1.375  14.146  1.4130 -0.0938  2.0275
13227TIP3    H261097   5.798   1.255  14.060  2.7422  1.5029 -0.9112
13228TIP3   OH261098   5.601   3.446  14.693 -0.0512  0.2236  0.0320
13228TIP3    H161099   5.673   3.435  14.755  1.4272  0.2742 -1.6215
13228TIP3    H261100   5.583   3.357  14.661 -0.9587  0.1674  0.6520
13229TIP3   OH261101   5.705   0.053   2.662  0.3464 -0.0853 -0.4441
13229TIP3    H161102   5.719  -0.015   2.596 -0.0674  1.0251 -1.7163
13229TIP3    H261103   5.739   0.133   2.621 -1.0177  0.8553  0.1954
13230TIP3   OH261104   2.231   0.684   1.436  0.1159 -0.1546  0.6113
13230TIP3    H161105   2.300   0.646   1.381  0.7091  0.4725  0.9050
13230TIP3    H261106   2.249   0.650   1.524 -0.1058 -0.1973  0.6403
13231TIP3   OH261107   6.331   5.377   4.948  0.0149 -0.8645  0.3004
13231TIP3    H161108   6.403   5.438   4.935 -2.8736  3.1146  0.7488
13231TIP3    H261109   6.275   5.388   4.871 -1.4369 -1.6373  1.1834
13232TIP3   OH261110   5.621   0.636  11.927 -0.5918 -0.3931 -0.5888
13232TIP3    H161111   5.547   0.574  11.923 -0.4211 -0.5805 -0.8576
13232TIP3    H261112   5.639   0.645  12.021 -0.8272 -0.5023 -0.5315
13233TIP3   OH261113   2.876   6.386  11.410 -0.0519 -0.5026 -0.2505
13233TIP3    H161114   2.915   6.453  11.466  0.6108 -0.4395 -0.7792
13233TIP3    H261115   2.928   6.388  11.329  0.8450 -2.5683  0.2043
13234TIP3   OH261116   0.088   3.131   5.319 -0.1345 -0.2956  0.0381
13234TIP3    H161117   0.094   3.101   5.410  0.0392 -0.7162 -0.1076
13234TIP3    H261118   0.166   3.186   5.308  0.6183 -1.3813 -0.2607
13235TIP3   OH261119   5.757   2.178   5.750  0.5662  0.8248  0.1042
13235TIP3    H161120   5.808   2.224   5.817 -0.9390  0.6003  1.4638
13235TIP3    H261121   5.702   2.117   5.799 -0.5064  0.5522 -1.3605
13236TIP3   OH261122   3.399   5.431   0.802 -0.1750  0.1626 -0.0311
13236TIP3    H161123   3.350   5.372   0.858  1.0697 -0.9442 -0.0719
13236TIP3    H261124   3.419   5.379   0.724  2.1766  0.0996  0.5311
13237TIP3   OH261125   2.476   0.467   6.220  0.1826  0.1685 -0.5257
13237TIP3    H161126   2.420   0.545   6.218  0.1994  0.3054  1.7824
13237TIP3    H261127   2.559   0.498   6.256  0.5196 -0.7539 -0.4893
13238TIP3   OH261128   5.330   6.725  14.547  0.0881  0.3834  0.3951
13238TIP3    H161129   5.410   6.754  14.591  1.3433 -1.5755 -0.4638
13238TIP3    H261130   5.316   6.636  14.579  0.1799 -0.5506 -1.9297
13239TIP3   OH261131   2.586   3.814  15.917  0.9760 -0.2261 -1.2218
13239TIP3    H161132   2.550   3.745  15.861 -1.4396 -1.6286  1.8105
13239TIP3    H261133   2.560   3.895  15.873 -0.9775 -1.2454 -2.1031
13240TIP3   OH261134   1.046   2.259   3.929  0.3809  0.0964  1.0447
13240TIP3    H161135   0.966   2.312   3.928  0.8421  0.8088  0.7368
13240TIP3    H261136   1.018   2.174   3.963 -0.8866 -0.3259 -0.9196
13241TIP3   OH261137   5.874   6.496   5.375  0.0090  0.5101 -0.6366
13241TIP3    H161138   5.888   6.449   5.457  0.9282 -1.6587 -1.9343
13241TIP3    H261139   5.943   6.562   5.373  2.9610 -2.3196 -1.5597
13242TIP3   OH261140   4.734   1.152  16.701  0.3710  0.4382  0.1337
13242TIP3    H161141   4.789   1.224  16.732  1.0002 -0.1780  0.4649
13242TIP3    H261142   4.678   1.130  16.775  0.0190  0.7367 -0.0438
13243TIP3   OH261143   1.084   0.993   1.069  0.4314  0.3746  0.1540
13243TIP3    H161144   1.087   0.946   1.153  1.6958 -0.6820 -0.4402
13243TIP3    H261145   0.992   1.012   1.055  0.1692  0.3213  1.6496
13244TIP3   OH261146   0.422   0.295  15.749  0.4596 -0.2372 -0.1653
13244TIP3    H161147   0.433   0.368  15.688 -0.3824  0.2180  0.2174
13244TIP3    H261148   0.355   0.240  15.709 -0.1949  0.1354  0.4128
13245TIP3   OH261149   2.058   2.324   2.368 -0.1482  0.1938  0.2394
13245TIP3    H161150   2.106   2.288   2.443 -0.5657  2.6815  1.8318
13245TIP3    H261151   2.113   2.396   2.336  0.0768 -0.8926 -1.9956
13246TIP3   OH261152   1.578   0.926   1.604 -0.2006 -0.0182  0.0513
13246TIP3    H161153   1.525   0.966   1.535 -1.3173 -0.1798  0.7921
13246TIP3    H261154   1.564   0.832   1.592  0.5483 -0.1022 -0.2217
13247TIP3   OH261155   6.406   2.287   0.021  0.1137 -0.2687  0.1996
13247TIP3    H161156   6.322   2.332   0.027  0.5381  0.8076 -1.4690
13247TIP3    H261157   6.390   2.215  -0.040  0.0916 -0.8406  0.8725
13248TIP3   OH261158   2.625   2.676  15.177 -0.1185 -0.3168 -0.0738
13248TIP3    H161159   2.563   2.603  15.178 -0.1113 -0.3219  0.4524
13248TIP3    H261160   2.644   2.693  15.270  0.8668 -0.4839 -0.2330
13249TIP3   OH261161   2.195   5.641   2.310  0.3698  0.5061  0.0939
13249TIP3    H161162   2.287   5.654   2.286  0.4461  2.8608  1.3389
13249TIP3    H261163   2.152   5.614   2.228  1.9992  0.2032 -0.6978
13250TIP3   OH261164   2.056   0.881  14.009  0.5364 -0.3175  0.1319
13250TIP3    H161165   2.062   0.976  13.998 -0.4239 -0.3335 -0.7108
13250TIP3    H261166   2.081   0.865  14.100 -0.8949  0.9139  0.7882
13251TIP3   OH261167   6.263   3.463   4.629 -0.1569  0.4671  0.3732
13251TIP3    H161168   6.340   3.463   4.572 -0.7253 -0.3438 -0.4124
13251TIP3    H261169   6.193   3.502   4.576 -0.4114  0.7997  0.9338
13252TIP3   OH261170   3.437   2.682   3.576  0.1515  0.1255 -0.0397
13252TIP3    H161171   3.503   2.737   3.618 -0.5936  0.0752  1.2530
13252TIP3    H261172   3.457   2.593   3.607 -1.6785  0.3478  2.0432
13253TIP3   OH261173   1.658   6.306   4.698  0.2156 -0.4435 -0.5004
13253TIP3    H161174   1.727   6.267   4.645  1.3922 -0.0729  0.7023
13253TIP3    H261175   1.649   6.247   4.773  0.3054  0.3082  0.1109
13254TIP3   OH261176   6.345   5.639   4.602 -0.3793 -0.6845  0.3973
13254TIP3    H161177   6.280   5.704   4.628 -1.1119 -1.2273 -0.0261
13254TIP3    H261178   6.295   5.557   4.592  0.5288 -1.3205  0.9523
13255TIP3   OH261179   4.138   3.900  13.136  0.5694 -0.1235  0.4476
13255TIP3    H161180   4.058   3.875  13.180  0.4009  0.9439  0.7636
13255TIP3    H261181   4.110   3.960  13.066  0.9843 -0.6126 -0.1589
13256TIP3   OH261182   3.295   4.933   5.533  0.2116 -0.2855  0.0872
13256TIP3    H161183   3.333   4.921   5.620  1.0911  0.2167 -0.2053
13256TIP3    H261184   3.201   4.941   5.548  0.3082 -0.6907  0.9372
13257TIP3   OH261185   4.143   6.628  12.991 -0.1033  0.3452  0.4380
13257TIP3    H161186   4.073   6.603  12.931  1.5100 -0.6220 -1.1451
13257TIP3    H261187   4.141   6.724  12.992 -1.0079  0.3399 -0.0974
13258TIP3   OH261188   4.377   5.364   4.060  0.2027  0.2933 -0.1618
13258TIP3    H161189   4.295   5.408   4.036  0.8649  1.1211 -0.9787
13258TIP3    H261190   4.406   5.322   3.980  0.9228  0.5834 -0.0567
13259TIP3   OH261191   5.360   2.361  12.742 -0.1465  0.5257 -0.0637
13259TIP3    H161192   5.269   2.349  12.715  0.5239 -0.8988 -1.9019
13259TIP3    H261193   5.361   2.335  12.834 -1.8108  1.8003  0.3622
13260TIP3   OH261194   6.685   5.484  15.137  0.3739  0.0744 -0.4586
13260TIP3    H161195   6.626   5.414  15.107  0.9996 -0.1629 -1.1548
13260TIP3    H261196   6.745   5.440  15.197 -1.0225  0.5931  1.3921
13261TIP3   OH261197   4.889   6.057  17.018 -0.1031 -0.2014  0.1184
13261TIP3    H161198   4.916   5.990  16.955  1.0062 -0.0635  0.4276
13261TIP3    H261199   4.912   6.140  16.975 -1.4417  0.0038 -0.2494
13262TIP3   OH261200   2.573   0.848  13.424  0.3553 -0.3964 -0.1360
13262TIP3    H161201   2.663   0.849  13.389 -0.4691 -3.3129 -2.8233
13262TIP3    H261202   2.570   0.768  13.476 -0.2191  0.6946  1.5615
13263TIP3   OH261203   6.106   0.844  14.112 -0.2666  0.0959 -0.2486
13263TIP3    H161204   6.110   0.763  14.162  2.4560  0.8349  0.8869
13263TIP3    H261205   6.137   0.911  14.172 -0.1735  1.5899 -1.8850
13264TIP3   OH261206   3.097   1.332  13.217 -0.0585  0.2899  0.0770
13264TIP3    H161207   3.149   1.382  13.156 -2.6638  3.2745  0.0518
13264TIP3    H261208   3.134   1.351  13.303  1.0449 -0.5654 -0.1909
13265TIP3   OH261209   5.549   0.916   4.248  0.2341 -0.0793 -1.2385
13265TIP3    H161210   5.579   0.826   4.260 -0.1312 -0.3451 -2.2072
13265TIP3    H261211   5.557   0.956   4.335  1.6302 -0.6596 -1.0804
13266TIP3   OH261212   3.990   1.241  14.238 -0.5944  0.0579 -0.4344
13266TIP3    H161213   4.081   1.216  14.251 -0.7312 -0.8142 -1.1180
13266TIP3    H261214   3.943   1.159  14.228 -1.2449  0.5312 -1.4599
13267TIP3   OH261215   4.138   1.263  11.444  0.2090 -0.0045  0.5925
13267TIP3    H161216   4.173   1.209  11.372 -1.3141  1.2990 -1.2201
13267TIP3    H261217   4.045   1.271  11.425  0.3355  3.1495  0.8132
13268TIP3   OH261218   5.452   3.006  14.236 -0.1397  0.3301 -0.3458
13268TIP3    H161219   5.509   2.930  14.245 -0.0975  0.3822 -0.1676
13268TIP3    H261220   5.500   3.065  14.177  0.0323  0.4147 -0.1204
13269TIP3   OH261221   1.381   3.987  16.989 -0.0451  0.4879 -0.3733
13269TIP3    H161222   1.327   3.978  16.911 -0.3804 -0.1318 -0.0729
13269TIP3    H261223   1.463   3.943  16.967 -0.0092  0.6141 -0.4958
13270TIP3   OH261224   1.379   3.638  15.729  0.2066  0.0918  0.1116
13270TIP3    H161225   1.341   3.726  15.721  0.5078  0.1365 -0.9249
13270TIP3    H261226   1.381   3.622  15.824 -5.1284 -1.0705  0.3800
13271TIP3   OH261227   5.280   3.301  13.995  0.1276 -0.2423 -0.0880
13271TIP3    H161228   5.238   3.318  14.079  0.9726  1.4106  0.0586
13271TIP3    H261229   5.260   3.379  13.943  2.3323  0.2979 -0.2345
13272TIP3   OH261230   6.713   2.725  13.274 -0.4942 -0.5314  0.1337
13272TIP3    H161231   6.684   2.756  13.189  1.0222  1.6949  0.3385
13272TIP3    H261232   6.795   2.678  13.257  0.6993  1.3231  0.4418
13273TIP3   OH261233   3.652   4.669  15.823  0.1696 -0.3505 -0.4168
13273TIP3    H161234   3.575   4.723  15.844  0.3323  0.3557 -1.5703
13273TIP3    H261235   3.617   4.592  15.778  0.2070  0.6477 -2.2403
13274TIP3   OH261236   5.078   1.268   1.240 -0.6431  0.2859 -0.1352
13274TIP3    H161237   5.133   1.228   1.307  1.9867  1.7564 -1.2910
13274TIP3    H261238   5.041   1.194   1.192  0.4957 -0.7752  0.5648
13275TIP3   OH261239   0.326   2.543  16.541  0.7314 -0.4585 -0.0288
13275TIP3    H161240   0.267   2.523  16.614  0.8047  0.3511  0.2635
13275TIP3    H261241   0.269   2.555  16.466  0.6179 -0.8425 -0.0040
13276TIP3   OH261242   3.490   3.591  16.972 -0.3687  0.2155  0.8543
13276TIP3    H161243   3.555   3.521  16.974 -1.0519 -0.4152  2.0336
13276TIP3    H261244   3.442   3.582  17.054 -0.9189  1.6528  0.7229
13277TIP3   OH261245   3.160   2.186   2.562  0.4509 -0.2765  0.0613
13277TIP3    H161246   3.082   2.153   2.516 -1.5539  1.4527  2.0041
13277TIP3    H261247   3.185   2.115   2.621 -0.2365 -0.5116  0.0789
13278TIP3   OH261248   3.514   0.008  16.737 -1.1604  0.3253 -0.0139
13278TIP3    H161249   3.582   0.071  16.712 -1.2721 -0.1187 -1.5354
13278TIP3    H261250   3.561  -0.074  16.748 -1.3921  0.0715 -0.8278
13279TIP3   OH261251   5.430   2.101   0.768  0.2152  0.1751  0.3583
13279TIP3    H161252   5.460   2.051   0.692  1.7112 -1.4604  1.9172
13279TIP3    H261253   5.510   2.120   0.817 -0.5687  2.2487  0.9587
13280TIP3   OH261254   2.009   2.656  16.741 -0.2214 -0.9210  0.4694
13280TIP3    H161255   1.982   2.586  16.801  0.5685 -0.7057  1.0936
13280TIP3    H261256   1.997   2.736  16.791  0.9500 -0.7781  0.5398
13281TIP3   OH261257   4.956   0.266   6.692 -0.5549 -0.1568 -0.5622
13281TIP3    H161258   5.034   0.228   6.733 -0.2343 -0.5358 -1.4921
13281TIP3    H261259   4.885   0.207   6.716 -0.3955 -0.3038 -0.4483
13282TIP3   OH261260   0.676   1.687  12.094  0.0406 -0.6626 -0.3290
13282TIP3    H161261   0.674   1.727  12.008 -0.4592  1.0376  0.4351
13282TIP3    H261262   0.768   1.670  12.111  0.0410 -2.5160 -1.8073
13283TIP3   OH261263   1.430   1.515   4.194  0.1836 -0.0251 -0.7394
13283TIP3    H161264   1.354   1.462   4.169 -1.9222  2.7242 -0.5674
13283TIP3    H261265   1.459   1.476   4.277 -0.2225 -1.8808 -1.4154
13284TIP3   OH261266   3.136   0.556  10.897 -0.0566 -0.7229 -0.1002
13284TIP3    H161267   3.059   0.586  10.848 -1.0278 -1.2481  1.0395
13284TIP3    H261268   3.145   0.464  10.873 -0.7585 -1.0820  0.9319
13285TIP3   OH261269   1.602   2.298   2.785 -0.0429 -0.1472  0.0310
13285TIP3    H161270   1.677   2.294   2.844  0.1072  1.2793 -0.0336
13285TIP3    H261271   1.528   2.322   2.841 -0.1885 -0.2262 -0.1259
13286TIP3   OH261272   1.645   3.836  11.567  0.0791 -0.1648  0.1760
13286TIP3    H161273   1.710   3.790  11.514 -0.2868  0.1618 -0.5638
13286TIP3    H261274   1.569   3.844  11.510  0.1475  1.4128  0.2678
13287TIP3   OH261275   3.430   4.074   5.238 -0.3518  0.9149 -0.0409
13287TIP3    H161276   3.479   4.078   5.157  0.9952 -4.5357  0.1167
13287TIP3    H261277   3.491   4.104   5.305  0.6356 -0.0393 -0.4916
13288TIP3   OH261278   3.305   0.411   4.181 -0.1451  0.2193  0.3059
13288TIP3    H161279   3.393   0.450   4.176 -0.0453 -0.0879 -0.5893
13288TIP3    H261280   3.283   0.412   4.274 -0.1044  2.3108  0.3318
13289TIP3   OH261281   5.651   4.394  15.599  0.1614  0.2300  0.0006
13289TIP3    H161282   5.674   4.485  15.582 -1.5529  0.9829  1.3893
13289TIP3    H261283   5.735   4.350  15.612  1.2976  0.7607 -4.1781
13290TIP3   OH261284   3.986   5.982  14.820 -0.0223  0.0529  0.7978
13290TIP3    H161285   3.944   6.067  14.807 -1.3494 -0.7151 -0.2104
13290TIP3    H261286   4.029   5.989  14.906  2.1000  2.5856 -0.3517
13291TIP3   OH261287   2.903   0.600  10.760 -0.1188 -0.0931 -0.6076
13291TIP3    H161288   2.903   0.674  10.699  0.5982  1.2178  0.9057
13291TIP3    H261289   2.929   0.525  10.706  0.7234  1.0431 -1.8622
13292TIP3   OH261290   4.599   3.718  15.519 -0.1507  0.3598  0.2220
13292TIP3    H161291   4.604   3.667  15.600  1.6543  0.3597  0.1400
13292TIP3    H261292   4.572   3.805  15.547  1.9265  0.7912  1.0643
13293TIP3   OH261293   5.869   1.611   1.385 -0.0790  0.5362  0.5003
13293TIP3    H161294   5.782   1.649   1.375  0.4611  1.3169 -1.7546
13293TIP3    H261295   5.854   1.519   1.404 -1.3956  0.6104 -0.1238
13294TIP3   OH261296   1.600   6.152  16.690  0.3381 -0.0644 -0.0358
13294TIP3    H161297   1.606   6.083  16.756 -1.7707 -0.9004 -0.6648
13294TIP3    H261298   1.507   6.158  16.669  0.5342  2.4892 -0.5430
13295TIP3   OH261299   1.905   3.760   2.251 -0.1029  0.0151  0.3937
13295TIP3    H161300   1.872   3.768   2.161 -0.3190  0.4457  0.5079
13295TIP3    H261301   1.833   3.792   2.306  0.8255  1.9365  0.5895
13296TIP3   OH261302   4.462   2.847  14.297 -0.7229 -0.1697 -0.3838
13296TIP3    H161303   4.414   2.782  14.245 -1.5702 -1.1526  1.5336
13296TIP3    H261304   4.514   2.795  14.359  1.7111  0.9197 -1.3788
13297TIP3   OH261305   1.177   6.035   0.729 -0.3903 -0.6486  0.0730
13297TIP3    H161306   1.090   6.058   0.695  0.5119  1.4541 -0.9998
13297TIP3    H261307   1.159   5.981   0.805 -2.6593 -0.1944 -0.0606
13298TIP3   OH261308   5.081   4.127   2.218  0.0062 -0.2954 -0.4393
13298TIP3    H161309   5.036   4.200   2.174  1.8149 -0.3562 -2.5982
13298TIP3    H261310   5.030   4.050   2.194 -1.8395  0.1325  1.7447
13299TIP3   OH261311   4.793   0.796  12.521  0.2233  0.2127  0.3784
13299TIP3    H161312   4.713   0.783  12.572  0.8319 -2.6200  0.7455
13299TIP3    H261313   4.864   0.781  12.584  1.0317  0.4829 -0.4534
13300TIP3   OH261314   3.190   6.322   4.314  0.3388 -0.3058  0.8428
13300TIP3    H161315   3.125   6.340   4.246  1.7430 -0.7053 -0.6825
13300TIP3    H261316   3.265   6.285   4.266  1.0550 -1.4412  2.7190
13301TIP3   OH261317   2.719   1.620  15.364  0.4342 -0.0379  0.2701
13301TIP3    H161318   2.779   1.642  15.436 -2.0273 -0.2794  2.5303
13301TIP3    H261319   2.777   1.609  15.288  3.1734  0.3295  2.1381
13302TIP3   OH261320   2.971   1.773   0.583  0.0812 -0.0947 -1.1132
13302TIP3    H161321   3.052   1.733   0.614 -1.5791 -2.4239  0.6036
13302TIP3    H261322   2.941   1.827   0.656 -0.3387  0.0796 -1.4115
13303TIP3   OH261323   1.614   0.947   3.882  0.5979 -0.6421 -0.4933
13303TIP3    H161324   1.690   0.946   3.824  0.8140 -1.2257 -0.2170
13303TIP3    H261325   1.651   0.962   3.969  0.4378 -1.2220 -0.3172
13304TIP3   OH261326   2.136   1.913   4.599 -0.2156  0.2264  0.0825
13304TIP3    H161327   2.109   1.844   4.538  0.8934 -0.3543  0.2269
13304TIP3    H261328   2.073   1.907   4.671 -2.2080  1.6040 -1.4107
13305TIP3   OH261329   2.160   4.833  14.175  0.0247 -0.1618  0.0798
13305TIP3    H161330   2.236   4.813  14.230 -0.1065 -1.7995 -0.2545
13305TIP3    H261331   2.196   4.842  14.087 -0.1874 -1.5215 -0.1770
13306TIP3   OH261332   1.115   4.506  13.451 -0.7173  0.2178  0.2115
13306TIP3    H161333   1.204   4.539  13.446 -0.6285  0.4810  2.3969
13306TIP3    H261334   1.118   4.421  13.407  0.5463  0.3541  0.0101
13307TIP3   OH261335   0.418   2.782   2.581 -0.1356  0.3210  0.3433
13307TIP3    H161336   0.328   2.789   2.615 -0.0801  0.2363  0.5124
13307TIP3    H261337   0.465   2.732   2.649 -0.2973 -0.8549 -0.3909
13308TIP3   OH261338   2.002   4.241  15.949 -0.2601 -0.2735  0.0384
13308TIP3    H161339   2.061   4.245  15.874 -1.0376 -0.7117 -0.6121
13308TIP3    H261340   2.059   4.224  16.024  0.8684  2.5641 -0.0209
13309TIP3   OH261341   1.239   1.591  13.674  0.4413 -0.4107  0.0965
13309TIP3    H161342   1.173   1.628  13.733 -0.4647 -2.4707  0.4619
13309TIP3    H261343   1.304   1.552  13.732  0.3924 -1.0304 -0.2594
13310TIP3   OH261344   5.186   5.577   5.976  0.4392 -0.4818  0.5313
13310TIP3    H161345   5.267   5.579   6.029  0.8494  0.6808 -0.0912
13310TIP3    H261346   5.214   5.547   5.890 -0.1972 -2.1904  0.8966
13311TIP3   OH261347   4.985   3.407   5.863 -0.0307 -0.3579 -0.0309
13311TIP3    H161348   5.069   3.445   5.886 -1.0094  0.9093  1.7335
13311TIP3    H261349   4.944   3.387   5.947 -0.7657 -2.6871 -0.8586
13312TIP3   OH261350   0.796   1.975  16.267 -0.1855  0.0061  0.6538
13312TIP3    H161351   0.789   1.890  16.311 -0.8906  1.1049  2.7851
13312TIP3    H261352   0.707   2.011  16.270  0.2992  1.2429  0.6707
13313TIP3   OH261353   1.284   5.137  13.966  0.2003 -0.3490  0.2663
13313TIP3    H161354   1.274   5.178  14.052  1.0753 -1.4587  0.9298
13313TIP3    H261355   1.274   5.044  13.983  1.6152 -0.6939 -0.6171
13314TIP3   OH261356   5.023   1.260  14.128 -0.2631 -0.0720 -0.1973
13314TIP3    H161357   5.022   1.278  14.034 -0.9486 -0.4851 -0.2806
13314TIP3    H261358   5.093   1.197  14.140  1.0317  1.3131 -0.1507
13315TIP3   OH261359   3.883   3.017   5.707  0.2542  0.4077 -0.2482
13315TIP3    H161360   3.836   3.076   5.765 -0.0896  0.2560 -0.3692
13315TIP3    H261361   3.859   3.046   5.619 -0.3904 -0.2773 -0.3101
13316TIP3   OH261362   1.508   3.598  16.333  0.2055 -0.6235  0.4282
13316TIP3    H161363   1.430   3.648  16.311  0.2929 -0.2136  1.0383
13316TIP3    H261364   1.481   3.539  16.404  0.2707 -0.9858  0.1574
13317TIP3   OH261365   6.125   5.224  11.842 -0.0910 -0.9007  0.1674
13317TIP3    H161366   6.031   5.218  11.857 -0.4515  0.9611 -1.0788
13317TIP3    H261367   6.134   5.246  11.749  1.6572 -2.4849 -0.1010
13318TIP3   OH261368   6.140   2.312  14.244  0.9774 -0.1243 -0.3611
13318TIP3    H161369   6.090   2.393  14.254  2.2887  0.9040 -1.7805
13318TIP3    H261370   6.138   2.272  14.331 -1.0167  0.6198 -0.0088
13319TIP3   OH261371   4.143   6.775  15.921  0.4588  0.1686 -0.6632
13319TIP3    H161372   4.139   6.871  15.914 -0.4437  0.0916 -1.5224
13319TIP3    H261373   4.065   6.745  15.875  0.2688 -0.9636  0.3531
13320TIP3   OH261374   3.083   1.636  11.715 -0.2418  0.1033  0.1001
13320TIP3    H161375   3.123   1.712  11.673  0.8955 -0.5710 -0.0864
13320TIP3    H261376   3.115   1.561  11.665 -0.1552 -0.6047  1.1710
13321TIP3   OH261377   3.561   4.581   2.980 -0.0277 -0.5139 -0.5133
13321TIP3    H161378   3.598   4.667   3.000 -0.4726 -0.1977 -1.0260
13321TIP3    H261379   3.470   4.587   3.009 -0.4566 -0.3224 -1.8193
13322TIP3   OH261380   4.858   3.917   4.322 -0.0292  0.2644  0.5903
13322TIP3    H161381   4.907   3.905   4.404  0.5151  1.2373  0.4257
13322TIP3    H261382   4.769   3.936   4.351  0.1398  0.5204  0.9583
13323TIP3   OH261383   2.590   6.108  13.554 -0.4485  0.9021 -0.0483
13323TIP3    H161384   2.614   6.016  13.549  2.2035  1.4677  0.8396
13323TIP3    H261385   2.552   6.118  13.642  0.4136  0.8735  0.3344
13324TIP3   OH261386   2.801   2.847  11.767  0.5808 -0.3571 -0.1632
13324TIP3    H161387   2.727   2.816  11.818  1.5368  0.0823  1.5914
13324TIP3    H261388   2.796   2.942  11.772  1.5429 -0.3239  0.4326
13325TIP3   OH261389   2.281   4.756  17.214  0.2964  0.0734  0.0825
13325TIP3    H161390   2.221   4.684  17.237 -0.8537  0.7391 -0.7600
13325TIP3    H261391   2.235   4.805  17.147  0.4295  2.4469  1.6141
13326TIP3   OH261392   4.508   2.126   5.257 -0.5462  0.0440 -0.0347
13326TIP3    H161393   4.441   2.146   5.323 -0.1140 -2.2507  1.2292
13326TIP3    H261394   4.459   2.082   5.187 -0.5969 -0.3012  0.2104
13327TIP3   OH261395   1.501   1.166  13.304  0.4753 -0.2901  0.5927
13327TIP3    H161396   1.569   1.134  13.363  0.7561 -0.7037  0.0482
13327TIP3    H261397   1.478   1.252  13.339  3.7581  1.5138 -1.1828
13328TIP3   OH261398   2.596   5.669   2.906 -0.7482  0.0553 -0.1290
13328TIP3    H161399   2.620   5.705   2.991 -1.5789 -2.2210  1.1532
13328TIP3    H261400   2.650   5.717   2.843  0.6239  1.0934  1.7510
13329TIP3   OH261401   2.532   6.242  15.158  0.0923 -0.2803 -0.5261
13329TIP3    H161402   2.565   6.223  15.246 -0.5710 -0.1467 -0.2428
13329TIP3    H261403   2.561   6.331  15.140  2.1160 -1.0338 -1.3453
13330TIP3   OH261404   3.512   3.370   2.337  0.6184  0.1891  0.4002
13330TIP3    H161405   3.604   3.353   2.360 -0.0924 -1.6805  2.2120
13330TIP3    H261406   3.487   3.443   2.394  1.0015  0.7861 -0.1869
13331TIP3   OH261407   5.328   6.176  14.771  0.3757 -0.4382 -0.2210
13331TIP3    H161408   5.344   6.216  14.857  0.1770 -1.0162  0.0888
13331TIP3    H261409   5.248   6.126  14.782  0.0573 -0.0878 -0.9013
13332TIP3   OH261410   1.090   2.798   4.677  0.0032 -0.2237  0.0080
13332TIP3    H161411   1.078   2.839   4.763 -0.2642 -1.8272  0.7675
13332TIP3    H261412   1.077   2.870   4.614 -1.1190  0.6995  1.2488
13333TIP3   OH261413   5.765   6.367   2.958 -0.3292  0.7810  0.0829
13333TIP3    H161414   5.833   6.337   2.896 -0.8349  0.4645 -0.3251
13333TIP3    H261415   5.722   6.287   2.987 -2.6881  1.1203 -2.1559
13334TIP3   OH261416   4.899   3.630  15.799 -0.0898 -0.3683  0.0763
13334TIP3    H161417   4.930   3.599  15.884  1.4157 -1.4457 -0.7936
13334TIP3    H261418   4.811   3.595  15.791 -1.1447  1.6260  2.0817
13335TIP3   OH261419   1.546   1.690   1.979 -0.2941 -0.0437  0.1536
13335TIP3    H161420   1.560   1.706   2.073 -1.0692 -1.1341  0.4651
13335TIP3    H261421   1.457   1.658   1.973 -0.5174  0.7585 -1.0707
13336TIP3   OH261422   4.687   4.110   2.742  0.2933 -0.6160  0.3534
13336TIP3    H161423   4.609   4.149   2.784 -0.0087 -0.2478 -0.5109
13336TIP3    H261424   4.657   4.025   2.711  0.3770 -0.6786  0.4437
13337TIP3   OH261425   2.592   3.154   1.448  0.2306  0.2032 -0.6096
13337TIP3    H161426   2.667   3.104   1.482  0.6302  1.0221 -0.2549
13337TIP3    H261427   2.515   3.112   1.486  0.1651 -2.9379 -3.7576
13338TIP3   OH261428   5.839   3.979  15.033 -0.1650 -0.4561 -0.5068
13338TIP3    H161429   5.752   3.990  14.992 -0.2523  0.3001 -0.1265
13338TIP3    H261430   5.873   4.068  15.040  0.9840 -0.8121 -1.3707
13339TIP3   OH261431   2.929   2.309  15.429 -0.0005  0.2674  0.2168
13339TIP3    H161432   2.894   2.225  15.398 -0.5631  0.1189  1.2133
13339TIP3    H261433   2.887   2.322  15.514 -1.5679  2.5651 -0.8144
13340TIP3   OH261434   5.543   3.686  14.528 -0.2898  0.4131  0.2405
13340TIP3    H161435   5.580   3.734  14.602 -0.2216  0.8384 -0.0636
13340TIP3    H261436   5.538   3.595  14.558  1.6615  0.2012  0.0525
13341TIP3   OH261437   2.666   3.740   5.366 -0.2271 -0.0312 -0.1317
13341TIP3    H161438   2.576   3.761   5.340 -0.1696 -0.1494 -0.4357
13341TIP3    H261439   2.656   3.673   5.434 -0.3701 -0.1193 -0.2373
13342TIP3   OH261440   2.165   0.358  14.657 -0.2371  0.1196  0.8283
13342TIP3    H161441   2.220   0.436  14.664  0.4647 -0.4076  1.3620
13342TIP3    H261442   2.114   0.371  14.577  0.0801  0.9905  0.7635
13343TIP3   OH261443   3.307   2.711  13.464  0.2968  0.1436  1.1856
13343TIP3    H161444   3.292   2.661  13.544 -1.4746 -1.2889  0.0441
13343TIP3    H261445   3.401   2.703  13.447  0.5288 -0.3188  2.5828
13344TIP3   OH261446   4.964   0.262  11.496  0.0433 -0.9234  0.3489
13344TIP3    H161447   5.015   0.340  11.475 -0.7567 -0.8663 -1.5984
13344TIP3    H261448   5.009   0.190  11.451 -0.4582 -1.2021  0.2820
13345TIP3   OH261449   3.685   1.431   5.515  0.0731 -0.4446  0.1058
13345TIP3    H161450   3.676   1.340   5.489  1.3860 -0.6610  0.3196
13345TIP3    H261451   3.739   1.428   5.594 -2.6125  0.2958  2.0936
13346TIP3   OH261452   1.730   2.674  13.583 -0.2983 -0.4589  0.4860
13346TIP3    H161453   1.788   2.750  13.591 -2.0525  1.1285 -0.8260
13346TIP3    H261454   1.675   2.679  13.661 -0.3085 -0.4738  0.4800
13347TIP3   OH261455   3.811   5.087   3.757  0.0939 -0.6263 -0.0091
13347TIP3    H161456   3.824   5.124   3.670  1.7525 -0.7155  0.1553
13347TIP3    H261457   3.756   5.150   3.803  0.2502  0.0463 -0.7376
13348TIP3   OH261458   1.401   5.608   1.558 -0.0266  0.0916 -0.1964
13348TIP3    H161459   1.369   5.601   1.648 -0.0662 -3.2286 -0.3761
13348TIP3    H261460   1.373   5.696   1.530 -0.6182  0.9500  2.7491
13349TIP3   OH261461   3.797   1.064  16.850 -0.0419 -0.2450 -0.2812
13349TIP3    H161462   3.746   1.053  16.771 -0.9605 -0.2777  0.3043
13349TIP3    H261463   3.796   0.978  16.892 -0.3638  0.0054  0.2359
13350TIP3   OH261464   3.325   4.138   0.656  0.3518 -0.3273 -0.5329
13350TIP3    H161465   3.246   4.183   0.626  1.2813  0.6381 -1.6348
13350TIP3    H261466   3.396   4.197   0.632  1.4523 -1.3987  0.0037
13351TIP3   OH261467   3.212   5.350  13.826  0.0849 -0.7734 -0.2010
13351TIP3    H161468   3.138   5.331  13.768 -0.1543 -1.0059  0.1676
13351TIP3    H261469   3.285   5.301  13.790  0.4313  0.5356 -1.3569
13352TIP3   OH261470   1.824   5.063   5.090  0.3431 -0.3883 -0.4042
13352TIP3    H161471   1.886   5.002   5.049  1.1066  0.2156 -0.1804
13352TIP3    H261472   1.871   5.147   5.093 -1.2075  0.6016 -2.0294
13353TIP3   OH261473   2.803   5.487   1.386 -0.1895  0.4267 -0.3169
13353TIP3    H161474   2.764   5.408   1.424  2.7815 -1.1960 -0.3111
13353TIP3    H261475   2.818   5.545   1.461  0.1244 -0.2125  0.1277
13354TIP3   OH261476   6.655   0.712   0.323 -0.1535  0.1545 -0.2938
13354TIP3    H161477   6.715   0.786   0.337 -0.5328  0.9004 -2.3112
13354TIP3    H261478   6.704   0.652   0.266 -0.9469  0.3105 -1.1529
13355TIP3   OH261479   1.793   6.241   4.413 -0.5018  0.2965  0.3984
13355TIP3    H161480   1.759   6.240   4.324  0.8401  0.0704 -0.1319
13355TIP3    H261481   1.836   6.157   4.423 -1.6908 -0.1968  1.7094
13356TIP3   OH261482   6.459   0.698  15.586  0.1459 -0.6969  0.4486
13356TIP3    H161483   6.366   0.705  15.610 -0.1605 -1.1568 -0.5410
13356TIP3    H261484   6.469   0.760  15.514  0.7113 -0.3651  0.8045
13357TIP3   OH261485   5.000   1.599   2.644 -0.3820  0.1608  0.1959
13357TIP3    H161486   4.977   1.513   2.611  0.0285  0.2984 -0.4519
13357TIP3    H261487   5.081   1.586   2.693 -0.1702  0.2248 -0.1353
13358TIP3   OH261488   5.451   4.682   3.007  0.0443  0.4233 -0.1383
13358TIP3    H161489   5.530   4.629   3.020 -0.6778 -0.3955  1.2098
13358TIP3    H261490   5.379   4.619   3.014 -0.7570  1.2608 -0.6595
13359TIP3   OH261491   4.267   6.171  12.746  0.4342 -0.1952 -0.3652
13359TIP3    H161492   4.194   6.119  12.779 -0.2824  1.3878  0.6306
13359TIP3    H261493   4.283   6.236  12.813  0.2739  1.8594 -2.1966
13360TIP3   OH261494   6.451   4.068  15.788 -0.1227 -0.1703  0.3642
13360TIP3    H161495   6.357   4.085  15.786 -0.1079  0.0228  0.9748
13360TIP3    H261496   6.491   4.153  15.770 -0.0627 -0.4531 -0.9064
13361TIP3   OH261497   5.842   0.442  12.085  0.4569 -0.0337 -0.5190
13361TIP3    H161498   5.822   0.531  12.056  2.3281  0.1949 -1.2913
13361TIP3    H261499   5.902   0.454  12.160 -3.4978 -0.6230  3.1259
13362TIP3   OH261500   3.768   3.651   0.896 -0.0543 -0.6720  0.0212
13362TIP3    H161501   3.705   3.723   0.899  2.7374  1.9619 -0.5677
13362TIP3    H261502   3.716   3.574   0.922 -3.5650  1.1771 -0.7936
13363TIP3   OH261503   3.702   2.415   6.254  0.3800 -0.6797 -0.2859
13363TIP3    H161504   3.712   2.449   6.343  0.4979 -0.0235 -0.5436
13363TIP3    H261505   3.609   2.391   6.249  0.0370  0.5569 -0.4089
13364TIP3   OH261506   3.804   4.624  16.206 -0.4957 -0.5214 -0.1061
13364TIP3    H161507   3.896   4.623  16.179 -0.2312 -2.0075  0.6956
13364TIP3    H261508   3.790   4.711  16.243  0.0127  0.4187 -1.9985
13365TIP3   OH261509   1.652   5.633   0.644  0.0312  0.0856 -0.1847
13365TIP3    H161510   1.569   5.601   0.680  0.0629 -1.1161 -1.1117
13365TIP3    H261511   1.680   5.564   0.584  3.0024 -0.7813  1.9774
13366TIP3   OH261512   5.248   4.734  16.873 -0.4326  0.0121  0.4942
13366TIP3    H161513   5.301   4.770  16.944  1.3791 -0.5160 -0.5279
13366TIP3    H261514   5.184   4.802  16.854  0.2243  0.9239  1.4146
13367TIP3   OH261515   1.105   5.371   2.596  0.1354 -0.2491  1.2830
13367TIP3    H161516   1.171   5.378   2.665 -0.5997 -0.7335  2.0484
13367TIP3    H261517   1.024   5.351   2.642 -0.6365  0.6818  0.3885
13368TIP3   OH261518   0.027   4.690  11.550  0.0791 -0.1813 -0.5719
13368TIP3    H161519   0.027   4.760  11.615  1.0670 -0.1371 -0.6074
13368TIP3    H261520  -0.036   4.626  11.583  0.6376 -0.2047  0.4744
13369TIP3   OH261521   3.615   0.808  12.381 -0.2207 -0.3333  0.2567
13369TIP3    H161522   3.548   0.820  12.447 -0.9004  0.4286 -0.5520
13369TIP3    H261523   3.586   0.860  12.306  1.7060  0.7569  0.1860
13370TIP3   OH261524   3.125   5.447  12.936  0.2103  0.4665 -0.1710
13370TIP3    H161525   3.061   5.517  12.921  1.5073  1.5831 -0.7419
13370TIP3    H261526   3.209   5.486  12.910  1.4049 -0.2977  2.2631
13371TIP3   OH261527   2.288   1.016  16.972  0.2293 -0.1299  0.6158
13371TIP3    H161528   2.211   0.979  17.014 -0.1005 -0.1307  0.0154
13371TIP3    H261529   2.357   0.952  16.989 -0.2833 -0.9145 -0.2127
13372TIP3   OH261530   3.542   1.932  12.233  0.4181  0.0039  0.7928
13372TIP3    H161531   3.518   1.871  12.163 -3.5414  0.0925  1.7961
13372TIP3    H261532   3.553   2.016  12.188 -0.4882 -0.2552  0.0353
13373TIP3   OH261533   2.776   0.131   1.421 -0.2884 -0.0455 -0.4148
13373TIP3    H161534   2.687   0.125   1.387 -0.3975 -1.0073 -0.0168
13373TIP3    H261535   2.831   0.102   1.348 -0.3885 -0.4363 -0.3401
13374TIP3   OH261536   3.165   3.103  16.726  0.6078  0.2141 -0.2643
13374TIP3    H161537   3.073   3.121  16.742 -0.0162 -2.3328 -0.4759
13374TIP3    H261538   3.206   3.189  16.719 -1.2985  1.4645  2.1759
13375TIP3   OH261539   0.329   2.514  10.455  0.4290  0.2470 -0.2958
13375TIP3    H161540   0.274   2.590  10.438  0.1808  0.4187  1.1641
13375TIP3    H261541   0.414   2.551  10.482  0.1386  0.0472  0.9672
13376TIP3   OH261542   2.412   0.143   1.108  0.4544  0.0342 -0.0838
13376TIP3    H161543   2.458   0.088   1.171  0.4925 -0.0198 -0.1593
13376TIP3    H261544   2.477   0.207   1.078  0.3013  0.3836  0.3148
13377TIP3   OH261545   3.498   2.326   4.721 -0.2064 -0.3556  0.0993
13377TIP3    H161546   3.450   2.264   4.666 -0.5417  1.0993 -1.3650
13377TIP3    H261547   3.457   2.411   4.701 -0.7818  0.1725  3.1363
13378TIP3   OH261548   5.571   6.241  13.033  0.8437  0.0419  0.2249
13378TIP3    H161549   5.665   6.245  13.053  1.4294 -0.1802 -2.1273
13378TIP3    H261550   5.557   6.151  13.002 -0.3856 -0.2298  1.4958
13379TIP3   OH261551   6.200   2.887   4.155 -0.5875  0.5217  0.4672
13379TIP3    H161552   6.239   2.908   4.240 -1.3084  1.8074  0.5068
13379TIP3    H261553   6.130   2.826   4.176 -0.2175  0.1697  0.6928
13380TIP3   OH261554   3.293   0.712  13.199  0.3973 -0.5531  0.4977
13380TIP3    H161555   3.320   0.729  13.289  0.4252  2.2199  0.0542
13380TIP3    H261556   3.199   0.729  13.199  0.5140  0.1151 -0.1218
13381TIP3   OH261557   2.631   1.528  11.871  0.0174 -0.0145 -0.4064
13381TIP3    H161558   2.698   1.483  11.820 -0.3148 -2.3344  1.0389
13381TIP3    H261559   2.678   1.594  11.921  1.1798 -1.2529  0.1938
13382TIP3   OH261560   1.989   3.955  11.179 -0.5333  0.2056 -0.3346
13382TIP3    H161561   1.941   3.908  11.112  0.8532 -1.3431 -0.3099
13382TIP3    H261562   1.927   4.018  11.215 -2.5374 -1.7076 -0.2670
13383TIP3   OH261563   2.031   1.477   5.893 -0.1525  0.2999  0.1838
13383TIP3    H161564   2.110   1.512   5.934  1.5088 -1.3293 -1.3950
13383TIP3    H261565   2.014   1.535   5.819  0.1908  0.0987 -0.0585
13384TIP3   OH261566   2.943   0.445  15.765  0.3689  0.3014 -0.1322
13384TIP3    H161567   3.027   0.489  15.751  1.7816 -1.6790  1.4756
13384TIP3    H261568   2.900   0.497  15.832  0.4808  1.1025 -0.6686
13385TIP3   OH261569   1.597   4.640   4.567 -0.2765 -0.1602  0.0313
13385TIP3    H161570   1.537   4.598   4.504  0.8411 -0.9553 -0.5267
13385TIP3    H261571   1.605   4.730   4.536 -3.1788  0.7694  1.5791
13386TIP3   OH261572   1.765   6.663   4.187 -0.1550 -0.2879  0.2818
13386TIP3    H161573   1.813   6.746   4.196  3.1562 -1.7386 -1.9503
13386TIP3    H261574   1.787   6.615   4.267 -1.5173  0.6346  1.2573
13387TIP3   OH261575   2.940   0.364   3.683  0.1432 -0.2459  0.4682
13387TIP3    H161576   3.030   0.346   3.711 -0.1616 -1.3589  0.8023
13387TIP3    H261577   2.921   0.296   3.618 -0.5810 -0.2549  0.6819
13388TIP3   OH261578   6.119   3.788  15.619  0.0930  0.0069  0.4016
13388TIP3    H161579   6.104   3.700  15.585  0.0513  0.4431 -0.7597
13388TIP3    H261580   6.215   3.795  15.625  0.1461  0.2237 -0.4986
13389TIP3   OH261581   4.378   4.509   6.132  0.0683  0.1399  0.0184
13389TIP3    H161582   4.312   4.518   6.064 -0.4024  0.1538  0.4759
13389TIP3    H261583   4.381   4.415   6.151  0.3825  0.1024 -0.1930
13390TIP3   OH261584   2.713   5.029  17.208 -0.1490  0.2960  0.2505
13390TIP3    H161585   2.689   5.102  17.152 -0.5235 -0.7858 -1.0483
13390TIP3    H261586   2.786   5.062  17.261  0.2889  1.3245 -0.9528
13391TIP3   OH261587   6.422   6.664   2.643 -0.4231 -0.2056  0.2134
13391TIP3    H161588   6.389   6.747   2.677 -4.1376 -1.4808  0.0990
13391TIP3    H261589   6.462   6.621   2.719 -0.5423  0.7040  0.8081
13392TIP3   OH261590   1.678   1.736  16.284  0.4035 -0.0273 -0.0599
13392TIP3    H161591   1.765   1.698  16.296 -0.2182 -1.8952 -1.0176
13392TIP3    H261592   1.694   1.830  16.279  2.2607 -0.2544  0.6319
13393TIP3   OH261593   2.321   6.547   2.877  0.1291 -0.4447 -0.3520
13393TIP3    H161594   2.262   6.475   2.900  1.8556 -3.0637 -3.2255
13393TIP3    H261595   2.389   6.545   2.944 -0.3453 -0.8341  0.1249
13394TIP3   OH261596   3.560   0.837   5.733  0.5893 -0.5289  0.5833
13394TIP3    H161597   3.496   0.893   5.689  0.4700 -0.0571  1.3491
13394TIP3    H261598   3.645   0.868   5.700  0.5453  0.3233  1.2335
13395TIP3   OH261599   5.936   5.952  16.581  0.0860 -0.0112 -0.2190
13395TIP3    H161600   5.955   6.045  16.577 -0.2204  0.0383 -0.5674
13395TIP3    H261601   6.018   5.912  16.612  0.3736  0.3176 -0.5468
13396TIP3   OH261602   4.198   3.524  13.414 -0.5278 -0.7136  0.0323
13396TIP3    H161603   4.250   3.471  13.353  0.8756  0.6340 -0.0242
13396TIP3    H261604   4.127   3.467  13.442  1.2662 -2.8690  0.4979
13397TIP3   OH261605   6.529   1.266  16.521 -0.3871  0.2855  0.2167
13397TIP3    H161606   6.569   1.304  16.443  2.7987 -1.0316  1.0708
13397TIP3    H261607   6.442   1.238  16.491 -0.1264  1.7805 -2.2450
13398TIP3   OH261608   5.841   5.731  14.862 -0.1206 -0.1100 -0.7543
13398TIP3    H161609   5.768   5.733  14.801 -0.4400 -1.2751 -0.4315
13398TIP3    H261610   5.813   5.672  14.932  1.3809 -1.1490 -0.9804
13399TIP3   OH261611   2.735   5.496  14.838  0.4684 -0.7411  0.3746
13399TIP3    H161612   2.699   5.572  14.884  0.1856 -0.2139 -0.6972
13399TIP3    H261613   2.666   5.429  14.847  1.4688 -1.5479  2.9116
13400TIP3   OH261614   0.331   4.248  15.471 -1.1025 -0.2884 -0.4138
13400TIP3    H161615   0.350   4.190  15.544 -0.6732  1.0146  0.5447
13400TIP3    H261616   0.237   4.264  15.476 -1.1041 -0.3461 -0.2614
13401TIP3   OH261617   3.331   5.372  15.465 -0.6069  0.5891  0.9063
13401TIP3    H161618   3.320   5.447  15.524  3.0590  0.2132  2.3443
13401TIP3    H261619   3.381   5.407  15.391 -1.9159  0.2481 -0.1689
13402TIP3   OH261620   0.476   1.292   3.327 -0.4484  0.5364  0.4662
13402TIP3    H161621   0.408   1.225   3.327  0.6668 -0.7197  2.6442
13402TIP3    H261622   0.544   1.257   3.268 -0.6741  0.6847  0.1129
13403TIP3   OH261623   1.150   4.306   2.043 -0.0366 -0.7293  0.5214
13403TIP3    H161624   1.131   4.230   1.988  1.0799 -1.2783  0.8657
13403TIP3    H261625   1.230   4.344   2.005  0.4527 -0.8156  1.4303
13404TIP3   OH261626   0.228   0.517  17.125  0.0969  0.3483  1.0602
13404TIP3    H161627   0.246   0.542  17.034 -0.5876  2.4000  1.4565
13404TIP3    H261628   0.167   0.443  17.117  1.1929 -0.4960 -0.1234
13405TIP3   OH261629   0.335   4.039  14.299  0.5340 -0.1067  0.0443
13405TIP3    H161630   0.266   3.977  14.321  0.0673  0.3356 -0.1705
13405TIP3    H261631   0.291   4.110  14.253  0.6902  1.4394  2.1424
13406TIP3   OH261632   0.804   4.418  16.002  0.5961 -0.0969 -0.3818
13406TIP3    H161633   0.719   4.409  15.960  0.0209  1.9424  0.2499
13406TIP3    H261634   0.866   4.385  15.937 -0.5147  0.1862 -1.6210
13407TIP3   OH261635   2.036   5.805  11.087  0.2843 -0.3337  0.1163
13407TIP3    H161636   1.948   5.817  11.050  0.6905 -1.4493 -1.3260
13407TIP3    H261637   2.075   5.892  11.082 -0.3301 -0.0687 -0.3697
13408TIP3   OH261638   4.647   5.694  14.121  0.3498  0.1548  0.6241
13408TIP3    H161639   4.584   5.695  14.049 -0.0189  1.0926  0.9466
13408TIP3    H261640   4.728   5.661  14.082 -0.0752 -0.1510 -0.0148
13409TIP3   OH261641   0.970   1.661  14.504 -0.2026 -0.1426 -0.2727
13409TIP3    H161642   0.888   1.707  14.484  0.9571  2.4578  0.5409
13409TIP3    H261643   1.004   1.635  14.418 -0.3779  1.5507 -0.8874
13410TIP3   OH261644   6.229   3.129   1.981 -0.3807 -0.0023 -0.3469
13410TIP3    H161645   6.185   3.102   1.900 -1.4925 -1.2630  0.6243
13410TIP3    H261646   6.175   3.200   2.014 -0.9077 -0.6114  0.1270
13411TIP3   OH261647   3.761   1.609   4.468  0.0479 -0.1031  0.6413
13411TIP3    H161648   3.747   1.643   4.556 -0.6452  0.0427  0.4769
13411TIP3    H261649   3.704   1.662   4.412  0.5413 -0.1355  0.0898
13412TIP3   OH261650   4.574   2.610  15.667 -0.3712 -0.3784  0.1683
13412TIP3    H161651   4.607   2.692  15.631  0.3667 -0.7766 -0.0835
13412TIP3    H261652   4.516   2.576  15.598 -1.2994  0.2993  0.5934
13413TIP3   OH261653   2.616   0.957  16.038 -0.2702  0.6742 -0.6314
13413TIP3    H161654   2.631   0.863  16.029  2.1850  1.0054 -0.8975
13413TIP3    H261655   2.589   0.985  15.950  1.7377  0.5634 -1.3523
13414TIP3   OH261656   5.528   0.952   2.868  0.4598  0.2705 -0.0428
13414TIP3    H161657   5.504   0.913   2.784  1.2582  1.0683 -0.6652
13414TIP3    H261658   5.464   1.021   2.882  1.0114  0.8947 -0.5704
13415TIP3   OH261659   1.397   0.388   4.535 -0.0232 -0.0485 -0.6680
13415TIP3    H161660   1.433   0.327   4.470 -1.4921 -0.5759 -1.0295
13415TIP3    H261661   1.302   0.379   4.526 -0.2603  1.1521  0.3713
13416TIP3   OH261662   2.895   4.768   3.420 -0.2838 -0.0318  0.5543
13416TIP3    H161663   2.887   4.706   3.347 -0.2620 -0.7027  1.1159
13416TIP3    H261664   2.841   4.843   3.394  0.9670  0.4470 -0.8698
13417TIP3   OH261665   3.872   6.570   3.523  0.2579  1.1077  0.2852
13417TIP3    H161666   3.828   6.635   3.468 -3.0041  1.1761  2.6910
13417TIP3    H261667   3.949   6.616   3.558  0.7954  1.9607 -1.8633
13418TIP3   OH261668   2.663   3.575  11.795  0.7379  0.5815  0.1076
13418TIP3    H161669   2.728   3.599  11.728  0.0721 -0.7363 -1.0609
13418TIP3    H261670   2.580   3.573  11.748  0.2739 -0.4994  0.9505
13419TIP3   OH261671   5.222   4.400  13.812  0.0604 -0.3597 -0.3269
13419TIP3    H161672   5.149   4.380  13.871  0.8468  0.4818  0.9971
13419TIP3    H261673   5.202   4.351  13.732 -1.6242 -0.6490  0.2126
13420TIP3   OH261674   1.814   3.366  14.148  0.0506  0.2224  0.2311
13420TIP3    H161675   1.728   3.407  14.136  0.5980  1.3976  0.1017
13420TIP3    H261676   1.849   3.407  14.227  0.9768  0.6686 -0.3892
13421TIP3   OH261677   4.739   4.611   4.218 -0.0290  0.0076  0.3344
13421TIP3    H161678   4.648   4.589   4.195  0.2604  0.0768 -0.9635
13421TIP3    H261679   4.744   4.706   4.210  0.0563  0.0421  0.7982
13422TIP3   OH261680   2.159   1.013  15.535  0.2761 -0.5895 -0.1741
13422TIP3    H161681   2.156   0.995  15.441 -1.1737 -1.9644  0.0870
13422TIP3    H261682   2.252   1.006  15.558  0.9060  1.4373 -1.7538
13423TIP3   OH261683   0.162   5.713   6.503  0.0530 -0.4428 -0.0015
13423TIP3    H161684   0.162   5.619   6.483  2.5208 -0.2177 -1.4278
13423TIP3    H261685   0.155   5.718   6.598 -0.1732 -2.0451  0.0920
13424TIP3   OH261686   1.071   2.508  13.087  0.4651 -0.4829  0.2983
13424TIP3    H161687   1.031   2.473  13.007 -1.0115  0.1263  0.7175
13424TIP3    H261688   1.069   2.603  13.074  2.7268 -0.4371 -0.0588
13425TIP3   OH261689   5.989   2.628  13.783  0.5075  0.0470  0.1414
13425TIP3    H161690   5.962   2.628  13.875 -0.0905 -0.9637 -0.0143
13425TIP3    H261691   6.024   2.716  13.768 -1.0095  0.8093  0.8634
13426TIP3   OH261692   3.691   0.419   5.878  0.2456 -0.4750 -0.0243
13426TIP3    H161693   3.715   0.331   5.850 -0.8523 -0.4369 -1.2024
13426TIP3    H261694   3.595   0.416   5.886  0.4311 -0.4238  3.6828
13427TIP3   OH261695   6.469   1.886   4.885 -0.1111  0.1557  0.4080
13427TIP3    H161696   6.504   1.858   4.800 -1.2486 -0.2436  0.0443
13427TIP3    H261697   6.375   1.869   4.878 -0.3959  1.2686  1.3063
13428TIP3   OH261698   4.376   4.880  12.240 -0.2273  0.1201  0.0788
13428TIP3    H161699   4.404   4.966  12.207 -1.0376  1.0078  1.5772
13428TIP3    H261700   4.281   4.882  12.233 -0.2157 -1.0844 -0.7900
13429TIP3   OH261701   0.513   1.376  17.005 -0.3297 -0.0783 -0.1250
13429TIP3    H161702   0.428   1.333  17.019 -1.2844  1.9792  0.9106
13429TIP3    H261703   0.493   1.470  17.010  1.7368  0.5237 -1.6361
13430TIP3   OH261704   6.498   3.698   5.639  0.0636  0.3137  0.3192
13430TIP3    H161705   6.502   3.688   5.734 -0.3845 -2.6667  0.1254
13430TIP3    H261706   6.586   3.724   5.613  0.7709 -0.8647  1.4124
13431TIP3   OH261707   3.696   3.807  11.428 -0.0615 -0.2382  0.7356
13431TIP3    H161708   3.767   3.743  11.430 -1.4669 -1.8518  2.4341
13431TIP3    H261709   3.617   3.755  11.413 -1.0173  1.4181 -0.3841
13432TIP3   OH261710   5.978   5.854   3.202 -0.2387 -0.5286 -0.0817
13432TIP3    H161711   6.045   5.809   3.149  0.3103 -0.4886  0.5657
13432TIP3    H261712   6.011   5.849   3.292 -1.5781 -1.3587  0.3959
13433TIP3   OH261713   2.930   2.070   2.103  0.3544 -0.9641 -0.4649
13433TIP3    H161714   2.989   2.128   2.055  0.7134 -0.8551  0.0989
13433TIP3    H261715   2.974   1.985   2.103  0.1308 -1.0810 -0.7359
13434TIP3   OH261716   2.474   3.918   5.634 -0.0855 -0.5226  0.3444
13434TIP3    H161717   2.466   3.946   5.543  1.6131 -1.0285  0.0077
13434TIP3    H261718   2.490   3.823   5.629  0.8837 -0.4216  1.0984
13435TIP3   OH261719   5.081   3.211  13.354  0.4805 -0.2727 -0.1804
13435TIP3    H161720   5.087   3.130  13.302  0.6247  0.5907 -1.5476
13435TIP3    H261721   5.167   3.221  13.394  0.4444 -0.8130  0.0436
13436TIP3   OH261722   5.841   5.920   0.631 -0.0605  0.0807 -0.6576
13436TIP3    H161723   5.901   5.889   0.698 -0.0384  0.8590 -0.3080
13436TIP3    H261724   5.763   5.867   0.641 -0.9120  1.5921  1.4314
13437TIP3   OH261725   4.784   0.596  14.843 -0.6888 -0.4615  0.1009
13437TIP3    H161726   4.750   0.510  14.869 -0.1174 -0.5218  0.6628
13437TIP3    H261727   4.842   0.622  14.914 -2.1796  1.1822  0.8037
13438TIP3   OH261728   5.422   3.155  16.937  0.1700 -0.0871  0.0583
13438TIP3    H161729   5.364   3.126  16.866  1.4309 -4.4315  0.5218
13438TIP3    H261730   5.506   3.170  16.893  0.2468 -0.0203  0.2314
13439TIP3   OH261731   6.102   2.524  12.969  0.0984  0.2693  0.0138
13439TIP3    H161732   6.081   2.444  13.018 -0.4412 -0.1096 -0.8198
13439TIP3    H261733   6.154   2.576  13.030 -0.1165 -0.4222  0.8071
13440TIP3   OH261734   6.567   2.589  10.974 -0.8107  0.2783 -0.0258
13440TIP3    H161735   6.506   2.532  10.925  2.1826 -2.8332 -0.4934
13440TIP3    H261736   6.640   2.601  10.914  0.0422  2.0418  1.3172
13441TIP3   OH261737   6.295   2.649  12.175 -0.7459 -0.0952  0.5181
13441TIP3    H161738   6.336   2.713  12.234  0.8343  1.1900 -1.8041
13441TIP3    H261739   6.210   2.686  12.154  0.2326  1.4650 -0.9631
13442TIP3   OH261740   5.671   5.680  15.056  0.4445  0.3470 -0.2199
13442TIP3    H161741   5.579   5.660  15.039  0.4407 -0.1731  0.3997
13442TIP3    H261742   5.695   5.624  15.130  1.4827 -0.1120 -0.8799
13443TIP3   OH261743   0.248   2.108  14.485  0.0273  0.6652  0.2607
13443TIP3    H161744   0.268   2.066  14.568  2.9299 -1.5858 -1.3688
13443TIP3    H261745   0.222   2.036  14.427  0.4929  1.7827 -1.4207
13444TIP3   OH261746   2.201   2.794   1.888 -0.3466 -0.1962  0.4233
13444TIP3    H161747   2.218   2.712   1.841 -2.3007 -0.7721  0.6019
13444TIP3    H261748   2.123   2.775   1.940 -0.0508  1.3926  1.4985
13445TIP3   OH261749   3.807   6.557  13.640  0.1570  0.5303  0.8766
13445TIP3    H161750   3.754   6.478  13.644  1.1766 -0.1722  0.7919
13445TIP3    H261751   3.785   6.605  13.720 -1.7812  1.0384  0.0853
13446TIP3   OH261752   3.660   1.053  16.625  0.2377 -0.0633 -0.7565
13446TIP3    H161753   3.639   1.143  16.600 -2.8205  0.3563  2.6061
13446TIP3    H261754   3.610   0.998  16.564 -0.1946  0.5908 -0.9946
13447TIP3   OH261755   4.044   0.567   1.115 -0.3387  0.6457  0.1446
13447TIP3    H161756   4.041   0.611   1.031  2.0988 -0.2489 -0.4876
13447TIP3    H261757   4.069   0.635   1.178  0.7606  0.7212 -0.3675
13448TIP3   OH261758   1.942   1.906  13.744 -0.2548  0.1357  0.1762
13448TIP3    H161759   1.859   1.943  13.772  0.7616  0.4424  3.0346
13448TIP3    H261760   1.977   1.862  13.821  1.2358 -1.9799 -1.5426
13449TIP3   OH261761   3.791   4.092  15.240  0.3617  0.1829  0.1765
13449TIP3    H161762   3.714   4.052  15.279 -0.7958  0.1531 -1.9869
13449TIP3    H261763   3.778   4.082  15.145  3.7579 -1.1841 -0.2749
13450TIP3   OH261764   3.004   5.468   4.343  0.1161 -0.5214  0.2798
13450TIP3    H161765   3.027   5.392   4.396 -0.7179 -0.0524  1.3815
13450TIP3    H261766   2.935   5.436   4.284 -1.5819 -0.2649  1.9994
13451TIP3   OH261767   5.690   3.581   4.858  0.2798  0.2358 -0.4949
13451TIP3    H161768   5.747   3.527   4.804  1.9384  0.5460  0.8684
13451TIP3    H261769   5.638   3.632   4.795  0.7318 -0.8371 -1.7702
13452TIP3   OH261770   0.335   4.504   4.181  0.5483  0.2551 -0.3700
13452TIP3    H161771   0.284   4.425   4.193 -0.7109  0.8720 -1.4293
13452TIP3    H261772   0.291   4.551   4.110  1.4171  1.7703  0.0411
13453TIP3   OH261773   0.050   6.249  11.685  0.7976  0.1314  0.5009
13453TIP3    H161774   0.018   6.172  11.638  3.3113 -0.3888 -0.4979
13453TIP3    H261775   0.036   6.228  11.778 -1.4687 -0.1042  0.1601
13454TIP3   OH261776   4.355   1.068  16.321 -0.8931 -0.1583  0.5628
13454TIP3    H161777   4.301   1.126  16.375  1.0740  0.9021  1.5132
13454TIP3    H261778   4.405   1.017  16.384  0.5101  0.1730 -0.2409
13455TIP3   OH261779   2.152   5.032   2.396 -0.0221  0.2325 -0.0895
13455TIP3    H161780   2.153   4.943   2.360 -0.6069 -0.2442  1.0028
13455TIP3    H261781   2.147   5.089   2.320 -0.8536 -0.7147 -0.7703
13456TIP3   OH261782   2.375   0.918   0.813 -0.1779  0.2408  0.4580
13456TIP3    H161783   2.417   0.840   0.776 -0.6626 -0.4723  1.3463
13456TIP3    H261784   2.431   0.990   0.787  0.6362 -0.4862  0.1363
13457TIP3   OH261785   4.920   1.145   5.373  0.4164  0.1981  0.1275
13457TIP3    H161786   4.940   1.227   5.327  0.8717 -0.8694 -1.6776
13457TIP3    H261787   4.907   1.171   5.464  1.4904  2.1469 -0.2224
13458TIP3   OH261788   5.374   0.059   3.148 -0.0680 -0.1943  0.4486
13458TIP3    H161789   5.432   0.068   3.072  0.3499  1.8290  0.9519
13458TIP3    H261790   5.324  -0.021   3.131  0.6280 -0.2576 -1.5278
13459TIP3   OH261791   2.258   4.405  12.632 -0.1278  0.3422  0.5010
13459TIP3    H161792   2.217   4.319  12.644 -1.1130  0.7147 -0.0481
13459TIP3    H261793   2.224   4.457  12.705  0.4393  0.2838  0.8111
13460TIP3   OH261794   3.133   1.656   5.437 -0.2418 -0.4409 -0.6406
13460TIP3    H161795   3.151   1.608   5.517 -0.8795  1.4906  0.7535
13460TIP3    H261796   3.047   1.626   5.409  0.5814 -2.1438 -1.4301
13461TIP3   OH261797   4.031   2.329   1.875 -0.2726  0.7964 -0.4267
13461TIP3    H161798   3.986   2.273   1.811  0.2389  0.4703 -0.5040
13461TIP3    H261799   3.962   2.356   1.936 -0.3168 -0.9392  0.3556
13462TIP3   OH261800   5.691   1.862  11.856 -0.1057 -0.1685  0.4509
13462TIP3    H161801   5.677   1.944  11.904 -2.9481  0.6658 -1.5230
13462TIP3    H261802   5.676   1.794  11.921  0.3281  0.8671  1.6900
13463TIP3   OH261803   0.892   0.404  15.180 -0.2858  0.0350  0.0368
13463TIP3    H161804   0.843   0.370  15.254 -0.1878 -0.1623  0.0114
13463TIP3    H261805   0.982   0.414  15.212  0.3513 -2.4200 -0.7324
13464TIP3   OH261806   2.638   0.941  11.674  0.3982  0.1064 -0.1542
13464TIP3    H161807   2.723   0.972  11.706  0.7149  0.5940 -1.4130
13464TIP3    H261808   2.623   0.990  11.593  0.0274 -1.6452 -1.2222
13465TIP3   OH261809   1.791   4.453  14.443  0.0738  0.0180  0.1887
13465TIP3    H161810   1.720   4.444  14.380 -2.1300  2.0230  2.2112
13465TIP3    H261811   1.861   4.497  14.395 -1.1431  0.6051 -1.0915
13466TIP3   OH261812   1.577   3.558   0.996 -0.4046 -0.0273 -0.3837
13466TIP3    H161813   1.629   3.478   1.001  2.2577  1.6155 -0.2421
13466TIP3    H261814   1.579   3.583   0.904 -1.4277 -0.2013 -0.4688
13467TIP3   OH261815   6.480   3.553   0.211 -0.2326  0.0460 -0.2994
13467TIP3    H161816   6.538   3.525   0.281 -0.0477  0.3147 -0.3450
13467TIP3    H261817   6.485   3.648   0.211 -1.6734  0.1518  0.5414
13468TIP3   OH261818   0.665   5.149  15.484 -0.4786 -0.0913 -0.2140
13468TIP3    H161819   0.736   5.163  15.546 -0.3790  0.3209 -0.4202
13468TIP3    H261820   0.676   5.217  15.418 -1.1377  0.0536 -0.1804
13469TIP3   OH261821   0.682   3.122  15.194 -0.5112 -0.9133 -0.1144
13469TIP3    H161822   0.723   3.206  15.213 -1.4218 -0.3875 -0.4153
13469TIP3    H261823   0.729   3.089  15.116 -1.1050  0.0030 -0.8741
13470TIP3   OH261824   3.568   4.683   4.591  0.2442 -0.0509  0.1018
13470TIP3    H161825   3.647   4.711   4.636 -0.4854  2.6394 -0.1160
13470TIP3    H261826   3.505   4.667   4.660  0.0283  1.0699  0.1789
13471TIP3   OH261827   5.673   2.922  15.862 -0.1212 -0.3335  0.1976
13471TIP3    H161828   5.762   2.954  15.878 -0.8285  1.9111  0.0936
13471TIP3    H261829   5.618   3.000  15.872 -1.8195 -1.1397 -2.0690
13472TIP3   OH261830   2.520   5.783   0.579 -0.5388 -0.1903 -0.1514
13472TIP3    H161831   2.457   5.855   0.587  0.6925  0.8320  0.9635
13472TIP3    H261832   2.605   5.824   0.601  0.5258 -1.4915 -1.6376
13473TIP3   OH261833   2.974   3.279   2.153 -0.0814  0.3527 -0.1636
13473TIP3    H161834   3.045   3.255   2.212 -0.0402  0.5216 -0.1423
13473TIP3    H261835   2.938   3.196   2.123 -0.2671  0.2618  0.3001
13474TIP3   OH261836   5.762   0.477   3.438 -0.5548  0.7163 -0.0817
13474TIP3    H161837   5.745   0.571   3.445  1.2535  1.0326  0.4988
13474TIP3    H261838   5.797   0.464   3.350 -2.0208  0.3338 -0.6498
13475TIP3   OH261839   6.267   0.576   2.470  0.0068  0.4263 -0.5102
13475TIP3    H161840   6.256   0.609   2.381  1.2169 -0.4783 -1.0330
13475TIP3    H261841   6.217   0.494   2.472 -1.2355  1.1855  0.1158
13476TIP3   OH261842   3.457   5.217   4.783 -0.1194  0.1649  0.0713
13476TIP3    H161843   3.363   5.203   4.767 -0.1011  0.1360 -0.0106
13476TIP3    H261844   3.478   5.297   4.735  0.2604 -0.7089 -1.2995
13477TIP3   OH261845   0.812   3.562   1.712 -0.2336  0.1621  0.4167
13477TIP3    H161846   0.784   3.624   1.644 -0.4176  0.5428  0.8331
13477TIP3    H261847   0.907   3.559   1.705 -0.2959 -0.3474 -0.3268
13478TIP3   OH261848   6.421   5.766  15.946 -0.4047 -0.3470 -0.1672
13478TIP3    H161849   6.408   5.819  16.025 -1.2874  0.8526 -1.0656
13478TIP3    H261850   6.348   5.705  15.945 -1.3536  0.7628 -0.8874
13479TIP3   OH261851   2.784   1.770  12.422 -0.7144  0.1951  0.0921
13479TIP3    H161852   2.768   1.771  12.516  1.9049 -0.4281  0.6313
13479TIP3    H261853   2.879   1.758  12.414 -0.9347 -0.3841 -2.6330
13480TIP3   OH261854   3.910   5.002  11.129 -0.0618 -0.0625 -0.4283
13480TIP3    H161855   3.993   5.038  11.158 -0.0635 -0.2550 -0.1776
13480TIP3    H261856   3.866   5.074  11.084 -0.0528  0.2379  0.0385
13481TIP3   OH261857   4.123   6.311  11.749 -0.8711 -0.3750  0.9107
13481TIP3    H161858   4.094   6.262  11.826 -2.2803  1.5421  1.6788
13481TIP3    H261859   4.183   6.377  11.785 -0.3781 -0.3853  0.1345
13482TIP3   OH261860   1.244   1.700  13.369 -0.3048 -0.5950  0.2897
13482TIP3    H161861   1.210   1.634  13.430 -1.0964  0.2864  0.8401
13482TIP3    H261862   1.170   1.720  13.312  0.2887 -1.0476 -0.6539
13483TIP3   OH261863   5.632   0.373  15.684 -0.8388 -0.2633 -0.0716
13483TIP3    H161864   5.547   0.379  15.728  0.2684 -0.7888  2.3245
13483TIP3    H261865   5.696   0.387  15.754  1.0648 -0.8473 -1.6089
13484TIP3   OH261866   6.356   1.592   4.263  0.5968 -0.2915 -0.0753
13484TIP3    H161867   6.380   1.514   4.312 -0.4506  0.0742  1.0809
13484TIP3    H261868   6.363   1.566   4.171  0.7024 -1.6015  0.2837
13485TIP3   OH261869   3.170   0.454  14.819 -0.0334 -0.0630 -0.4902
13485TIP3    H161870   3.258   0.438  14.785  0.5063  0.2538  0.7029
13485TIP3    H261871   3.128   0.509  14.753  0.7828  0.0825 -0.8977
13486TIP3   OH261872   2.866   1.330   2.893  0.6665 -0.1831 -0.3579
13486TIP3    H161873   2.947   1.352   2.940 -0.1150  0.4768  0.7203
13486TIP3    H261874   2.890   1.255   2.838  1.4295 -1.5821  1.7574
13487TIP3   OH261875   5.091   3.944  10.679 -0.0316 -0.4292  0.5839
13487TIP3    H161876   5.094   3.850  10.698  0.2844 -0.4636  0.3673
13487TIP3    H261877   5.178   3.965  10.646 -0.7005 -0.5119 -1.3850
13488TIP3   OH261878   6.459   5.096  12.564 -0.2353 -0.1468  0.2646
13488TIP3    H161879   6.459   5.106  12.469 -0.7410  0.7162  0.3513
13488TIP3    H261880   6.546   5.127  12.591  0.2908 -1.3291  0.0066
13489TIP3   OH261881   5.915   0.107  16.022  0.0735  0.3329  0.2999
13489TIP3    H161882   5.821   0.088  16.024  0.2200 -0.3746  0.8540
13489TIP3    H261883   5.922   0.194  16.061 -0.3407  0.3599  0.3253
13490TIP3   OH261884   5.814   0.485   3.180 -0.0899  0.2338  0.0247
13490TIP3    H161885   5.780   0.410   3.131 -3.0296  0.9826  0.6787
13490TIP3    H261886   5.831   0.552   3.114 -1.3521  0.2994 -0.2597
13491TIP3   OH261887   1.728   5.399  12.670 -0.2711 -0.3569 -0.8086
13491TIP3    H161888   1.663   5.355  12.724  0.6308  0.5434  1.0770
13491TIP3    H261889   1.776   5.328  12.627  1.7075 -1.3858  2.7805
13492TIP3   OH261890   3.055   4.635   2.322 -0.6073  0.8194  0.0116
13492TIP3    H161891   3.006   4.712   2.293 -1.0142  0.5017 -0.1513
13492TIP3    H261892   2.988   4.569   2.339 -0.3263  0.7917  1.0594
13493TIP3   OH261893   3.410   4.341  15.840 -0.1554  0.7119  0.1582
13493TIP3    H161894   3.404   4.260  15.892  0.2132  1.1717  0.9432
13493TIP3    H261895   3.325   4.348  15.798 -1.1274  1.2152  2.0771
13494TIP3   OH261896   5.414   1.567  15.272 -0.2167 -0.2698 -0.2835
13494TIP3    H161897   5.364   1.565  15.191  0.6179  0.8787 -0.8563
13494TIP3    H261898   5.431   1.660  15.288 -2.3040 -0.2410  2.4619
13495TIP3   OH261899   2.607   5.160   1.981 -0.1785  0.0067 -0.1878
13495TIP3    H161900   2.517   5.172   1.949 -0.2479 -0.7215 -0.2764
13495TIP3    H261901   2.627   5.068   1.964  0.9381  0.3848 -1.0490
13496TIP3   OH261902   3.115   4.081  13.559 -0.4298 -0.0482 -0.1073
13496TIP3    H161903   3.135   4.124  13.642  1.9074  2.1157 -1.6507
13496TIP3    H261904   3.162   3.997  13.564  1.1115  0.7947  0.1504
13497TIP3   OH261905   4.032   0.677  14.010 -0.4273 -0.4381  0.2377
13497TIP3    H161906   3.936   0.671  14.013 -0.5381  1.2649  0.8936
13497TIP3    H261907   4.050   0.726  13.930 -0.1242 -0.3588  0.3542
13498TIP3   OH261908   5.631   2.603  14.542  0.2564 -0.4543  0.3374
13498TIP3    H161909   5.588   2.677  14.498  0.7746  0.5325  1.4277
13498TIP3    H261910   5.633   2.534  14.476 -0.2188  0.5079 -0.7328
13499TIP3   OH261911   0.126   5.756  11.229 -0.1625  0.2681 -0.2430
13499TIP3    H161912   0.114   5.666  11.200  0.1529  0.5202 -1.2058
13499TIP3    H261913   0.087   5.809  11.159 -0.4225  0.8734  0.3555
13500TIP3   OH261914   6.160   5.650   5.669  0.3377  0.1742 -0.0015
13500TIP3    H161915   6.220   5.683   5.736 -1.6311  1.9019  1.0515
13500TIP3    H261916   6.154   5.721   5.605 -0.3927 -0.0536 -0.2029
13501TIP3   OH261917   3.864   5.283  17.243  0.2246 -0.6417 -0.1926
13501TIP3    H161918   3.857   5.277  17.339 -1.9260 -0.3985 -0.2652
13501TIP3    H261919   3.957   5.294  17.226  0.4866  1.2727  1.9943
13502TIP3   OH261920   6.553   1.346  14.613 -0.5506  0.1750  0.0008
13502TIP3    H161921   6.532   1.436  14.589 -2.2128 -0.1619  0.1058
13502TIP3    H261922   6.528   1.339  14.705 -0.1468 -0.3182  0.0795
13503TIP3   OH261923   6.270   3.736   4.072  0.3632  0.4861  0.2043
13503TIP3    H161924   6.355   3.723   4.114  0.8034  0.2192 -0.7374
13503TIP3    H261925   6.291   3.776   3.988 -0.5820  2.1047  0.6764
13504TIP3   OH261926   1.639   2.402   5.260 -0.0515 -0.7960 -0.2152
13504TIP3    H161927   1.655   2.375   5.350  1.7769  0.7187 -0.0154
13504TIP3    H261928   1.639   2.498   5.263 -0.2665 -0.7132 -1.7875
13505TIP3   OH261929   1.938   2.176  13.933 -0.2494 -0.2612 -0.4475
13505TIP3    H161930   1.965   2.182  14.024  0.2698  0.0174 -0.6170
13505TIP3    H261931   1.855   2.225  13.929  0.7903  1.5630 -0.5395
13506TIP3   OH261932   1.967   1.194   1.907  0.1946  0.0528  0.3356
13506TIP3    H161933   2.039   1.167   1.849  0.7179  0.1929  0.9091
13506TIP3    H261934   1.936   1.113   1.947  0.4105  0.0544  0.5099
13507TIP3   OH261935   4.601   5.270  15.430  0.4569 -0.0951  0.4633
13507TIP3    H161936   4.596   5.324  15.509 -1.3163 -0.1495  0.4217
13507TIP3    H261937   4.531   5.302  15.374  0.5312 -1.2572 -0.3314
13508TIP3   OH261938   1.325   2.110   0.007 -0.2429 -0.1534  0.0229
13508TIP3    H161939   1.235   2.098   0.036 -0.1704 -1.4194 -0.2151
13508TIP3    H261940   1.326   2.076  -0.083  0.7477 -1.4316  0.4785
13509TIP3   OH261941   2.771   5.796  11.525 -0.4035  0.1121 -0.3487
13509TIP3    H161942   2.699   5.851  11.557 -0.0171  0.2778  0.2353
13509TIP3    H261943   2.727   5.730  11.472 -0.8930  0.8843 -0.9420
13510TIP3   OH261944   4.497   6.633  11.240  0.4172  0.0394 -0.3922
13510TIP3    H161945   4.432   6.644  11.170 -1.4989  0.1759  1.3143
13510TIP3    H261946   4.496   6.540  11.259 -1.2204  0.3613  1.3360
13511TIP3   OH261947   4.915   6.642   1.059 -0.6425 -0.8080 -0.0664
13511TIP3    H161948   4.910   6.546   1.061 -1.9318 -0.7457  1.2498
13511TIP3    H261949   4.998   6.661   1.014  0.8386 -2.5672  1.7451
13512TIP3   OH261950   2.283   3.163  11.408 -0.3755  0.1715 -0.1755
13512TIP3    H161951   2.366   3.114  11.410 -0.7334 -0.4246  1.3574
13512TIP3    H261952   2.270   3.191  11.498 -1.4070  1.0296 -0.5803
13513TIP3   OH261953   0.591   0.847  13.225 -0.4253  0.1662 -0.8369
13513TIP3    H161954   0.582   0.755  13.249 -4.0023  0.8050  0.9204
13513TIP3    H261955   0.527   0.859  13.154  0.8007  1.1286 -1.8350
13514TIP3   OH261956   3.961   6.230   5.625 -0.3825 -0.0527 -0.2663
13514TIP3    H161957   4.047   6.224   5.583 -0.5482  0.9055 -0.7695
13514TIP3    H261958   3.977   6.281   5.705  0.3394 -3.5996  2.0760
13515TIP3   OH261959   1.946   0.249   0.070 -0.0555 -0.4324 -0.3733
13515TIP3    H161960   1.910   0.294  -0.006 -1.2492  1.5145  1.2537
13515TIP3    H261961   1.932   0.156   0.052 -0.5615 -0.0054 -2.3797
13516TIP3   OH261962   4.927   6.768   3.831 -0.1729 -0.4897 -0.3185
13516TIP3    H161963   4.933   6.761   3.735  1.8518 -0.3140 -0.2332
13516TIP3    H261964   5.017   6.769   3.861 -0.7752 -0.3019  1.6041
13517TIP3   OH261965   2.403   2.692   2.555  0.5026 -0.0681 -0.2681
13517TIP3    H161966   2.312   2.675   2.531  0.2394 -0.3611  0.8708
13517TIP3    H261967   2.397   2.753   2.629  1.2988  1.2531 -1.2657
13518TIP3   OH261968   1.341   0.133  14.232  0.4433  0.1608 -0.1303
13518TIP3    H161969   1.277   0.148  14.161  1.5994  3.2829 -0.6533
13518TIP3    H261970   1.404   0.071  14.194  0.3892  0.8634 -1.4269
13519TIP3   OH261971   0.163   2.644  16.335  0.3367  0.3885  0.1931
13519TIP3    H161972   0.128   2.734  16.330 -1.6006 -0.3525 -0.6954
13519TIP3    H261973   0.148   2.608  16.248 -2.1624 -1.8673  1.4115
13520TIP3   OH261974   5.078   5.400  14.213 -0.1701  1.3163  0.6172
13520TIP3    H161975   5.041   5.467  14.271 -0.7262  0.3802  1.3609
13520TIP3    H261976   5.170   5.425  14.203 -0.1444  1.6640  1.6397
13521TIP3   OH261977   2.682   5.525  14.204 -0.0222  0.2725 -0.5492
13521TIP3    H161978   2.716   5.612  14.223 -1.9163  1.3356 -1.7259
13521TIP3    H261979   2.724   5.499  14.122 -0.0090  0.4151 -0.5877
13522TIP3   OH261980   1.561   6.283  12.255  0.3778 -0.1070 -0.6543
13522TIP3    H161981   1.552   6.350  12.322 -0.6201 -1.4010  0.5590
13522TIP3    H261982   1.592   6.331  12.177 -1.6402  1.9759 -0.2738
13523TIP3   OH261983   0.789   2.828  16.706  0.2699  0.2201 -0.4868
13523TIP3    H161984   0.784   2.898  16.641  2.0048  0.1325 -0.7624
13523TIP3    H261985   0.731   2.760  16.673  0.9230  0.2895 -1.8028
13524TIP3   OH261986   0.017   6.128   1.699 -0.6400 -0.2290 -0.2025
13524TIP3    H161987   0.053   6.050   1.741  0.4131  0.4706  0.2361
13524TIP3    H261988   0.067   6.136   1.617 -0.5703  0.1224 -0.1267
13525TIP3   OH261989   5.012   0.750  12.702  0.3239  0.1016  0.0994
13525TIP3    H161990   4.975   0.670  12.738 -0.2269 -0.2980 -1.2965
13525TIP3    H261991   5.016   0.810  12.777  0.0564 -0.9718  1.0022
13526TIP3   OH261992   1.004   6.757   0.859  0.5417  0.1060  0.8177
13526TIP3    H161993   0.958   6.768   0.942 -1.1147 -0.7470  0.0570
13526TIP3    H261994   1.033   6.666   0.859  0.4272  0.0651  0.4129
13527TIP3   OH261995   6.075   0.254  13.457  0.4751 -0.9603  0.2141
13527TIP3    H161996   6.089   0.255  13.552  0.9125  0.0079  0.1486
13527TIP3    H261997   6.155   0.215  13.422  0.5547 -0.7923  0.2079
13528TIP3   OH261998   1.618   5.144  13.644  0.0419  0.3270  0.4207
13528TIP3    H161999   1.525   5.142  13.621 -0.1709 -1.2514  1.2885
13528TIP3    H262000   1.626   5.221  13.701 -0.8457  0.1922  0.7435
13529TIP3   OH262001   4.424   4.011   5.505  0.2421  0.1559 -0.0476
13529TIP3    H162002   4.441   3.935   5.450  2.3331  0.8933 -0.5247
13529TIP3    H262003   4.403   4.081   5.444 -0.9572  0.1631  0.3476
13530TIP3   OH262004   0.310   5.498  12.049  0.4183  0.3089 -0.5042
13530TIP3    H162005   0.217   5.494  12.027  0.2693 -0.3818  0.2217
13530TIP3    H262006   0.354   5.506  11.964 -0.0711 -3.0413 -1.2018
13531TIP3   OH262007   6.145   6.169  17.256 -0.2004  0.1631 -0.1317
13531TIP3    H162008   6.102   6.255  17.250 -2.3986 -0.7492  1.2174
13531TIP3    H262009   6.084   6.109  17.215  0.3571 -1.0385  0.7423
13532TIP3   OH262010   1.746   0.605  17.218  0.2602  0.1705  0.0894
13532TIP3    H162011   1.784   0.579  17.134  1.6025  1.0833  0.3835
13532TIP3    H262012   1.712   0.524  17.255  1.8381 -0.7026 -0.2705
13533TIP3   OH262013   0.314   0.935   2.879  0.4196 -0.3707  0.0939
13533TIP3    H162014   0.361   0.862   2.838 -1.7844 -0.7055 -2.0158
13533TIP3    H262015   0.257   0.894   2.943 -0.8070 -0.5564 -1.0802
13534TIP3   OH262016   1.323   1.135  11.176 -0.2531  0.1885 -0.0367
13534TIP3    H162017   1.393   1.113  11.237 -0.3688  0.5375  0.2264
13534TIP3    H262018   1.348   1.221  11.140  0.4293 -0.5411 -1.3936
13535TIP3   OH262019   0.013   0.500  14.645 -0.4843 -0.2303 -0.5032
13535TIP3    H162020   0.102   0.514  14.679  0.2645 -2.2726 -1.4702
13535TIP3    H262021  -0.001   0.575  14.586  0.6399  0.0932 -0.3917
13536TIP3   OH262022   1.577   3.549   2.314 -0.4153  0.1167  0.4391
13536TIP3    H162023   1.622   3.566   2.231  2.4711  1.9825  2.2319
13536TIP3    H262024   1.505   3.612   2.315 -0.4950  0.0687 -0.6207
13537TIP3   OH262025   2.079   1.718   1.756 -0.1741  0.1564 -0.1018
13537TIP3    H162026   2.160   1.684   1.720  0.2985 -1.8185  2.5352
13537TIP3    H262027   2.012   1.656   1.727 -0.5048  0.8702 -0.9120
13538TIP3   OH262028   4.552   1.750  15.056  0.1055 -0.4507  0.2873
13538TIP3    H162029   4.618   1.753  14.987  1.1847  2.2563  1.3034
13538TIP3    H262030   4.481   1.697  15.019  1.1474 -0.1123 -2.4092
13539TIP3   OH262031   4.633   6.296  12.846 -0.1632 -0.7851 -0.9338
13539TIP3    H162032   4.711   6.290  12.791 -0.9712 -2.4252 -1.9902
13539TIP3    H262033   4.663   6.336  12.927  1.4614 -0.0666 -1.8572
13540TIP3   OH262034   3.661   0.105  12.768  0.2948  0.3683  0.0890
13540TIP3    H162035   3.654   0.198  12.789  1.7578  0.3544  0.8010
13540TIP3    H262036   3.612   0.095  12.687  2.2467  2.3105 -1.4572
13541TIP3   OH262037   0.921   6.189   4.718  0.0575  0.5087  0.0893
13541TIP3    H162038   1.010   6.193   4.754 -1.4083  0.3900  4.1435
13541TIP3    H262039   0.893   6.099   4.732 -0.5560  0.3446 -1.8446
13542TIP3   OH262040   3.966   0.408  12.228 -0.3763  0.0062  0.5422
13542TIP3    H162041   4.039   0.357  12.262  0.2131  1.2643  1.2556
13542TIP3    H262042   3.939   0.462  12.302  0.6009  2.4731 -0.7851
13543TIP3   OH262043   2.221   5.362  15.118  0.1250  0.1219 -0.5500
13543TIP3    H162044   2.168   5.291  15.081  0.0711  0.5254 -1.2614
13543TIP3    H262045   2.201   5.361  15.211  0.4069 -1.0421 -0.4860
13544TIP3   OH262046   6.259   2.760   4.634 -0.2650  0.0436 -0.1778
13544TIP3    H162047   6.183   2.779   4.689  0.4032 -1.4681  1.3597
13544TIP3    H262048   6.308   2.843   4.631 -0.2649  0.1452  1.6543
13545TIP3   OH262049   4.552   0.833  14.089 -0.2679 -0.3230 -0.5567
13545TIP3    H162050   4.507   0.915  14.069 -0.3200  0.1081  1.1665
13545TIP3    H262051   4.482   0.769  14.102 -0.2322 -0.6210 -1.7094
13546TIP3   OH262052   5.410   0.085   2.609  0.0670  0.3920 -0.1640
13546TIP3    H162053   5.395  -0.006   2.583  2.9748 -0.3962  0.5349
13546TIP3    H262054   5.505   0.092   2.618 -0.2385  2.5711  3.0511
13547TIP3   OH262055   0.555   5.389   5.386 -0.5880 -0.3722 -0.4287
13547TIP3    H162056   0.599   5.348   5.461  0.0905  0.6200 -0.2727
13547TIP3    H262057   0.548   5.481   5.409 -2.1331 -0.3755 -0.7712
13548TIP3   OH262058   5.277   6.208   1.586 -0.1110 -0.1535  0.4622
13548TIP3    H162059   5.369   6.230   1.598  0.1981  0.4148 -2.2998
13548TIP3    H262060   5.272   6.114   1.606  1.1946 -0.3166  0.1312
13549TIP3   OH262061   5.806   3.993   3.814 -0.2442 -0.2580  0.3130
13549TIP3    H162062   5.769   4.040   3.740 -0.8035 -0.0432  0.7249
13549TIP3    H262063   5.757   3.911   3.817  1.3848 -1.3638 -1.0143
13550TIP3   OH262064   3.893   4.550  15.890 -0.0815 -0.1118 -0.1653
13550TIP3    H162065   3.810   4.596  15.878 -0.4472 -0.7909 -0.2817
13550TIP3    H262066   3.927   4.583  15.973 -0.3723  0.3135 -0.2100
13551TIP3   OH262067   4.018   3.215  11.528 -0.2342  0.0921  0.2868
13551TIP3    H162068   4.073   3.274  11.476 -0.1514  0.0689  0.3492
13551TIP3    H262069   3.987   3.149  11.466 -0.2113  0.1190  0.2474
13552TIP3   OH262070   3.994   6.619   5.492  0.1450  0.4085  0.2177
13552TIP3    H162071   3.966   6.639   5.581  0.8307 -1.1849  0.8279
13552TIP3    H262072   3.915   6.589   5.447 -0.2314  1.3563  0.2265
13553TIP3   OH262073   1.663   1.469  11.055  0.3573  0.1957  0.4544
13553TIP3    H162074   1.583   1.491  11.102  0.3920  2.1451 -0.2827
13553TIP3    H262075   1.640   1.480  10.962  2.0022  3.1841  0.2631
13554TIP3   OH262076   5.491   3.717   3.169 -0.2787  0.3992 -0.5893
13554TIP3    H162077   5.418   3.775   3.150  0.7614  1.3926 -1.7105
13554TIP3    H262078   5.551   3.770   3.222  0.3534  0.1216 -1.0088
13555TIP3   OH262079   5.149   3.298   0.076 -0.0486 -0.1723  0.2821
13555TIP3    H162080   5.202   3.329   0.149 -0.6223 -2.7501  1.9244
13555TIP3    H262081   5.213   3.277   0.007  0.7589 -0.0545  0.9824
13556TIP3   OH262082   5.101   1.296   2.590 -0.3350  0.2218  0.0158
13556TIP3    H162083   5.088   1.265   2.680  2.1835  0.0868  0.3998
13556TIP3    H262084   5.070   1.223   2.536  0.8808 -0.9769  0.8571
13557TIP3   OH262085   5.048   2.541  14.544 -0.5103  0.2376  0.2821
13557TIP3    H162086   5.126   2.589  14.572  0.0108  0.2526 -1.0785
13557TIP3    H262087   5.012   2.594  14.473 -0.9858 -0.4382  0.0084
13558TIP3   OH262088   0.282   2.858  15.896 -0.3564  0.2296  0.0398
13558TIP3    H162089   0.274   2.942  15.939  0.5177  0.8337 -0.9385
13558TIP3    H262090   0.376   2.838  15.898 -0.4783 -0.4221 -0.2979
13559TIP3   OH262091   3.434   3.632  13.365 -0.6864 -0.0734 -0.1092
13559TIP3    H162092   3.427   3.634  13.269 -1.7877 -1.0621 -0.0699
13559TIP3    H262093   3.527   3.621  13.382 -0.4935 -0.0425 -1.0615
13560TIP3   OH262094   5.170   3.491   4.596  0.2792 -0.2875  0.7602
13560TIP3    H162095   5.198   3.509   4.686  0.1260 -1.0684  0.9682
13560TIP3    H262096   5.201   3.402   4.578  0.0297 -0.2567  0.1496
13561TIP3   OH262097   2.207   3.014   4.075 -0.2803 -0.2236 -0.1856
13561TIP3    H162098   2.249   2.972   4.000 -2.1131  0.0378 -1.4495
13561TIP3    H262099   2.279   3.040   4.132  1.0681 -2.6288 -0.6312
13562TIP3   OH262100   3.484   3.797  14.088  0.2887  0.5116 -0.2750
13562TIP3    H162101   3.561   3.777  14.141  0.0218 -0.7171 -0.3252
13562TIP3    H262102   3.410   3.761  14.137  0.1221 -1.4534 -1.8345
13563TIP3   OH262103   1.237   1.828  10.917  0.1372  0.0044  0.2193
13563TIP3    H162104   1.164   1.766  10.910  0.5347 -0.3883 -0.5099
13563TIP3    H262105   1.233   1.879  10.836  1.9047 -1.4061 -0.8301
13564TIP3   OH262106   6.701   6.720  15.914  0.3668 -0.5602  0.4185
13564TIP3    H162107   6.714   6.696  16.006  0.9910  1.5810  0.9308
13564TIP3    H262108   6.655   6.804  15.916 -0.3513 -0.8506 -1.2662
13565TIP3   OH262109   0.521   5.928   5.395 -0.2590 -0.0033  0.2309
13565TIP3    H162110   0.473   5.983   5.456 -1.0779 -1.6998  1.1526
13565TIP3    H262111   0.613   5.941   5.418 -0.5346 -0.2382  1.5029
13566TIP3   OH262112   4.436   0.183   4.375 -0.3768  0.4334  0.6498
13566TIP3    H162113   4.404   0.248   4.437  0.1852  0.7924  0.5603
13566TIP3    H262114   4.410   0.216   4.289  2.2988  1.9923  0.3347
13567TIP3   OH262115   3.160   0.807  10.681  0.3721  0.3381  0.0739
13567TIP3    H162116   3.232   0.870  10.670  0.2562  0.6440  0.9625
13567TIP3    H262117   3.177   0.766  10.765 -0.1059 -0.1088 -0.0444
13568TIP3   OH262118   1.855   4.063   1.810  0.4826  0.1042 -0.1068
13568TIP3    H162119   1.847   4.094   1.720  1.2972  2.8114  0.6657
13568TIP3    H262120   1.774   4.093   1.853 -0.2970 -1.8931 -0.0579
13569TIP3   OH262121   1.787   1.747   2.529 -0.1886 -0.7390 -0.4662
13569TIP3    H162122   1.811   1.722   2.440 -1.0532  1.9010 -1.5500
13569TIP3    H262123   1.710   1.694   2.549 -0.6409 -0.6041 -1.7535
13570TIP3   OH262124   0.012   0.716  15.642 -0.3338 -0.0780 -0.8235
13570TIP3    H162125  -0.022   0.791  15.691 -1.4384 -0.4066 -1.0656
13570TIP3    H262126  -0.011   0.733  15.551 -1.8186 -1.3176 -0.7289
13571TIP3   OH262127   2.412   5.488   0.255  0.1132  0.0689 -0.1773
13571TIP3    H162128   2.414   5.436   0.175  0.9929  1.2611 -0.9747
13571TIP3    H262129   2.442   5.429   0.323  0.7337 -0.5732 -0.9892
13572TIP3   OH262130   6.763   3.914  12.531  0.0831 -0.5245 -0.7548
13572TIP3    H162131   6.680   3.945  12.493  0.4063  0.6151 -0.5505
13572TIP3    H262132   6.829   3.939  12.467  0.1000 -3.5213 -2.1071
13573TIP3   OH262133   5.452   3.171  10.430 -0.3407 -0.3136 -0.8035
13573TIP3    H162134   5.479   3.119  10.506 -2.6218  1.6306  1.5337
13573TIP3    H262135   5.359   3.151  10.419 -0.4135  0.6033 -2.1215
13574TIP3   OH262136   5.066   5.193  14.674  0.2063 -0.9406 -0.0133
13574TIP3    H162137   4.990   5.250  14.661  0.5841 -0.5991 -0.7763
13574TIP3    H262138   5.126   5.215  14.603  2.3021  0.8263  2.1502
13575TIP3   OH262139   0.486   2.406  11.830 -0.0420  0.2231 -0.2701
13575TIP3    H162140   0.398   2.370  11.839 -0.3157  1.2109  1.5186
13575TIP3    H262141   0.503   2.449  11.914  2.9095 -1.5557  0.2023
13576TIP3   OH262142   1.270   0.887   0.681 -0.5888 -0.2756  0.8121
13576TIP3    H162143   1.184   0.845   0.674 -1.6331  1.5144  2.1889
13576TIP3    H262144   1.291   0.883   0.774  1.2811 -1.4504  0.3995
13577TIP3   OH262145   1.201   4.087  11.984 -0.3427 -0.1887 -0.1882
13577TIP3    H162146   1.233   4.133  11.907 -0.7792 -2.1035 -1.5814
13577TIP3    H262147   1.130   4.142  12.018  2.2022  2.5648  1.1565
13578TIP3   OH262148   3.843   2.207   5.048  0.0308  0.1978  0.1611
13578TIP3    H162149   3.752   2.196   5.019 -0.0452  0.1042  0.4381
13578TIP3    H262150   3.893   2.209   4.966 -0.1400 -0.4823  0.0313
13579TIP3   OH262151   1.794   3.297   4.266  0.0253 -0.1136  0.0210
13579TIP3    H162152   1.826   3.209   4.287 -1.6574 -0.4454  1.3870
13579TIP3    H262153   1.737   3.285   4.191 -0.5902 -0.2829  0.5090
13580TIP3   OH262154   3.937   0.839   1.126  0.0319 -0.4661  0.6207
13580TIP3    H162155   3.999   0.913   1.129  0.3908 -0.7743  0.8237
13580TIP3    H262156   3.950   0.801   1.039 -0.2455 -0.2123  0.4670
13581TIP3   OH262157   0.902   6.661   3.519 -0.4659 -0.3086  0.5129
13581TIP3    H162158   0.935   6.599   3.585 -0.7660  0.2817  1.2365
13581TIP3    H262159   0.945   6.744   3.541  0.2822 -0.3463 -0.7245
13582TIP3   OH262160   4.835   5.921  14.101 -0.4693  0.3107 -0.3008
13582TIP3    H162161   4.763   5.983  14.087  0.2171  0.5067 -4.1159
13582TIP3    H262162   4.792   5.836  14.104 -1.1159  0.6608  1.2454
13583TIP3   OH262163   0.298   3.675  15.878  0.0870  0.2692  0.9157
13583TIP3    H162164   0.282   3.680  15.972 -0.0367  1.1932  0.8496
13583TIP3    H262165   0.331   3.586  15.864  0.2874  0.1904  1.8550
13584TIP3   OH262166   5.980   2.645  15.874  0.1837  1.0605  0.2865
13584TIP3    H162167   5.889   2.652  15.905  0.1055  0.8385  0.1033
13584TIP3    H262168   5.980   2.693  15.791  0.4382  1.8236  0.7131
13585TIP3   OH262169   4.944   3.407  16.349  0.2441  0.3706 -0.0932
13585TIP3    H162170   4.866   3.385  16.400 -0.9622 -0.5342 -2.2241
13585TIP3    H262171   4.942   3.503  16.342 -1.9968  0.2648 -1.9704
13586TIP3   OH262172   3.128   6.189   3.185 -0.3854 -0.0729 -0.1157
13586TIP3    H162173   3.184   6.245   3.238 -0.4527 -0.9367  0.9155
13586TIP3    H262174   3.050   6.242   3.167 -0.6338  0.0454  1.1954
13587TIP3   OH262175   5.234   1.786  16.474 -0.0047  0.1510  0.1755
13587TIP3    H162176   5.271   1.772  16.562 -1.7393 -2.1245  0.6282
13587TIP3    H262177   5.202   1.876  16.476  3.7738  1.7046  0.3066
13588TIP3   OH262178   0.694   4.272  13.645 -0.4362  0.0639 -0.0862
13588TIP3    H162179   0.607   4.308  13.659  0.1234  1.1350  0.8420
13588TIP3    H262180   0.725   4.315  13.566 -0.9641 -0.7787 -0.7688
13589TIP3   OH262181   4.733   0.687   0.069 -0.0782 -0.1065  0.4882
13589TIP3    H162182   4.807   0.680   0.129  0.8232  1.1803 -0.4218
13589TIP3    H262183   4.686   0.604   0.078  1.3120 -0.8255  1.2923
13590TIP3   OH262184   5.342   0.845   2.641  0.0521 -0.1403  0.3587
13590TIP3    H162185   5.262   0.794   2.632 -0.4853  0.6463  0.6185
13590TIP3    H262186   5.412   0.779   2.646 -0.4858 -0.8103 -0.6914
13591TIP3   OH262187   3.381   4.254   4.033  0.6509 -0.2738 -0.1815
13591TIP3    H162188   3.348   4.341   4.012  0.0950 -0.6395 -0.8765
13591TIP3    H262189   3.305   4.207   4.066  0.9674 -0.4801  0.2651
13592TIP3   OH262190   4.650   6.763   3.873  0.2350  0.2381  0.0431
13592TIP3    H162191   4.616   6.774   3.784 -0.8826  4.4538  0.7484
13592TIP3    H262192   4.745   6.770   3.864  0.2465 -0.9065 -0.9094
13593TIP3   OH262193   3.140   2.265   2.018 -0.2799  0.0456  0.9988
13593TIP3    H162194   3.169   2.347   2.058 -0.0131  0.0886  0.7223
13593TIP3    H262195   3.073   2.292   1.955  0.2291  0.1176  0.4809
13594TIP3   OH262196   1.164   3.432   2.543 -0.1185  0.4582 -0.4011
13594TIP3    H162197   1.132   3.501   2.601 -1.9879 -1.5726  1.1710
13594TIP3    H262198   1.199   3.478   2.467 -1.3978  3.0955  0.4914
13595TIP3   OH262199   1.649   4.241  14.818 -0.2703 -0.6912  0.1114
13595TIP3    H162200   1.574   4.233  14.878  0.0795 -0.8400  0.5412
13595TIP3    H262201   1.709   4.300  14.863  0.2187 -1.2019  0.1419
13596TIP3   OH262202   3.597   2.567  14.045 -0.2974  0.1854  0.1223
13596TIP3    H162203   3.655   2.577  13.970 -0.1009  1.6198  0.4356
13596TIP3    H262204   3.612   2.645  14.098 -0.9727 -0.4400  1.2879
13597TIP3   OH262205   0.512   1.932  16.793  0.4861  0.6142  0.0735
13597TIP3    H162206   0.594   1.930  16.744  0.4437  0.3093  0.0135
13597TIP3    H262207   0.450   1.886  16.736  0.5199 -0.0480  0.5637
13598TIP3   OH262208   1.158   3.956   2.360  0.1128  0.1764  0.0443
13598TIP3    H162209   1.218   4.030   2.368  0.7605 -0.0551 -2.0332
13598TIP3    H262210   1.083   3.991   2.311 -0.1267 -0.2362  0.1140
13599TIP3   OH262211   1.544   3.236  13.586 -0.6699  0.2128  0.7755
13599TIP3    H162212   1.467   3.291  13.570 -0.1711  0.4659 -1.0100
13599TIP3    H262213   1.547   3.225  13.681 -2.0371  1.4453  0.9911
13600TIP3   OH262214   3.455   2.077   1.018  0.5443  0.3100  0.5705
13600TIP3    H162215   3.422   2.089   1.108  1.5292  0.3031  0.9390
13600TIP3    H262216   3.547   2.100   1.023  0.8271 -0.5840 -0.2491
13601TIP3   OH262217   2.704   4.007   1.237 -0.2602  0.0950 -0.3514
13601TIP3    H162218   2.700   3.962   1.322 -1.1116 -1.0597 -0.9707
13601TIP3    H262219   2.613   4.029   1.218  0.1162  1.9948 -0.1475
13602TIP3   OH262220   5.453   0.196   6.055  0.0454  0.4270 -0.1599
13602TIP3    H162221   5.451   0.108   6.093 -1.4422  0.7600  0.6515
13602TIP3    H262222   5.503   0.249   6.118 -0.8677  0.5876  0.4567
13603TIP3   OH262223   6.523   1.965   3.677  0.2063  0.3562  0.1333
13603TIP3    H162224   6.538   1.893   3.738 -2.2412 -0.4989 -0.1792
13603TIP3    H262225   6.485   2.034   3.731 -0.0452  0.3696 -0.0597
13604TIP3   OH262226   6.153   6.548   2.008  0.1850 -0.3101 -0.5417
13604TIP3    H162227   6.244   6.545   1.978 -1.1895 -1.4389 -5.3442
13604TIP3    H262228   6.120   6.633   1.978 -1.3688 -1.6169 -2.7850
13605TIP3   OH262229   0.714   5.220  13.173 -0.5229  0.3006 -0.2472
13605TIP3    H162230   0.760   5.146  13.212  0.2741 -0.0361 -1.7350
13605TIP3    H262231   0.688   5.189  13.086  0.6317  2.0276 -1.2759
13606TIP3   OH262232   1.953   3.907  15.148  0.0975  0.2897 -0.2236
13606TIP3    H162233   1.959   3.957  15.067  1.2185  0.5694  0.0001
13606TIP3    H262234   1.860   3.887  15.158 -0.4457  2.5509 -0.1964
13607TIP3   OH262235   1.373   0.653   4.518 -0.5522 -0.1865 -0.3484
13607TIP3    H162236   1.303   0.686   4.575  1.9240  1.2725  2.1013
13607TIP3    H262237   1.371   0.558   4.531 -0.7817  0.0208  1.3394
13608TIP3   OH262238   4.412   6.040   5.039 -0.0529  0.1268  0.5744
13608TIP3    H162239   4.457   5.987   5.105  1.6079  0.9702  0.1696
13608TIP3    H262240   4.466   6.118   5.030  0.6888 -0.6114 -2.8936
13609TIP3   OH262241   1.106   5.521  14.153 -0.0886  0.2835  0.0851
13609TIP3    H162242   1.086   5.570  14.233 -0.9159  0.8165 -0.4245
13609TIP3    H262243   1.028   5.532  14.098  0.1653 -0.6844 -0.5029
13610TIP3   OH262244   4.491   2.843   5.867 -0.4031 -0.6413  0.0198
13610TIP3    H162245   4.505   2.872   5.777  1.1398 -0.4965  0.2732
13610TIP3    H262246   4.539   2.906   5.920 -3.3019  0.7430  1.2003
13611TIP3   OH262247   5.471   5.890  16.041  0.2455 -0.2269 -0.5474
13611TIP3    H162248   5.382   5.922  16.028 -0.0322  0.0024  1.5319
13611TIP3    H262249   5.511   5.954  16.101  0.9434 -1.6664  0.6044
13612TIP3   OH262250   0.353   0.657   4.047  0.1753  0.4524 -0.5249
13612TIP3    H162251   0.341   0.747   4.015  0.3307  0.7314  0.1761
13612TIP3    H262252   0.315   0.602   3.979  1.5566  0.9550 -1.7423
13613TIP3   OH262253   6.586   2.162  16.467  0.1670 -0.0292 -0.6330
13613TIP3    H162254   6.675   2.196  16.475 -0.1283  0.7415 -0.5592
13613TIP3    H262255   6.578   2.139  16.374 -0.0972  1.4536 -0.9916
13614TIP3   OH262256   4.717   3.454  11.549  0.2389 -0.4960  0.7224
13614TIP3    H162257   4.768   3.534  11.539  1.1938 -0.6601  3.4861
13614TIP3    H262258   4.782   3.384  11.556 -0.5750 -1.6611 -1.9347
13615TIP3   OH262259   0.433   3.551   4.024 -1.0937  0.0379  0.5672
13615TIP3    H162260   0.520   3.553   4.064 -0.9338  1.7473  0.2036
13615TIP3    H262261   0.436   3.478   3.963  0.4961  0.7720 -0.2898
13616TIP3   OH262262   4.833   2.968  17.036 -0.4873 -0.3403 -0.3191
13616TIP3    H162263   4.777   2.892  17.053  0.4743 -1.3891 -1.6528
13616TIP3    H262264   4.854   2.962  16.943  0.2261  1.1551 -0.2819
13617TIP3   OH262265   1.328   4.917   6.355 -0.5352  0.2763 -0.0398
13617TIP3    H162266   1.235   4.933   6.371 -0.4221  0.5807  0.3110
13617TIP3    H262267   1.333   4.823   6.335 -0.7499  0.0052  1.1303
13618TIP3   OH262268   3.732   6.045   2.752  0.2655  0.3388 -0.6325
13618TIP3    H162269   3.793   6.028   2.680 -0.7350 -1.4029 -1.1370
13618TIP3    H262270   3.762   6.127   2.791  2.4003 -0.0263 -1.3923
13619TIP3   OH262271   0.489   5.051   2.130  0.1477  0.0630 -0.0736
13619TIP3    H162272   0.397   5.036   2.108  0.8445 -0.8441 -2.9040
13619TIP3    H262273   0.529   4.964   2.124  0.9616  0.1509  2.8326
13620TIP3   OH262274   6.445   1.837  11.892 -0.0670  0.3944  0.3224
13620TIP3    H162275   6.504   1.812  11.821 -0.8979 -1.2514  0.1720
13620TIP3    H262276   6.365   1.867  11.849 -0.4151 -0.2032  0.5308
13621TIP3   OH262277   5.824   1.348  16.485 -0.3674 -0.1136 -0.1747
13621TIP3    H162278   5.832   1.371  16.392  1.3507 -2.9271 -0.8304
13621TIP3    H262279   5.738   1.307  16.492 -0.2133 -0.5410 -0.6992
13622TIP3   OH262280   6.078   5.699  11.445 -0.0661 -0.5608 -0.4078
13622TIP3    H162281   6.147   5.637  11.423 -0.1317 -1.4138  1.5727
13622TIP3    H262282   5.998   5.657  11.413 -0.0030 -1.0612  0.0760
13623TIP3   OH262283   5.668   4.370  11.820  0.0323  0.0065 -0.5381
13623TIP3    H162284   5.734   4.403  11.882 -1.0213  0.5130  0.3467
13623TIP3    H262285   5.681   4.275  11.819 -0.6820 -0.1525  1.3921
13624TIP3   OH262286   5.958   0.637   3.685 -0.7980  0.6258 -0.2599
13624TIP3    H162287   5.916   0.553   3.667  0.6562 -0.0989 -0.3413
13624TIP3    H262288   5.991   0.629   3.774  0.7503  0.4878 -0.8211
13625TIP3   OH262289   2.375   3.379   1.216  0.4560 -0.3193 -0.0832
13625TIP3    H162290   2.420   3.407   1.295  2.7036  2.8707 -2.2665
13625TIP3    H262291   2.297   3.434   1.211  0.0608 -0.8487  0.1016
13626TIP3   OH262292   2.325   1.573  13.415  0.3221 -1.0276 -0.5652
13626TIP3    H162293   2.264   1.637  13.379  0.5398  0.9490  2.2625
13626TIP3    H262294   2.275   1.491  13.416 -0.6311 -0.5118 -2.5356
13627TIP3   OH262295   1.173   5.020  11.927  0.6071 -0.0840 -0.3158
13627TIP3    H162296   1.172   5.027  11.831 -2.9916  0.8426 -0.3800
13627TIP3    H262297   1.265   5.009  11.950  1.9813  2.5070 -3.6878
13628TIP3   OH262298   5.041   2.891   6.249  0.0506  0.7100 -0.7258
13628TIP3    H162299   5.016   2.829   6.180  0.6932 -1.7677  1.1075
13628TIP3    H262300   5.134   2.907   6.234  0.8481 -1.8424  0.8772
13629TIP3   OH262301   4.561   0.478  13.852 -0.3920 -0.3104  0.0742
13629TIP3    H162302   4.490   0.506  13.909  0.1818 -3.7153  2.8207
13629TIP3    H262303   4.633   0.537  13.871 -1.1580  0.4872  0.5672
13630TIP3   OH262304   0.737   2.264  11.187  0.1304 -0.1969  0.1259
13630TIP3    H162305   0.706   2.314  11.262  2.0664 -1.0682  1.5875
13630TIP3    H262306   0.743   2.328  11.116 -2.1478  0.5550  0.5139
13631TIP3   OH262307   2.894   5.430  14.455 -0.3684 -0.4923 -0.7148
13631TIP3    H162308   2.948   5.427  14.376  0.4928 -0.8990 -0.1200
13631TIP3    H262309   2.935   5.497  14.510 -1.1612  0.0308 -0.7347
13632TIP3   OH262310   2.630   3.493  16.568  0.6152 -0.4714 -0.6250
13632TIP3    H162311   2.598   3.582  16.564  3.2354  0.5380 -1.3531
13632TIP3    H262312   2.556   3.439  16.540 -1.3294  1.3195  0.7324
13633TIP3   OH262313   4.960   3.113  16.514  0.5800 -0.5964 -0.0580
13633TIP3    H162314   5.050   3.088  16.494  0.2257 -1.6762 -0.3953
13633TIP3    H262315   4.907   3.052  16.463 -0.3420 -0.2764  0.5003
13634TIP3   OH262316   4.501   6.646  16.890 -0.1663  0.3686 -0.1249
13634TIP3    H162317   4.456   6.564  16.911 -0.0232  0.3400  0.0794
13634TIP3    H262318   4.539   6.632  16.804 -1.1635  0.6511 -0.6192
13635TIP3   OH262319   4.534   4.397   1.560 -0.6234 -0.2633 -0.6320
13635TIP3    H162320   4.549   4.485   1.593  1.7347 -1.4812  1.8967
13635TIP3    H262321   4.552   4.403   1.466 -0.2393  1.8597 -0.4642
13636TIP3   OH262322   2.117   6.223  15.319 -0.3569  0.5180 -0.2164
13636TIP3    H162323   2.172   6.249  15.393  0.6814  0.4065 -0.9209
13636TIP3    H262324   2.125   6.127  15.316  2.4947  0.6788 -2.5314
13637TIP3   OH262325   4.532   1.099   0.551 -0.1002 -0.2141  0.0060
13637TIP3    H162326   4.598   1.168   0.547  1.2936 -1.3989  1.1046
13637TIP3    H262327   4.494   1.106   0.638  0.7578 -1.3936  0.5088
13638TIP3   OH262328   4.973   2.384  12.321 -0.1536  0.3959 -0.3037
13638TIP3    H162329   5.018   2.306  12.288  0.5761  1.5308 -2.1964
13638TIP3    H262330   4.916   2.411  12.249  0.0178  1.9033  0.0903
13639TIP3   OH262331   0.778   4.455  11.901 -0.3009 -0.4320 -0.1498
13639TIP3    H162332   0.770   4.549  11.919  0.5660 -0.4053  0.1010
13639TIP3    H262333   0.828   4.420  11.975  0.9778 -0.7690 -1.1422
13640TIP3   OH262334   1.306   2.029   1.624  0.6336  0.4462  0.1894
13640TIP3    H162335   1.287   1.940   1.655  1.5105 -0.3198 -1.3500
13640TIP3    H262336   1.220   2.070   1.617  0.0933 -0.6783 -0.1529
13641TIP3   OH262337   0.626   0.921  14.485 -0.2278  0.5415  0.2297
13641TIP3    H162338   0.678   0.969  14.549 -0.5999  1.4151 -0.1071
13641TIP3    H262339   0.687   0.856  14.449  0.6562  1.5775 -0.2013
13642TIP3   OH262340   3.845   3.554   4.922  0.7175  0.1787  0.4021
13642TIP3    H162341   3.894   3.501   4.858 -0.2088 -0.6542  0.3523
13642TIP3    H262342   3.808   3.489   4.982 -0.7257  0.7416  0.1536
13643TIP3   OH262343   0.210   0.759   3.327  0.0189 -0.3548 -0.8634
13643TIP3    H162344   0.288   0.707   3.310  0.1157 -0.0219 -1.4606
13643TIP3    H262345   0.148   0.697   3.364  0.6600 -0.5648 -0.1102
13644TIP3   OH262346   3.853   1.614  12.253  0.1266 -0.1942  0.2183
13644TIP3    H162347   3.864   1.519  12.262  4.4014  0.2253  1.7434
13644TIP3    H262348   3.855   1.629  12.158 -0.5280 -1.5665 -0.0442
13645TIP3   OH262349   6.421   2.331  12.723 -0.1926 -0.0690 -0.5555
13645TIP3    H162350   6.437   2.406  12.666  0.3505  0.1788 -0.0901
13645TIP3    H262351   6.421   2.368  12.812  1.3067 -0.7825 -0.2224
13646TIP3   OH262352   1.012   1.664  13.816  0.0693 -0.1432 -0.0511
13646TIP3    H162353   0.988   1.683  13.907  2.4021 -0.6387  0.7542
13646TIP3    H262354   0.931   1.675  13.766 -1.6166 -1.2381  2.2739
13647TIP3   OH262355   2.824   6.341   4.927  0.7308  0.3413  0.1656
13647TIP3    H162356   2.836   6.336   5.022  3.0261  0.5705 -0.0418
13647TIP3    H262357   2.850   6.255   4.895  1.7475  0.8119 -0.3527
13648TIP3   OH262358   4.877   5.859   5.308  0.6402 -0.2928  0.2298
13648TIP3    H162359   4.964   5.898   5.315 -0.3170  2.3547 -1.1008
13648TIP3    H262360   4.870   5.831   5.217 -0.5179  1.3062 -0.2171
13649TIP3   OH262361   0.677   3.444   2.885  0.3220  0.0002  0.1546
13649TIP3    H162362   0.755   3.437   2.830  0.7087 -0.4840  0.7607
13649TIP3    H262363   0.616   3.380   2.849 -0.0955  0.9057 -0.7924
13650TIP3   OH262364   2.907   2.218   4.540 -0.0650  0.3062  0.2419
13650TIP3    H162365   2.898   2.301   4.493 -1.5966  0.2975  0.4583
13650TIP3    H262366   2.817   2.192   4.560  0.4577 -0.7209  1.3889
13651TIP3   OH262367   5.617   6.766  11.843  0.3391 -0.6855 -0.1278
13651TIP3    H162368   5.659   6.732  11.764  0.3090 -0.5173 -0.2160
13651TIP3    H262369   5.676   6.740  11.914 -0.1864 -1.7979 -0.0835
13652TIP3   OH262370   1.401   4.904   5.594  0.3988  0.3429 -0.0604
13652TIP3    H162371   1.319   4.855   5.603  0.6501  0.1276  1.3349
13652TIP3    H262372   1.375   4.987   5.555 -0.6816  0.6981  1.3202
13653TIP3   OH262373   2.120   3.741  17.080 -0.1923 -0.4158  0.3964
13653TIP3    H162374   2.119   3.648  17.103 -3.2552 -0.0493  2.3309
13653TIP3    H262375   2.140   3.743  16.987  1.3888 -2.8659  0.6094
13654TIP3   OH262376   4.372   1.503  14.443  0.1278 -0.4284 -0.2724
13654TIP3    H162377   4.311   1.429  14.441  0.8799 -1.1745  1.5888
13654TIP3    H262378   4.424   1.489  14.522  1.4833  1.1732 -0.8086
13655TIP3   OH262379   2.542   4.001   0.712 -0.3052 -0.1859 -0.0260
13655TIP3    H162380   2.591   3.945   0.651 -0.1106  1.5675 -1.5612
13655TIP3    H262381   2.609   4.045   0.763 -0.4742 -1.8258  1.6944
13656TIP3   OH262382   1.329   0.211   3.099 -0.2185 -0.3882 -0.1043
13656TIP3    H162383   1.337   0.146   3.029  0.0284 -0.8974  0.3902
13656TIP3    H262384   1.419   0.232   3.123 -0.3014 -0.0578 -0.0761
13657TIP3   OH262385   5.078   3.196   0.478 -0.0286 -0.6163 -0.3385
13657TIP3    H162386   5.022   3.249   0.535  1.7855  0.5416  0.4363
13657TIP3    H262387   5.079   3.109   0.520  0.1378 -0.1755  0.5887
13658TIP3   OH262388   2.825   4.085  15.773  0.3293 -0.7283 -0.3633
13658TIP3    H162389   2.733   4.058  15.776 -0.1345  0.7052 -0.8752
13658TIP3    H262390   2.841   4.108  15.681  1.4898 -1.8609 -0.4775
13659TIP3   OH262391   3.538   1.215   4.983 -0.3743  0.1282  0.0954
13659TIP3    H162392   3.526   1.253   5.070  1.8055  0.1239  0.4655
13659TIP3    H262393   3.618   1.163   4.991 -0.0493  0.2275 -1.9445
13660TIP3   OH262394   0.269   0.419   2.952 -0.0893 -0.0953 -0.2319
13660TIP3    H162395   0.299   0.393   3.039  0.2519 -1.2271 -0.6710
13660TIP3    H262396   0.324   0.370   2.892 -0.1742  0.8444 -1.1019
13661TIP3   OH262397   2.838   4.917  12.541  0.2932  0.3774 -0.3633
13661TIP3    H162398   2.932   4.905  12.532  0.2187  0.1610 -0.9269
13661TIP3    H262399   2.814   4.978  12.471 -0.1231 -0.3385 -0.8682
13662TIP3   OH262400   6.469   3.872  10.439 -0.3770 -0.0050  0.4529
13662TIP3    H162401   6.466   3.804  10.506 -3.1015  1.1904  1.6976
13662TIP3    H262402   6.397   3.850  10.380 -0.7130  1.2769  0.3631
13663TIP3   OH262403   5.313   1.031   5.890  0.0853 -0.1856 -0.2848
13663TIP3    H162404   5.357   1.104   5.847 -1.3330  0.4078 -0.7955
13663TIP3    H262405   5.326   1.046   5.984  0.0622  0.5544 -0.3969
13664TIP3   OH262406   6.709   3.706   4.316 -0.2999 -0.2994 -0.9269
13664TIP3    H162407   6.794   3.681   4.353 -0.8650  0.7787  1.2590
13664TIP3    H262408   6.730   3.764   4.244  0.8464 -1.9678 -1.9970
13665TIP3   OH262409   0.706   6.038   2.174  0.3250  0.0388  0.2689
13665TIP3    H162410   0.781   6.073   2.222 -1.1732 -0.0687  2.9198
13665TIP3    H262411   0.635   6.037   2.239 -1.8207 -0.4239 -1.9367
13666TIP3   OH262412   5.695   3.005  16.368 -0.6444 -0.1128  0.0285
13666TIP3    H162413   5.707   2.946  16.442 -1.9627 -1.7460 -0.9740
13666TIP3    H262414   5.614   3.052  16.387 -0.4818  0.1545  0.0613
13667TIP3   OH262415   4.348   6.236   0.717 -0.2368  0.0288 -0.0806
13667TIP3    H162416   4.436   6.211   0.688 -1.1647 -2.0944 -1.2487
13667TIP3    H262417   4.337   6.193   0.801 -0.2920  0.0016 -0.1017
13668TIP3   OH262418   5.640   3.832  15.905  0.4326 -0.2489  0.0743
13668TIP3    H162419   5.628   3.922  15.874  0.5080 -0.4852 -0.6572
13668TIP3    H262420   5.552   3.805  15.934  0.3294 -0.0723 -0.0712
13669TIP3   OH262421   3.910   3.814  15.733  0.4515 -0.3439 -0.5842
13669TIP3    H162422   3.889   3.734  15.685  0.0117  0.7622 -2.3161
13669TIP3    H262423   3.887   3.885  15.673 -0.4138  1.1403  1.3752
13670TIP3   OH262424   2.601   6.752  16.732 -0.3573  0.2050 -0.4074
13670TIP3    H162425   2.567   6.803  16.806  0.3888  0.3612 -0.1671
13670TIP3    H262426   2.622   6.667  16.770 -0.2544  0.1880 -0.5045
13671TIP3   OH262427   0.082   0.559  14.083 -0.2835  0.1866 -0.3579
13671TIP3    H162428   0.122   0.645  14.073 -0.4031  0.0720 -2.0572
13671TIP3    H262429   0.106   0.532  14.172  1.2937  1.1917 -0.4377
13672TIP3   OH262430   4.094   3.988   5.186  0.2557  0.3912  0.5741
13672TIP3    H162431   4.153   3.988   5.110  0.7148  1.8644  0.9025
13672TIP3    H262432   4.052   3.902   5.183  1.5861 -0.2671 -0.3170
13673TIP3   OH262433   4.144   6.268   3.954  0.2925 -0.3747 -0.0032
13673TIP3    H162434   4.139   6.363   3.947  1.7433 -0.3523 -1.6225
13673TIP3    H262435   4.148   6.237   3.863  0.9113 -1.8931  0.4944
13674TIP3   OH262436   1.838   3.133  17.113 -0.2555  0.2435 -0.5013
13674TIP3    H162437   1.786   3.063  17.153  0.9912 -0.2852  0.2504
13674TIP3    H262438   1.888   3.169  17.186 -0.1271  1.2480 -1.0793
13675TIP3   OH262439   3.247   0.409  11.858  0.3256 -0.1197  0.6121
13675TIP3    H162440   3.294   0.491  11.841 -0.4786  0.4999  1.3115
13675TIP3    H262441   3.272   0.386  11.947 -0.8625  0.3494  1.0849
13676TIP3   OH262442   3.488   5.938  15.159 -0.3169 -0.6079 -0.5949
13676TIP3    H162443   3.451   5.889  15.233 -1.5309 -0.6914 -1.2315
13676TIP3    H262444   3.493   5.874  15.088 -1.7156  0.1063 -1.3748
13677TIP3   OH262445   3.653   6.624   5.649 -0.1026 -0.1587 -0.2074
13677TIP3    H162446   3.590   6.651   5.716 -1.2696 -1.6153 -0.6456
13677TIP3    H262447   3.661   6.699   5.590 -1.8232 -0.1018 -0.4084
13678TIP3   OH262448   4.117   5.654  14.514 -0.2373  0.1503 -0.2476
13678TIP3    H162449   4.187   5.718  14.501  0.2045  0.1340  1.8467
13678TIP3    H262450   4.162   5.571  14.527 -0.6559  0.0349  0.5130
13679TIP3   OH262451   5.686   3.470  16.591  0.4529 -0.7432 -0.0803
13679TIP3    H162452   5.727   3.406  16.650  1.8854  0.3711  0.2126
13679TIP3    H262453   5.752   3.484  16.523  1.5159  2.4928  1.3930
13680TIP3   OH262454   2.550   2.597  12.299  0.5885 -0.5022  0.1313
13680TIP3    H162455   2.567   2.691  12.285  0.1850 -0.6173 -1.2922
13680TIP3    H262456   2.528   2.564  12.212  0.8783 -1.9642  0.5928
13681TIP3   OH262457   6.617   4.267   4.786 -0.1876  0.0442 -0.2139
13681TIP3    H162458   6.624   4.280   4.880 -0.5283  0.5370 -0.2547
13681TIP3    H262459   6.707   4.269   4.754 -0.2038  4.3250 -0.4873
13682TIP3   OH262460   4.684   4.701  15.092 -0.2864  0.0963 -0.1597
13682TIP3    H162461   4.627   4.766  15.051 -2.4192 -1.0740  0.7857
13682TIP3    H262462   4.771   4.740  15.089 -0.9479  1.5936 -2.4737
13683TIP3   OH262463   3.614   3.905  12.380  0.3600 -0.1177  0.0829
13683TIP3    H162464   3.634   3.936  12.291  0.8634 -0.0633  0.2130
13683TIP3    H262465   3.521   3.880  12.376 -0.0637  1.3826 -0.0413
13684TIP3   OH262466   0.819   3.022   6.097 -0.5328 -0.3226  0.0946
13684TIP3    H162467   0.732   3.049   6.127  0.0562 -0.5940  2.2725
13684TIP3    H262468   0.876   3.039   6.173  1.1047 -1.1915 -0.8860
13685TIP3   OH262469   4.428   2.624   1.345  0.1213  0.1708 -0.7927
13685TIP3    H162470   4.389   2.665   1.268 -1.2123 -0.5652 -0.5376
13685TIP3    H262471   4.519   2.608   1.320  0.4394  2.3095 -1.2504
13686TIP3   OH262472   2.753   3.657   1.255  0.3256  0.7767 -0.1892
13686TIP3    H162473   2.747   3.563   1.237 -0.7379  0.6382  0.7725
13686TIP3    H262474   2.734   3.699   1.170  0.5475  0.1407 -0.5590
13687TIP3   OH262475   4.605   3.693  13.247  0.0216 -0.0529  0.1987
13687TIP3    H162476   4.645   3.780  13.245 -0.2573  0.0669 -0.4264
13687TIP3    H262477   4.511   3.710  13.250 -0.1700 -0.2970 -2.3248
13688TIP3   OH262478   0.662   2.598   1.087 -0.6158  0.3783  0.3359
13688TIP3    H162479   0.748   2.567   1.114 -0.9532  0.3989  1.5231
13688TIP3    H262480   0.662   2.592   0.992  0.9888  1.1569  0.2564
13689TIP3   OH262481   5.793   5.687   1.673  0.1640  0.0610  0.2464
13689TIP3    H162482   5.756   5.609   1.715 -0.1372 -1.3267 -2.4171
13689TIP3    H262483   5.718   5.746   1.664 -0.1019 -0.2748  0.2198
13690TIP3   OH262484   3.667   2.246  15.801  0.6248 -0.2060  0.1755
13690TIP3    H162485   3.677   2.329  15.848 -1.5817  0.2992 -0.1309
13690TIP3    H262486   3.595   2.202  15.845  1.2933 -1.6656 -0.1324
13691TIP3   OH262487   3.560   2.055   5.467  0.1061  0.1608 -0.1685
13691TIP3    H162488   3.637   2.085   5.514 -1.1582  0.5908  1.7488
13691TIP3    H262489   3.497   2.127   5.476 -1.0349 -0.7790 -0.3439
13692TIP3   OH262490   0.288   0.129   3.325  0.0770  0.1194  0.4315
13692TIP3    H162491   0.262   0.200   3.384 -1.5138 -0.0294 -0.0605
13692TIP3    H262492   0.221   0.061   3.337 -1.3832  0.7786 -2.7817
13693TIP3   OH262493   2.839   5.375  12.240  0.1793  0.0939  0.0800
13693TIP3    H162494   2.889   5.294  12.234  0.9890  0.6064 -0.1627
13693TIP3    H262495   2.813   5.395  12.150  0.9847  0.7154 -0.0291
13694TIP3   OH262496   1.568   5.771  15.946 -0.1219  0.3588  0.4574
13694TIP3    H162497   1.495   5.831  15.963 -0.1313  0.8417 -1.1017
13694TIP3    H262498   1.639   5.827  15.914  0.0075 -0.3731 -0.6125
13695TIP3   OH262499   5.327   4.538  16.722 -0.1259 -0.3078  0.1637
13695TIP3    H162500   5.393   4.585  16.671 -1.4689  0.7065 -0.6891
13695TIP3    H262501   5.297   4.602  16.787 -0.6551 -0.5850  0.1963
13696TIP3   OH262502   4.445   1.575   2.648  0.1677 -0.2860  0.0394
13696TIP3    H162503   4.515   1.551   2.708  1.0156 -1.6860 -1.4212
13696TIP3    H262504   4.480   1.558   2.561 -1.2913  0.9242 -0.8498
13697TIP3   OH262505   5.464   5.503   6.718 -0.3611  0.1179 -0.1489
13697TIP3    H162506   5.551   5.465   6.732 -0.2845 -0.1964 -1.3395
13697TIP3    H262507   5.469   5.589   6.759  0.6007  0.2066 -0.4231
13698TIP3   OH262508   3.651   5.966   1.347 -0.4617 -0.1153 -0.1821
13698TIP3    H162509   3.734   5.919   1.345  0.9646  2.2745 -1.1075
13698TIP3    H262510   3.614   5.953   1.260  0.1860  0.8364 -0.6155
13699TIP3   OH262511   2.679   3.339  14.002  0.1176  0.5443 -0.4219
13699TIP3    H162512   2.660   3.410  13.941 -0.1017 -0.5158 -1.6292
13699TIP3    H262513   2.744   3.285  13.957  0.4444  0.1007  0.5629
13700TIP3   OH262514   5.883   3.750  13.142  0.0731 -0.4605 -0.5104
13700TIP3    H162515   5.804   3.734  13.091 -0.3744 -2.2835  0.6595
13700TIP3    H262516   5.912   3.663  13.169  1.9858  0.2368 -0.1640
13701TIP3   OH262517   6.453   2.337   1.396  0.1500 -0.1449 -0.0647
13701TIP3    H162518   6.395   2.388   1.452  0.0041 -0.7750  0.3772
13701TIP3    H262519   6.504   2.283   1.457  1.9057  1.0935 -0.3783
13702TIP3   OH262520   5.841   1.798  17.081 -0.0710  0.2598 -0.0526
13702TIP3    H162521   5.875   1.753  17.158 -0.8330  0.7201  0.5715
13702TIP3    H262522   5.919   1.828  17.035  0.4064 -0.3105  0.3576
13703TIP3   OH262523   1.287   5.832   2.534 -0.9486 -0.0800  0.0235
13703TIP3    H162524   1.338   5.913   2.528 -2.3496  0.8364  0.0124
13703TIP3    H262525   1.350   5.763   2.514  0.5258  0.9078  1.0198
13704TIP3   OH262526   0.644   6.751  13.058 -0.2067  0.0803 -0.6595
13704TIP3    H162527   0.717   6.777  13.115  0.0932  0.5296 -1.2378
13704TIP3    H262528   0.686   6.730  12.975 -0.8452  1.5849 -1.4021
13705TIP3   OH262529   4.236   6.350  12.044 -0.5780  0.3142 -0.3483
13705TIP3    H162530   4.206   6.287  12.109 -1.7360  2.4076  1.2853
13705TIP3    H262531   4.314   6.390  12.084  0.4868 -0.4376 -1.6133
13706TIP3   OH262532   5.254   0.929   1.486  0.1911 -0.4741 -0.0094
13706TIP3    H162533   5.242   0.896   1.397 -1.4883  2.2280 -0.9283
13706TIP3    H262534   5.347   0.918   1.504  0.5182 -1.3660 -1.9639
13707TIP3   OH262535   2.862   3.763  14.815 -0.1809 -0.1870  0.3088
13707TIP3    H162536   2.911   3.682  14.799  1.7313  0.7525  1.0272
13707TIP3    H262537   2.850   3.801  14.728  0.0835 -0.5863  0.0927
13708TIP3   OH262538   6.455   0.901   0.181 -0.1487  0.0471  0.3094
13708TIP3    H162539   6.511   0.845   0.234 -0.5575  1.0842  1.9562
13708TIP3    H262540   6.444   0.855   0.099  1.1417 -1.3044  0.8565
13709TIP3   OH262541   5.600   2.074   1.900 -0.1253 -0.3376 -0.4955
13709TIP3    H162542   5.520   2.089   1.848 -0.8601 -0.2379  0.6364
13709TIP3    H262543   5.569   2.038   1.983  0.6408  2.7421  1.2977
13710TIP3   OH262544   0.712   4.314  15.743 -0.2995  0.0249  0.5324
13710TIP3    H162545   0.633   4.360  15.715 -0.3999 -1.5882 -2.0685
13710TIP3    H262546   0.697   4.222  15.722  2.0159 -0.4448  0.5721
13711TIP3   OH262547   4.286   3.721  14.047 -0.0876 -0.0529 -0.4392
13711TIP3    H162548   4.207   3.668  14.060 -0.8360  1.1303  0.0744
13711TIP3    H262549   4.254   3.802  14.006  0.2978  1.8138  2.5900
13712TIP3   OH262550   0.784   4.115  15.368  1.3901 -0.0026 -0.7238
13712TIP3    H162551   0.861   4.130  15.423  0.8143  1.5524 -0.3042
13712TIP3    H262552   0.721   4.072  15.425  0.9020  1.3457 -0.2091
13713TIP3   OH262553   0.601   3.444   3.159  0.5773  0.2504  0.0589
13713TIP3    H162554   0.667   3.450   3.227  1.4756 -0.9571 -0.6651
13713TIP3    H262555   0.646   3.472   3.079  0.2669 -0.6845 -0.4578
13714TIP3   OH262556   6.755   2.747  12.563 -0.8203  0.2431  0.1826
13714TIP3    H162557   6.724   2.835  12.580 -0.0790  0.6805 -0.6401
13714TIP3    H262558   6.831   2.758  12.505 -0.7468 -0.9278  0.0140
13715TIP3   OH262559   0.088   1.540  15.531  0.1171 -0.2969 -0.1859
13715TIP3    H162560   0.139   1.460  15.543 -0.8585 -0.9000  0.0862
13715TIP3    H262561   0.153   1.609  15.519  1.1246 -0.5801  2.8235
13716TIP3   OH262562   6.618   2.120  13.209  0.1239 -0.5247 -0.2783
13716TIP3    H162563   6.642   2.121  13.116  4.4720  0.3850  0.6329
13716TIP3    H262564   6.587   2.209  13.226  1.1972 -0.0713 -0.5521
13717TIP3   OH262565   2.067   0.301   0.503  0.6423  0.9812  0.9186
13717TIP3    H162566   2.107   0.346   0.577  1.8630  0.7909  0.3820
13717TIP3    H262567   1.988   0.352   0.483  1.8245  2.7061  0.5226
13718TIP3   OH262568   2.842   4.124  12.577 -0.3234 -0.3904  0.2616
13718TIP3    H162569   2.850   4.054  12.511 -0.5903  0.6482 -0.9072
13718TIP3    H262570   2.900   4.097  12.648 -1.4314 -2.4847  0.4714
13719TIP3   OH262571   6.437   5.294  11.861 -0.6342  0.2935 -0.2308
13719TIP3    H162572   6.431   5.243  11.780  0.1638  1.2802 -0.9452
13719TIP3    H262573   6.402   5.380  11.838  1.4824  1.2410 -0.1606
13720TIP3   OH262574   5.041   4.172   4.649 -0.4458 -0.5639 -0.5343
13720TIP3    H162575   5.022   4.094   4.598 -0.7421  0.0756 -1.4238
13720TIP3    H262576   5.038   4.244   4.586  0.5825  0.0897  0.1147
13721TIP3   OH262577   0.885   4.960   3.056 -0.8853 -0.5117 -0.4739
13721TIP3    H162578   0.925   4.905   3.123 -1.0011  0.1492  0.1604
13721TIP3    H262579   0.816   4.905   3.018  0.2166 -1.4467 -1.1659
13722TIP3   OH262580   3.820   1.472  11.187  0.2286  0.5334  0.0591
13722TIP3    H162581   3.745   1.529  11.173 -0.6426 -0.4266  0.6805
13722TIP3    H262582   3.892   1.532  11.209  0.5929  1.7922 -3.7741
13723TIP3   OH262583   6.158   5.844   4.667 -0.3790 -0.1797  0.1775
13723TIP3    H162584   6.071   5.860   4.704 -0.5663  0.1797 -0.3970
13723TIP3    H262585   6.202   5.929   4.671  0.7199 -0.7939  2.3733
13724TIP3   OH262586   0.587   3.652  15.600 -0.1319 -0.1188 -0.0317
13724TIP3    H162587   0.529   3.726  15.615 -1.5995 -0.6103 -2.6254
13724TIP3    H262588   0.641   3.679  15.526  2.3759 -0.0523  1.7137
13725TIP3   OH262589   1.455   2.361   4.044  0.6778  0.1275  0.0488
13725TIP3    H162590   1.420   2.273   4.031 -0.2170  0.1233  2.1271
13725TIP3    H262591   1.444   2.378   4.137  0.5688  2.5657 -0.3351
13726TIP3   OH262592   0.663   4.323  15.206  0.0045  0.0876  0.2871
13726TIP3    H162593   0.704   4.249  15.251 -0.3984 -1.0780 -1.1878
13726TIP3    H262594   0.584   4.342  15.257 -0.7491 -1.5877 -0.1968
13727TIP3   OH262595   2.483   2.163  11.007  0.5323  0.2810  0.2296
13727TIP3    H162596   2.521   2.108  11.076 -0.7482  0.9133  1.4913
13727TIP3    H262597   2.399   2.191  11.043  0.0213  0.9803 -1.4429
13728TIP3   OH262598   4.089   6.290   2.115  0.7254  0.5143 -0.4101
13728TIP3    H162599   4.091   6.380   2.080  0.7721 -0.8560 -4.4957
13728TIP3    H262600   4.010   6.287   2.169 -0.8234  2.3527 -2.3969
13729TIP3   OH262601   4.561   4.846   2.911  0.3202  0.4795 -0.2755
13729TIP3    H162602   4.471   4.832   2.940 -0.2732 -0.0710 -2.2184
13729TIP3    H262603   4.615   4.813   2.983 -1.0295 -0.4330  0.3655
13730TIP3   OH262604   4.246   6.215  15.551 -0.3569  0.4825  0.0969
13730TIP3    H162605   4.332   6.180  15.530 -0.0803  1.3119 -0.1783
13730TIP3    H262606   4.263   6.301  15.589 -1.0274  0.3555  0.6985
13731TIP3   OH262607   2.326   4.370   3.076  0.2069 -0.1380 -0.2804
13731TIP3    H162608   2.250   4.365   3.134  0.8292 -0.4373  0.5318
13731TIP3    H262609   2.399   4.394   3.133  1.0746 -1.6113 -0.7005
13732TIP3   OH262610   1.457   6.301  14.039 -0.4232 -0.0347 -0.6424
13732TIP3    H162611   1.476   6.214  14.004 -1.1758 -0.9864  1.2377
13732TIP3    H262612   1.402   6.342  13.972 -1.2111 -1.5149 -0.9286
13733TIP3   OH262613   0.989   6.611  14.750  0.0509  0.4299 -0.6591
13733TIP3    H162614   0.907   6.567  14.772  1.8272 -2.1515  1.3949
13733TIP3    H262615   1.004   6.673  14.821  0.8663 -0.6714  0.1709
13734TIP3   OH262616   1.231   1.580  17.150 -0.1735 -0.2023  0.3197
13734TIP3    H162617   1.254   1.637  17.223 -2.7295 -0.0458  1.0872
13734TIP3    H262618   1.250   1.491  17.183 -1.8949 -0.1875  1.4912
13735TIP3   OH262619   0.632   1.364   1.784  0.3888  0.2489  0.4761
13735TIP3    H162620   0.688   1.398   1.714  0.7209 -2.1305 -0.5245
13735TIP3    H262621   0.693   1.340   1.854  0.3246  0.2184  0.5210
13736TIP3   OH262622   5.165   6.128  12.085  0.1922  0.1160 -0.1275
13736TIP3    H162623   5.078   6.120  12.124 -0.4276  1.7308 -1.0715
13736TIP3    H262624   5.182   6.043  12.045 -0.7326 -0.3711  0.4851
13737TIP3   OH262625   0.015   1.808  15.329  0.1179  0.5846  0.4543
13737TIP3    H162626   0.103   1.800  15.293  0.1609  1.2205  0.4152
13737TIP3    H262627  -0.036   1.847  15.259 -0.8454 -2.2009 -0.5163
13738TIP3   OH262628   3.530   4.897  11.890  0.2126  0.6301 -0.3570
13738TIP3    H162629   3.550   4.864  11.977 -0.7588  0.3975 -0.2137
13738TIP3    H262630   3.523   4.819  11.835  1.9295  0.8143 -0.9181
13739TIP3   OH262631   6.687   1.853  16.178  0.1555 -0.1491 -0.0577
13739TIP3    H162632   6.769   1.809  16.155  0.0274  0.2053 -1.3065
13739TIP3    H262633   6.618   1.795  16.145 -0.0907 -0.2418  0.6013
13740TIP3   OH262634   3.485   1.584   4.061  0.0229  0.0067  0.3323
13740TIP3    H162635   3.420   1.516   4.041 -0.5904  1.0607 -1.4798
13740TIP3    H262636   3.466   1.609   4.152 -1.7063 -0.1796  0.0621
13741TIP3   OH262637   3.060   1.919  12.617 -0.0380 -0.3756  0.1654
13741TIP3    H162638   3.082   1.827  12.636  2.4998  0.1937  0.3696
13741TIP3    H262639   3.066   1.925  12.522 -0.7860 -0.5408  0.1041
13742TIP3   OH262640   6.537   4.774  14.212 -0.5375 -0.2292 -0.5850
13742TIP3    H162641   6.612   4.800  14.160 -1.6039  1.2470 -1.4801
13742TIP3    H262642   6.544   4.679  14.220  1.4964 -0.1127 -0.4648
13743TIP3   OH262643   0.295   2.242   0.872  0.1741 -0.1128  0.1589
13743TIP3    H162644   0.326   2.326   0.908 -0.0080  0.9344 -1.9852
13743TIP3    H262645   0.216   2.265   0.823  1.0213 -1.2223 -1.8423
13744TIP3   OH262646   5.672   1.483  15.487  0.0766  0.4196 -0.4950
13744TIP3    H162647   5.716   1.566  15.471 -0.3169  1.0679  1.5069
13744TIP3    H262648   5.584   1.495  15.450  0.3201  0.5278 -1.0517
13745TIP3   OH262649   1.579   3.487  11.574  0.1526 -0.2227 -0.8227
13745TIP3    H162650   1.674   3.502  11.577  0.0825  0.1854  1.5987
13745TIP3    H262651   1.546   3.526  11.655 -2.0644 -0.6427 -1.4517
13746TIP3   OH262652   2.582   0.120  16.339 -0.1895 -0.0279  0.7853
13746TIP3    H162653   2.515   0.060  16.370  1.1821 -1.7809  0.5086
13746TIP3    H262654   2.660   0.066  16.329  0.7669  1.5173 -0.7936
13747TIP3   OH262655   4.625   2.542  12.951  0.7864 -1.2982 -0.5722
13747TIP3    H162656   4.630   2.484  12.875 -1.4316  0.3352 -2.1161
13747TIP3    H262657   4.535   2.575  12.950  0.9607 -0.4602  2.2447
13748TIP3   OH262658   0.901   5.758   0.754  0.4082 -0.3926  0.1990
13748TIP3    H162659   0.853   5.839   0.735  2.0879  0.5461 -0.2124
13748TIP3    H262660   0.841   5.688   0.728 -1.1750  0.7007  0.7807
13749TIP3   OH262661   2.619   5.039   1.345 -0.0033 -0.3416 -0.3271
13749TIP3    H162662   2.630   4.963   1.402  0.3230 -1.3573 -1.6868
13749TIP3    H262663   2.549   5.014   1.284 -0.4120  0.7436 -0.3224
13750TIP3   OH262664   2.198   1.457   1.351 -0.3945  0.6272 -0.6604
13750TIP3    H162665   2.125   1.517   1.366 -0.6995 -0.0862  0.8540
13750TIP3    H262666   2.159   1.381   1.309 -0.1960  0.9869 -1.5237
13751TIP3   OH262667   5.526   1.155  16.159 -0.1110 -0.3947 -0.1204
13751TIP3    H162668   5.544   1.212  16.084  0.0141 -1.5632 -0.9993
13751TIP3    H262669   5.431   1.144  16.158  0.0744 -2.9083 -2.0805
13752TIP3   OH262670   1.238   5.326   4.840 -0.2093 -0.2347 -0.0214
13752TIP3    H162671   1.277   5.347   4.925 -0.7921  0.1437  0.1526
13752TIP3    H262672   1.240   5.408   4.791  0.9304 -0.6467 -0.7078
13753TIP3   OH262673   0.912   6.139  14.353  0.1515 -0.0749 -0.1249
13753TIP3    H162674   0.867   6.130  14.269 -0.6399 -0.8077  0.3549
13753TIP3    H262675   1.003   6.117  14.334  0.1892  0.7267 -0.9735
13754TIP3   OH262676   0.850   1.515   5.790 -0.1790  0.0818  0.8327
13754TIP3    H162677   0.826   1.462   5.866 -0.5854  0.8427  1.2541
13754TIP3    H262678   0.835   1.606   5.819  3.2858  0.6909  1.2150
13755TIP3   OH262679   3.203   6.018  14.683 -0.1289 -0.0815 -0.1764
13755TIP3    H162680   3.285   5.972  14.699 -0.1620 -0.1299 -0.1424
13755TIP3    H262681   3.209   6.048  14.593  0.1793  0.4433  0.0148
13756TIP3   OH262682   1.948   0.959   1.314 -0.2391  0.3623  0.3753
13756TIP3    H162683   1.990   1.002   1.388 -0.2472  2.5203 -0.8004
13756TIP3    H262684   2.021   0.919   1.266 -0.2009 -0.7686  1.3312
13757TIP3   OH262685   4.234   1.614   1.498  0.4942  0.3316 -0.2430
13757TIP3    H162686   4.163   1.633   1.559  0.1996  3.0941 -1.3042
13757TIP3    H262687   4.238   1.518   1.495 -0.9292  0.1029  2.3707
13758TIP3   OH262688   2.405   5.754   5.060  0.1720 -0.8770 -0.8326
13758TIP3    H162689   2.415   5.721   5.149  1.9088  3.0208  0.6372
13758TIP3    H262690   2.478   5.716   5.011 -0.3304 -2.4154 -0.4203
13759TIP3   OH262691   2.575   3.402   2.625  0.1517  0.2780 -0.5704
13759TIP3    H162692   2.603   3.313   2.648  0.5425  0.3938 -0.5822
13759TIP3    H262693   2.657   3.452   2.618 -0.0987  0.7795  0.0106
13760TIP3   OH262694   5.482   1.818   1.579  0.3823  0.2415 -0.1542
13760TIP3    H162695   5.570   1.808   1.542  0.8700 -0.8510  1.2347
13760TIP3    H262696   5.428   1.758   1.528  0.7376 -0.1267 -0.1051
13761TIP3   OH262697   6.292   2.698  11.282  0.3508 -0.5545 -0.2593
13761TIP3    H162698   6.223   2.663  11.340  2.6332 -0.8645  2.4938
13761TIP3    H262699   6.288   2.793  11.294  1.9457 -0.6877  2.0096
13762TIP3   OH262700   1.784   5.379   0.832  0.0174 -0.2424  0.0621
13762TIP3    H162701   1.789   5.284   0.830  1.2978 -0.2768  2.1773
13762TIP3    H262702   1.722   5.400   0.901 -1.3471  0.5072 -1.3196
13763TIP3   OH262703   5.236   4.501  13.041 -0.1624  0.1699  0.0693
13763TIP3    H162704   5.246   4.406  13.053  0.4486  0.2491  0.2270
13763TIP3    H262705   5.143   4.513  13.023 -0.1689 -0.5124 -0.4086
13764TIP3   OH262706   2.765   1.907  15.137 -0.0139 -0.0517  0.3747
13764TIP3    H162707   2.722   1.856  15.068 -0.5434 -0.6794  1.1492
13764TIP3    H262708   2.841   1.854  15.161  0.5901  0.5265 -0.2305
13765TIP3   OH262709   1.548   5.343   5.314  0.4436  0.2990 -0.8455
13765TIP3    H162710   1.524   5.421   5.364  3.1749 -0.5608  2.0652
13765TIP3    H262711   1.566   5.377   5.226  0.6126  2.7816  0.0563
13766TIP3   OH262712   2.213   5.646  16.314  0.3512 -0.1271  0.4296
13766TIP3    H162713   2.192   5.554  16.328  0.5549 -0.8697 -3.0975
13766TIP3    H262714   2.306   5.646  16.289  0.0402  0.8060 -0.8914
13767TIP3   OH262715   0.631   1.519   3.234 -0.3621 -0.3107  0.6446
13767TIP3    H162716   0.610   1.613   3.238 -0.3742 -0.3083  0.5220
13767TIP3    H262717   0.564   1.478   3.289  0.4132 -0.1224  1.7607
13768TIP3   OH262718   3.529   2.313  17.112  0.3880 -0.2562  0.5248
13768TIP3    H162719   3.478   2.252  17.058 -0.6892  0.1073  1.1207
13768TIP3    H262720   3.464   2.362  17.162  1.2615  1.0603  0.4167
13769TIP3   OH262721   0.023   2.122  12.960  0.6052  0.6241 -0.4092
13769TIP3    H162722   0.113   2.135  12.987  0.5707 -0.1235  0.0580
13769TIP3    H262723   0.018   2.166  12.874  1.9272 -0.9916 -1.3650
13770TIP3   OH262724   6.770   5.532  14.851  0.0589  0.2044  0.2283
13770TIP3    H162725   6.760   5.538  14.946  1.3310  1.0723  0.3385
13770TIP3    H262726   6.681   5.541  14.817 -0.7464 -2.3776  1.3796
13771TIP3   OH262727   0.781   1.043  15.229  0.0136 -0.1331 -0.0989
13771TIP3    H162728   0.696   1.086  15.234  0.7294  1.2578  0.5033
13771TIP3    H262729   0.778   0.992  15.148 -1.3942 -0.1287 -0.0642
13772TIP3   OH262730   5.659   1.182   2.673 -0.3433 -0.0161 -0.5463
13772TIP3    H162731   5.677   1.159   2.581  0.8246 -0.7388 -0.1711
13772TIP3    H262732   5.564   1.181   2.680 -0.5501  1.8663 -2.1765
13773TIP3   OH262733   2.090   0.069  13.186 -0.5155  0.5304  0.2544
13773TIP3    H162734   2.134  -0.016  13.193 -0.7884  0.3562 -0.1064
13773TIP3    H262735   2.026   0.068  13.258 -0.0512  0.7144  0.6726
13774TIP3   OH262736   1.247   1.817  12.661 -0.1185  0.0783  0.9571
13774TIP3    H162737   1.205   1.882  12.717 -0.5435 -0.4781  1.2979
13774TIP3    H262738   1.337   1.847  12.652 -1.1063  2.6333 -1.7709
13775TIP3   OH262739   5.558   3.897   6.027  0.0612 -0.8027 -0.1122
13775TIP3    H162740   5.507   3.936   6.099 -2.7217  0.1959 -2.4050
13775TIP3    H262741   5.642   3.943   6.030 -0.7376  0.7155  1.2495
13776TIP3   OH262742   4.847   0.394   0.020  0.2317 -0.0030 -0.7053
13776TIP3    H162743   4.801   0.374   0.101 -1.1712 -0.0074 -1.4655
13776TIP3    H262744   4.867   0.308  -0.018  0.2279  0.0050 -0.7254
13777TIP3   OH262745   5.710   6.463   3.792 -0.1836 -0.1704  0.6989
13777TIP3    H162746   5.780   6.528   3.786  1.0096 -1.2853  1.7943
13777TIP3    H262747   5.756   6.379   3.793 -1.4651 -0.9131  2.4965
13778TIP3   OH262748   4.354   2.021  13.585 -0.0568 -0.5751 -0.5614
13778TIP3    H162749   4.305   1.943  13.557  0.8770 -0.9799 -1.1121
13778TIP3    H262750   4.443   1.990  13.598 -0.0378  0.0355  0.9725
13779TIP3   OH262751   6.319   4.899   5.353  0.0794 -0.4637  0.2644
13779TIP3    H162752   6.239   4.951   5.365  1.3825  1.5611  0.7238
13779TIP3    H262753   6.379   4.957   5.306  1.1687 -2.0799 -0.4535
13780TIP3   OH262754   6.582   1.502  12.152  0.6852 -0.0146 -0.1395
13780TIP3    H162755   6.613   1.450  12.225  0.4820 -1.8941 -1.3176
13780TIP3    H262756   6.596   1.593  12.179 -1.9887 -0.4351  3.4027
13781TIP3   OH262757   0.750   1.915  14.581 -0.1481 -0.4137  0.1121
13781TIP3    H162758   0.664   1.927  14.622 -0.1099  2.1667 -0.3560
13781TIP3    H262759   0.737   1.845  14.518 -1.8431 -0.2556  0.2310
13782TIP3   OH262760   2.614   6.433  15.961 -0.1198 -0.1283 -0.5892
13782TIP3    H162761   2.607   6.341  15.986  2.0212 -0.5243 -1.2664
13782TIP3    H262762   2.640   6.478  16.042  0.1938 -0.3496 -0.5636
13783TIP3   OH262763   4.886   6.046  15.540 -0.1038 -0.6900 -0.2194
13783TIP3    H162764   4.872   5.996  15.459  2.0093 -0.2293 -0.9351
13783TIP3    H262765   4.803   6.039  15.587 -2.5124  1.3967 -3.6823
13784TIP3   OH262766   5.625   6.093  11.118 -0.0205 -0.0649 -0.2253
13784TIP3    H162767   5.569   6.170  11.114 -0.3537 -0.3324 -0.8766
13784TIP3    H262768   5.677   6.097  11.037  0.7289  0.0462  0.2481
13785TIP3   OH262769   1.398   2.315   0.190  0.0174  0.4302 -0.3078
13785TIP3    H162770   1.361   2.257   0.123  0.5633  0.4879 -0.6704
13785TIP3    H262771   1.424   2.394   0.141 -0.3113  0.7943  0.1074
13786TIP3   OH262772   5.643   2.356  17.017 -0.2424 -0.2889  0.1070
13786TIP3    H162773   5.636   2.317  16.930  3.0447  0.7234 -0.7760
13786TIP3    H262774   5.646   2.281  17.076  1.2971 -1.2553 -1.0979
13787TIP3   OH262775   3.955   1.564   1.285 -0.2162 -0.0970 -0.6015
13787TIP3    H162776   4.000   1.605   1.359  0.1934 -0.6033 -0.5641
13787TIP3    H262777   3.862   1.582   1.301  0.0650  2.7018 -1.7414
13788TIP3   OH262778   2.964   1.627   5.936  0.5943 -0.1601 -0.5252
13788TIP3    H162779   2.894   1.685   5.964 -0.1978 -1.2546 -0.1848
13788TIP3    H262780   3.013   1.607   6.015  1.0613  0.2881 -0.6958
13789TIP3   OH262781   0.069   6.137   3.542  0.2440 -0.2862  0.2428
13789TIP3    H162782   0.010   6.157   3.469  0.1981  0.7908  0.5483
13789TIP3    H262783   0.029   6.180   3.618  1.8127  1.2183  0.2945
13790TIP3   OH262784   0.622   5.576  12.195  0.5126 -0.0192  0.6908
13790TIP3    H162785   0.705   5.619  12.177  0.3736 -0.7193 -1.9288
13790TIP3    H262786   0.555   5.641  12.171  0.2779  0.1164  1.6634
13791TIP3   OH262787   1.440   3.001  11.170 -0.0563  0.2592 -0.0671
13791TIP3    H162788   1.409   2.965  11.088 -1.5160  3.9339 -1.3560
13791TIP3    H262789   1.525   3.041  11.149 -0.3582  1.0783  0.2164
13792TIP3   OH262790   2.404   5.313   2.471 -0.6933  0.1734  0.3263
13792TIP3    H162791   2.493   5.318   2.507 -0.0240  1.5298 -1.3707
13792TIP3    H262792   2.417   5.291   2.379 -2.0857  1.0791 -0.1058
13793TIP3   OH262793   5.006   1.231   3.876 -0.0602 -0.3492  0.3839
13793TIP3    H162794   5.019   1.313   3.828  1.2391 -1.1981 -0.7822
13793TIP3    H262795   5.094   1.196   3.888 -0.6318 -1.9520  0.1770
13794TIP3   OH262796   6.083   4.751  13.864 -0.6317 -0.5546  0.0348
13794TIP3    H162797   5.999   4.716  13.893 -0.3514 -2.0015 -0.8254
13794TIP3    H262798   6.107   4.697  13.789  1.4517 -0.6943  0.7406
13795TIP3   OH262799   5.798   0.707  10.639  0.0618  0.3928 -0.0008
13795TIP3    H162800   5.858   0.782  10.641  0.3689  0.2312 -1.6466
13795TIP3    H262801   5.760   0.705  10.727  0.9031  1.7710  0.4394
13796TIP3   OH262802   6.168   5.524   4.783 -0.2761  0.4330  0.4909
13796TIP3    H162803   6.148   5.610   4.745 -0.0457  0.3265  0.1210
13796TIP3    H262804   6.083   5.488   4.805 -0.2939  1.5682  2.4880
13797TIP3   OH262805   4.574   0.502  16.741 -0.0235  0.0461 -0.1153
13797TIP3    H162806   4.569   0.560  16.666 -1.3227 -0.2535 -0.2862
13797TIP3    H262807   4.663   0.513  16.774  0.1719  1.1168 -0.9379
13798TIP3   OH262808   6.473   3.265  15.900  0.1331  0.3219 -0.3461
13798TIP3    H162809   6.498   3.253  15.991  0.0053  1.9898 -0.0515
13798TIP3    H262810   6.463   3.176  15.865 -0.3193 -0.3459  1.3920
13799TIP3   OH262811   1.815   0.398   0.979 -0.0119  0.3814 -0.2224
13799TIP3    H162812   1.735   0.435   0.939 -2.0676 -1.7578  1.6482
13799TIP3    H262813   1.827   0.450   1.058 -2.1610 -1.8424  1.7318
13800TIP3   OH262814   0.567   0.122  12.532 -0.0249 -0.7910  0.7217
13800TIP3    H162815   0.548   0.169  12.614 -0.9646 -0.1012  0.1270
13800TIP3    H262816   0.481   0.103  12.495  0.3740  0.4500 -0.9681
13801TIP3   OH262817   3.721   6.065   2.220 -0.4229  0.5520  0.1450
13801TIP3    H162818   3.753   6.137   2.274  1.1430 -1.0326  1.4640
13801TIP3    H262819   3.801   6.021   2.190 -1.2805 -2.0859  1.4473
13802TIP3   OH262820   1.742   1.054  15.901 -0.9872  0.0583 -0.0018
13802TIP3    H162821   1.689   0.984  15.864 -1.9276  0.4606  0.5642
13802TIP3    H262822   1.736   1.042  15.996  1.2192 -0.8297  0.0756
13803TIP3   OH262823   1.440   1.169  15.871  0.5471 -0.1928 -0.5412
13803TIP3    H162824   1.526   1.203  15.845  1.2471  0.4269  2.2595
13803TIP3    H262825   1.385   1.246  15.881  0.2666 -0.4169 -0.3440
13804TIP3   OH262826   3.652   4.151   5.395 -0.0633  0.3322  0.2560
13804TIP3    H162827   3.695   4.221   5.345  0.3446 -1.7240 -2.4932
13804TIP3    H262828   3.724   4.100   5.432 -0.1903 -0.6379 -0.7664
13805TIP3   OH262829   1.551   0.756  11.437  0.0374  0.0631 -0.0004
13805TIP3    H162830   1.644   0.775  11.421  0.3090 -0.7966  0.4678
13805TIP3    H262831   1.519   0.832  11.486  0.2638  0.7658 -0.9144
13806TIP3   OH262832   4.823   2.566  16.017 -0.0969  0.0068 -0.1563
13806TIP3    H162833   4.911   2.528  16.016  0.4879  1.2563  1.3359
13806TIP3    H262834   4.818   2.618  15.937  0.9493  0.8246  0.2943
13807TIP3   OH262835   4.366   2.081   0.824 -0.9835  0.1279  0.6303
13807TIP3    H162836   4.368   2.106   0.916 -0.7385  0.6045  0.5029
13807TIP3    H262837   4.347   1.988   0.824  1.9376 -0.5788  1.2861
13808TIP3   OH262838   6.200   3.446   2.432 -0.5897  0.2774  0.0476
13808TIP3    H162839   6.157   3.364   2.457 -0.0172 -0.0135  0.1041
13808TIP3    H262840   6.130   3.512   2.434 -1.4736 -0.5482 -1.9075
13809TIP3   OH262841   0.971   2.165  11.373 -0.1608  0.0676 -0.1692
13809TIP3    H162842   0.879   2.146  11.355  0.3316 -0.8313 -1.9715
13809TIP3    H262843   0.969   2.245  11.426 -2.0527 -1.1474  1.7724
13810TIP3   OH262844   2.904   2.317   1.845  0.0520  0.2879 -0.4530
13810TIP3    H162845   2.844   2.247   1.866  1.5872 -1.7982 -2.5001
13810TIP3    H262846   2.849   2.395   1.838 -1.7887 -0.7651  1.3695
13811TIP3   OH262847   0.396   5.416  12.716  0.1840  0.3565  0.9070
13811TIP3    H162848   0.378   5.392  12.625 -0.4594  0.9213  0.8742
13811TIP3    H262849   0.327   5.374  12.767  0.3128  0.3680  1.0957
13812TIP3   OH262850   3.204   6.161   0.743 -0.0746 -0.4979 -0.4192
13812TIP3    H162851   3.223   6.250   0.772 -0.3978 -0.5371 -0.0735
13812TIP3    H262852   3.134   6.131   0.800  0.7856 -1.3844  0.2139
13813TIP3   OH262853   3.332   2.278   3.578 -0.4097 -0.1080  0.5540
13813TIP3    H162854   3.248   2.318   3.555 -0.0926 -0.1594 -0.7997
13813TIP3    H262855   3.335   2.197   3.526 -0.2832 -1.0200  1.9288
13814TIP3   OH262856   1.202   5.517   2.384 -0.1575 -0.5746 -0.2258
13814TIP3    H162857   1.152   5.594   2.359  0.7441 -0.3656 -1.4618
13814TIP3    H262858   1.168   5.494   2.471  0.8638  2.3199  1.0572
13815TIP3   OH262859   2.236   3.016  11.677  0.2478 -0.2885 -0.3040
13815TIP3    H162860   2.204   2.937  11.634  1.7146 -0.5404 -0.9967
13815TIP3    H262861   2.329   3.000  11.692  0.3016  0.8050  0.7122
13816TIP3   OH262862   1.221   1.595  12.817 -0.3433 -0.6779  0.5969
13816TIP3    H162863   1.236   1.645  12.736 -0.0893 -0.3949  0.8182
13816TIP3    H262864   1.205   1.662  12.884 -0.2734 -0.9040  0.8386
13817TIP3   OH262865   4.387   4.132   0.815 -0.1859  0.7125  0.2235
13817TIP3    H162866   4.349   4.063   0.762  0.8511  0.2647  0.0288
13817TIP3    H262867   4.331   4.137   0.892  0.1266 -0.8784  0.5971
13818TIP3   OH262868   6.167   2.341  16.731 -0.7153 -0.5034 -0.1965
13818TIP3    H162869   6.080   2.350  16.693 -1.0343  0.5369  0.7493
13818TIP3    H262870   6.205   2.428  16.727 -0.7310 -0.3770  1.7667
13819TIP3   OH262871   4.537   3.120   6.325 -0.2745  0.3178 -0.4115
13819TIP3    H162872   4.515   3.197   6.272  0.9509  1.3381  0.4987
13819TIP3    H262873   4.586   3.155   6.399 -0.7809 -1.2177  0.7134
13820TIP3   OH262874   3.480   2.131   2.725 -0.6220 -0.3617 -0.1838
13820TIP3    H162875   3.506   2.052   2.676 -1.1059 -1.1679  0.8231
13820TIP3    H262876   3.542   2.134   2.798  0.2217  0.9459 -0.9090
13821TIP3   OH262877   0.858   3.007   2.153  0.2516 -0.8221 -0.5431
13821TIP3    H162878   0.854   2.979   2.061  0.5637 -1.2120 -0.4402
13821TIP3    H262879   0.951   3.002   2.175  0.3267  0.4101 -0.5537
13822TIP3   OH262880   6.134   5.194   2.860 -0.8829 -0.3250  0.6483
13822TIP3    H162881   6.043   5.201   2.887 -1.0790  0.3463 -0.1616
13822TIP3    H262882   6.170   5.126   2.917 -1.6921 -0.0934  1.4656
13823TIP3   OH262883   4.362   6.325   6.509  0.4806  0.5056 -0.3920
13823TIP3    H162884   4.303   6.255   6.536  0.4044  0.2131 -1.2816
13823TIP3    H262885   4.345   6.396   6.571 -0.0488  0.0510 -0.0021
13824TIP3   OH262886   1.261   1.846  11.316  0.0050  0.0992  0.2654
13824TIP3    H162887   1.240   1.923  11.262  1.1816  0.6604  0.5640
13824TIP3    H262888   1.191   1.843  11.381 -0.5049  0.4271 -0.2531
13825TIP3   OH262889   1.642   1.527  14.573  0.1391  0.1818  0.4962
13825TIP3    H162890   1.690   1.586  14.632  0.9560 -0.2101  0.2320
13825TIP3    H262891   1.627   1.579  14.495 -0.8549  0.6690  0.9847
13826TIP3   OH262892   2.002   4.346   0.223 -0.8272 -0.0740 -0.0495
13826TIP3    H162893   1.918   4.330   0.180 -0.2629 -1.7621 -0.6187
13826TIP3    H262894   2.063   4.288   0.178  0.6866  1.2017  0.2754
13827TIP3   OH262895   3.346   0.148   5.018  0.5037  0.6922  0.2234
13827TIP3    H162896   3.324   0.168   5.109  1.4360  2.7186  0.0431
13827TIP3    H262897   3.431   0.103   5.023 -0.1852 -0.6335  0.4272
13828TIP3   OH262898   4.531   1.346  13.309 -0.4877  0.5917 -0.3398
13828TIP3    H162899   4.483   1.317  13.231  0.7703 -1.7217 -0.3539
13828TIP3    H262900   4.622   1.326  13.289 -0.1073  0.2730  1.5898
13829TIP3   OH262901   1.372   0.800  15.015 -0.5758  0.2800 -0.1479
13829TIP3    H162902   1.328   0.735  15.071  1.2417 -0.6391  0.3041
13829TIP3    H262903   1.317   0.878  15.022 -1.9497 -0.6934  0.6155
13830TIP3   OH262904   4.698   4.854   5.401 -0.4337  0.7536  0.0763
13830TIP3    H162905   4.609   4.866   5.366 -1.0481  0.4290  1.4641
13830TIP3    H262906   4.706   4.760   5.416  0.8058  0.5360 -1.6235
13831TIP3   OH262907   4.611   6.044  11.311 -0.0938  0.6878 -0.3345
13831TIP3    H162908   4.631   6.079  11.225  0.6506  1.0652 -0.0123
13831TIP3    H262909   4.695   6.012  11.345 -0.3587  0.6370  0.2943
13832TIP3   OH262910   3.624   0.188   4.429 -0.3307 -0.1209 -0.1071
13832TIP3    H162911   3.614   0.280   4.404  1.6798  0.2567  0.3209
13832TIP3    H262912   3.716   0.179   4.453 -0.9111 -1.8001  1.7563
13833TIP3   OH262913   0.615   1.969   3.983 -0.3576  0.4278 -0.0726
13833TIP3    H162914   0.572   1.985   3.900 -1.1175 -0.3296  0.1639
13833TIP3    H262915   0.598   1.877   4.003  1.7535 -0.0523 -0.1749
13834TIP3   OH262916   3.100   6.505  12.982 -0.5047  0.1479 -0.4224
13834TIP3    H162917   3.034   6.571  13.006 -0.1762  0.3243 -0.0004
13834TIP3    H262918   3.142   6.482  13.064 -0.9199 -0.9342 -0.5006
13835TIP3   OH262919   0.195   3.803  12.202  0.5135 -0.0941  0.1438
13835TIP3    H162920   0.220   3.722  12.157 -0.7923 -0.0410 -0.7217
13835TIP3    H262921   0.276   3.835  12.241  1.4996 -0.6374 -1.4021
13836TIP3   OH262922   6.561   0.784   4.601  0.5460  0.1084 -0.4349
13836TIP3    H162923   6.654   0.806   4.603  1.0995 -2.0646  0.4941
13836TIP3    H262924   6.559   0.688   4.594 -1.6417  0.1623 -1.4622
13837TIP3   OH262925   0.266   0.807  13.992  0.4496  0.3337 -0.6708
13837TIP3    H162926   0.335   0.753  14.030  0.6132  0.0689 -1.3364
13837TIP3    H262927   0.309   0.857  13.922  0.3190  1.3992 -0.0155
13838TIP3   OH262928   4.570   2.364   5.780  0.0955  0.4721  0.2418
13838TIP3    H162929   4.562   2.312   5.700  0.5585  0.9293 -0.1053
13838TIP3    H262930   4.482   2.399   5.794 -0.3258 -0.7078  0.6982
13839TIP3   OH262931   4.499   3.559  16.092 -0.8393 -0.4293 -0.3055
13839TIP3    H162932   4.418   3.517  16.064 -0.5692 -0.4448 -1.0858
13839TIP3    H262933   4.511   3.632  16.031 -0.9758  0.4208  0.6478
13840TIP3   OH262934   1.172   2.240  12.228 -0.5694 -0.5826 -0.4890
13840TIP3    H162935   1.119   2.162  12.211 -0.5204 -0.8534  0.5163
13840TIP3    H262936   1.263   2.208  12.222 -0.5489 -0.5921 -0.1328
13841TIP3   OH262937   1.398   5.393  16.454 -0.7330 -0.2900 -0.0969
13841TIP3    H162938   1.395   5.302  16.485 -0.3872  0.1073  1.1514
13841TIP3    H262939   1.487   5.403  16.421 -0.0837  0.1842  1.7072
13842TIP3   OH262940   6.609   0.024   5.460  0.0036  0.3161 -0.3836
13842TIP3    H162941   6.663  -0.014   5.391  0.4432 -0.6079  0.4484
13842TIP3    H262942   6.664   0.094   5.497  0.6141 -0.5659  0.4049
13843TIP3   OH262943   2.050   3.002   5.345 -0.0453 -0.5214 -0.2512
13843TIP3    H162944   2.020   3.029   5.432  0.8615  1.0293 -0.3796
13843TIP3    H262945   2.082   3.083   5.305  4.1051 -1.8794 -0.1751
13844TIP3   OH262946   3.523   6.410  11.293  0.1670  0.2024 -0.1762
13844TIP3    H162947   3.475   6.488  11.265  0.7237  1.0271  1.1189
13844TIP3    H262948   3.609   6.418  11.252  0.8183  1.1676  1.3372
13845TIP3   OH262949   4.567   2.643   4.426 -0.3832 -0.1443 -0.1486
13845TIP3    H162950   4.592   2.565   4.377  0.7565 -0.0493  0.2553
13845TIP3    H262951   4.604   2.630   4.513  0.8804  1.3660 -0.4080
13846TIP3   OH262952   0.669   1.835   1.957  0.7010  0.3720  0.4405
13846TIP3    H162953   0.633   1.922   1.973  0.3438  0.2836  0.1244
13846TIP3    H262954   0.743   1.829   2.017  1.0933  1.1178  0.0491
13847TIP3   OH262955   1.789   2.378   2.412  0.9352  0.2989 -0.3573
13847TIP3    H162956   1.762   2.468   2.390  0.3194  0.5253  1.2084
13847TIP3    H262957   1.882   2.375   2.392  0.5920  0.6713 -2.2745
13848TIP3   OH262958   1.537   5.966   3.966  0.8032  0.4871  0.9514
13848TIP3    H162959   1.451   5.929   3.986 -0.1585  1.2590 -1.3715
13848TIP3    H262960   1.529   6.059   3.987  0.8258  0.6827  0.1424
13849TIP3   OH262961   6.708   0.016   5.782  0.4278 -0.2912 -0.3058
13849TIP3    H162962   6.762   0.083   5.740  2.2486 -0.6380  1.3356
13849TIP3    H262963   6.756  -0.065   5.768  0.8411 -0.4910  1.8741
13850TIP3   OH262964   2.287   3.595  11.662 -0.2382  0.3307 -0.4125
13850TIP3    H162965   2.263   3.517  11.612  2.2204 -1.6636  1.1814
13850TIP3    H262966   2.211   3.613  11.717 -0.5359 -1.7088 -0.0464
13851TIP3   OH262967   5.480   3.418   1.871 -0.7538 -0.1263  0.0555
13851TIP3    H162968   5.494   3.399   1.779  0.0883  0.8357 -0.0365
13851TIP3    H262969   5.454   3.334   1.910 -2.6626 -0.2252 -1.3210
13852TIP3   OH262970   3.034   3.288   3.346  0.3174 -0.1253 -0.4932
13852TIP3    H162971   2.985   3.269   3.266 -1.2032 -0.6222  0.5100
13852TIP3    H262972   3.066   3.203   3.375 -1.4201 -0.3858  0.8164
13853TIP3   OH262973   0.617   3.809  16.457 -0.7453 -0.6200 -0.5771
13853TIP3    H162974   0.535   3.844  16.492 -1.3475 -1.4820 -1.0902
13853TIP3    H262975   0.682   3.877  16.476 -1.7229  0.4274 -0.8741
13854TIP3   OH262976   6.429   1.499  11.653 -0.2036 -0.3177 -0.1183
13854TIP3    H162977   6.365   1.544  11.709  0.1316 -1.3028  1.0927
13854TIP3    H262978   6.393   1.411  11.643 -0.1789 -0.2012 -1.3625
13855TIP3   OH262979   4.863   3.084  11.158  0.2005 -0.0019  0.1733
13855TIP3    H162980   4.812   3.135  11.095  1.3071  0.4800 -0.3543
13855TIP3    H262981   4.803   3.071  11.232 -0.4714  1.1387 -0.1394
13856TIP3   OH262982   3.058   1.915   4.537 -0.2212 -0.3608 -0.1035
13856TIP3    H162983   3.124   1.859   4.576 -1.2844 -2.1550 -0.7720
13856TIP3    H262984   3.027   1.866   4.461 -1.3622  1.0465 -0.5868
13857TIP3   OH262985   2.618   3.041  16.326 -0.5107  0.7977 -0.1263
13857TIP3    H162986   2.608   2.995  16.243 -1.9194 -2.3579  1.5789
13857TIP3    H262987   2.539   3.093  16.335  0.1093  1.9554 -1.1484
13858TIP3   OH262988   1.953   2.500  10.330 -0.2257 -0.0177  0.1633
13858TIP3    H162989   1.908   2.583  10.315  0.8667  0.5455 -0.1146
13858TIP3    H262990   1.883   2.439  10.354 -0.8259  1.5909  3.0123
13859TIP3   OH262991   2.609   0.355   1.073  0.0270  0.8180  0.4299
13859TIP3    H162992   2.595   0.388   0.984  2.6327 -0.6391 -0.6280
13859TIP3    H262993   2.681   0.407   1.108  0.2034  0.2055  1.0072
13860TIP3   OH262994   0.199   1.762  11.984 -0.2851 -0.2837  0.3834
13860TIP3    H162995   0.179   1.808  12.065  0.5798 -1.1206  1.0922
13860TIP3    H262996   0.221   1.832  11.922  0.5619  0.3127  1.3096
13861TIP3   OH262997   2.294   3.504  16.063  0.5931 -0.1544 -0.5740
13861TIP3    H162998   2.375   3.456  16.046 -0.0190 -0.9658 -1.2624
13861TIP3    H262999   2.278   3.553  15.982 -1.1481 -2.2954 -1.6111
13862TIP3   OH263000   0.817   4.604  11.040 -0.3117 -0.0207  0.0239
13862TIP3    H163001   0.753   4.550  10.992  0.2875 -0.7222 -0.0023
13862TIP3    H263002   0.836   4.676  10.980 -1.1482  0.2588  0.0736
13863TIP3   OH263003   6.460   6.398  15.484 -0.2118 -0.2582 -0.3576
13863TIP3    H163004   6.529   6.457  15.453 -1.5303 -0.2369 -3.7513
13863TIP3    H263005   6.505   6.316  15.503  0.9587  0.2354 -0.9102
13864TIP3   OH263006   4.456   4.394  12.900  0.0649  0.1547 -0.5905
13864TIP3    H163007   4.546   4.364  12.888 -0.1208  0.1684 -2.2041
13864TIP3    H263008   4.403   4.315  12.894 -0.1967  0.4120 -1.9883
13865TIP3   OH263009   2.863   5.139  10.948 -0.1920 -0.3297 -0.7785
13865TIP3    H163010   2.831   5.061  10.903  0.4566 -0.2077 -1.4663
13865TIP3    H263011   2.786   5.196  10.956 -0.4020 -0.5213 -1.3833
13866TIP3   OH263012   4.113   3.770   0.102 -0.3367 -0.5252 -0.0523
13866TIP3    H163013   4.046   3.743   0.165 -1.6050  2.3356  0.0029
13866TIP3    H263014   4.064   3.805   0.028  1.0781  0.5763 -0.5234
13867TIP3   OH263015   6.608   1.977   3.404  0.5721  0.2501  0.0485
13867TIP3    H163016   6.600   1.992   3.498  0.6078  0.7067 -0.0187
13867TIP3    H263017   6.691   1.931   3.394  0.1494 -0.5944  0.3219
13868TIP3   OH263018   4.653   4.444  16.842 -0.0049  0.0186 -0.3173
13868TIP3    H163019   4.679   4.495  16.765 -0.7179  1.4300  0.3316
13868TIP3    H263020   4.574   4.398  16.814  0.9901 -1.2925 -1.1058
13869TIP3   OH263021   1.036   0.288   3.480 -0.1472  0.8136 -0.4547
13869TIP3    H163022   1.055   0.381   3.491 -0.4202  0.9604 -1.1860
13869TIP3    H263023   0.956   0.285   3.428 -1.4978  0.1750  1.5492
13870TIP3   OH263024   0.234   2.062   5.149  0.2586  0.4172 -0.0521
13870TIP3    H163025   0.255   1.976   5.186  0.9449  0.3985 -0.4723
13870TIP3    H263026   0.278   2.125   5.206 -1.5030  0.6044  1.1695
13871TIP3   OH263027   6.714   3.962   3.896 -0.3387 -0.0055  0.0173
13871TIP3    H163028   6.706   3.871   3.867 -0.9460  0.6761 -2.1319
13871TIP3    H263029   6.774   3.958   3.971 -1.4752 -2.3212  0.9043
13872TIP3   OH263030   6.000   5.915   0.214  0.0126 -0.1525  0.2107
13872TIP3    H163031   5.962   5.986   0.162  0.0322  0.0216  0.4342
13872TIP3    H263032   6.094   5.928   0.206  0.0111  0.2611  0.8200
13873TIP3   OH263033   2.339   2.548  11.708  0.3892 -0.2036  0.0533
13873TIP3    H163034   2.322   2.631  11.752  1.2698 -0.5338  1.0603
13873TIP3    H263035   2.255   2.502  11.710  0.2076  0.1404  0.6327
13874TIP3   OH263036   1.154   1.828  12.944  0.3831  0.3736 -0.0454
13874TIP3    H163037   1.217   1.897  12.962  1.4340 -0.2799 -1.0443
13874TIP3    H263038   1.113   1.809  13.028  2.2465  0.1236  0.8496
13875TIP3   OH263039   3.469   4.144   5.891 -1.3152 -0.3317 -0.5074
13875TIP3    H163040   3.545   4.196   5.917 -0.7147 -1.2403 -0.4330
13875TIP3    H263041   3.420   4.132   5.973  0.6392 -3.3020  0.3771
13876TIP3   OH263042   5.989   3.130   2.691  0.3666  0.6603  0.1253
13876TIP3    H163043   6.081   3.157   2.699  0.8738 -1.0463  0.4604
13876TIP3    H263044   5.988   3.074   2.613 -0.8422  2.2871 -1.1087
13877TIP3   OH263045   4.621   5.762   1.613 -0.2857 -0.9554  0.2893
13877TIP3    H163046   4.529   5.784   1.626 -0.1436 -0.2036  0.0615
13877TIP3    H263047   4.639   5.788   1.522  0.5975  0.5288  0.8576
13878TIP3   OH263048   1.453   0.758   0.517  0.3630 -0.7664  0.0692
13878TIP3    H163049   1.405   0.799   0.589  1.7480  0.0282  0.5786
13878TIP3    H263050   1.385   0.731   0.456 -0.7644 -0.1662  1.0142
13879TIP3   OH263051   1.872   0.009   5.595  0.0211  0.1745 -0.0244
13879TIP3    H163052   1.931   0.084   5.598  0.2794  0.0516 -1.2591
13879TIP3    H263053   1.784   0.047   5.594  0.1534  0.4722 -0.7454
13880TIP3   OH263054   6.691   6.655   0.437 -0.4700  1.0805  0.1346
13880TIP3    H163055   6.716   6.743   0.466  0.1647  0.4231  1.6796
13880TIP3    H263056   6.736   6.596   0.498 -2.4282 -0.2781  0.3466
13881TIP3   OH263057   3.439   1.384  13.540 -0.2925  0.2690  0.1421
13881TIP3    H163058   3.440   1.361  13.633 -1.6614 -0.1556  0.0752
13881TIP3    H263059   3.428   1.300  13.495 -3.6544  0.7189 -0.1803
13882TIP3   OH263060   0.996   5.251  11.391  0.2822 -0.2147 -0.1453
13882TIP3    H163061   1.057   5.321  11.367 -0.9859  1.3776  1.0276
13882TIP3    H263062   0.925   5.259  11.328  1.4584 -2.4298 -1.8615
13883TIP3   OH263063   3.284   4.013  11.951  0.5653 -0.1532  0.0268
13883TIP3    H163064   3.201   3.984  11.987  0.1743  0.5053 -0.3322
13883TIP3    H263065   3.339   3.934  11.951 -0.1163 -0.6340  0.0785
13884TIP3   OH263066   0.705   6.484  14.904 -0.3583  0.6524  0.3050
13884TIP3    H163067   0.681   6.477  14.812 -0.1514 -0.5559  0.3281
13884TIP3    H263068   0.695   6.577  14.924 -3.3484  0.5439 -0.1606
13885TIP3   OH263069   0.021   6.269   0.463 -0.3933  0.5375  0.0268
13885TIP3    H163070   0.038   6.307   0.377  0.5298 -0.8943 -0.4619
13885TIP3    H263071   0.054   6.333   0.525 -0.3242  1.2230 -0.7032
13886TIP3   OH263072   1.341   2.376  13.042  0.5391 -0.4678  0.7933
13886TIP3    H163073   1.267   2.429  13.069  0.4655 -0.5573  0.7668
13886TIP3    H263074   1.418   2.427  13.068  0.4693 -0.5263  1.1294
13887TIP3   OH263075   3.915   2.223  16.254 -0.7329  0.8216 -0.3469
13887TIP3    H163076   3.843   2.210  16.192 -0.3455 -0.3015 -0.5923
13887TIP3    H263077   3.990   2.245  16.199 -0.1393 -1.1874 -0.4208
13888TIP3   OH263078   3.759   4.680  16.630 -0.1438 -0.0016  0.0276
13888TIP3    H163079   3.782   4.603  16.578  0.6233  1.0161 -1.1909
13888TIP3    H263080   3.719   4.740  16.568  1.3651  1.5025  0.4233
13889TIP3   OH263081   0.586   5.914  17.007  0.5172 -0.3594  0.0212
13889TIP3    H163082   0.663   5.907  16.950  1.3425  1.2139  0.8762
13889TIP3    H263083   0.514   5.937  16.947  0.8288 -1.1741 -0.6925
13890TIP3   OH263084   0.203   2.825   0.494 -0.5397  0.6457 -0.3371
13890TIP3    H163085   0.206   2.731   0.474 -0.0686  0.2028  1.6717
13890TIP3    H263086   0.131   2.858   0.439  0.4050 -0.5138 -2.3989
13891TIP3   OH263087   1.683   3.306   5.639 -0.0713 -0.3818  0.3132
13891TIP3    H163088   1.704   3.349   5.722 -0.5941 -0.1074  0.3095
13891TIP3    H263089   1.601   3.259   5.656  0.5287 -1.4467  0.3370
13892TIP3   OH263090   1.770   1.803  14.124 -0.1509 -0.3064 -0.1113
13892TIP3    H163091   1.743   1.819  14.214 -0.1023  1.7460 -0.4033
13892TIP3    H263092   1.690   1.774  14.079 -0.2992 -0.7968  0.4616
13893TIP3   OH263093   1.463   4.448  11.049  0.3074  0.8947  0.4913
13893TIP3    H163094   1.402   4.404  10.989  0.9293  0.9156 -0.1653
13893TIP3    H263095   1.409   4.513  11.094  0.1690  2.0727 -1.2902
13894TIP3   OH263096   6.413   6.501   1.412  0.3238  0.3561  0.1091
13894TIP3    H163097   6.400   6.547   1.495  0.3479 -0.4992  0.5934
13894TIP3    H263098   6.383   6.412   1.428  1.2745 -0.0945 -0.4935
13895TIP3   OH263099   4.138   5.897  12.616 -0.2620  0.6656  0.3312
13895TIP3    H163100   4.099   5.815  12.647  0.4818 -0.9400 -2.5244
13895TIP3    H263101   4.231   5.887  12.633 -0.2776  1.4396  0.9314
13896TIP3   OH263102   5.885   1.042  12.560 -0.5405 -0.6879  0.1919
13896TIP3    H163103   5.979   1.030  12.576 -0.5025 -0.9004 -0.1716
13896TIP3    H263104   5.877   1.133  12.532 -0.3308 -0.8918 -0.5498
13897TIP3   OH263105   1.349   6.288  13.527  0.1603 -0.1119  0.5538
13897TIP3    H163106   1.402   6.355  13.484  0.0956 -0.4492 -0.0628
13897TIP3    H263107   1.409   6.246  13.588  0.3202  0.2113  0.6219
13898TIP3   OH263108   4.171   0.775  12.387  0.0252 -0.0671 -0.2630
13898TIP3    H163109   4.182   0.733  12.302 -0.7486  0.7125 -0.7685
13898TIP3    H263110   4.206   0.712  12.450 -1.9039 -1.8607 -0.8942
13899TIP3   OH263111   0.175   1.557   3.147  0.4560  0.0604  0.1175
13899TIP3    H163112   0.197   1.485   3.088  0.7974 -0.6897  1.1266
13899TIP3    H263113   0.097   1.527   3.194  0.4558  0.4523  0.3739
13900TIP3   OH263114   5.959   0.672   3.020  0.1691 -0.5630  0.2504
13900TIP3    H163115   6.015   0.749   3.011 -0.1568 -0.2383  0.9531
13900TIP3    H263116   6.000   0.606   2.964  1.4709 -0.4583  1.0434
13901TIP3   OH263117   1.237   3.511   3.282  0.1814  0.1397 -0.3736
13901TIP3    H163118   1.181   3.543   3.353 -3.1580  0.4738 -2.8773
13901TIP3    H263119   1.228   3.416   3.285 -0.1234  0.1653 -0.4673
13902TIP3   OH263120   1.858   2.467  11.464 -0.0002  0.3722  0.2883
13902TIP3    H163121   1.862   2.402  11.394 -0.0163 -0.1991  0.8062
13902TIP3    H263122   1.947   2.500  11.471  1.0180 -2.4339  2.6214
13903TIP3   OH263123   0.113   0.170   2.250 -0.1858  0.3461  0.1520
13903TIP3    H163124   0.025   0.206   2.264  0.8153  2.3871  2.0107
13903TIP3    H263125   0.118   0.153   2.156 -2.3150  0.8530 -0.1041
13904TIP3   OH263126   2.829   5.032  16.226  0.0065  0.3099 -0.2343
13904TIP3    H163127   2.861   4.942  16.233 -1.0133 -0.1155 -0.7401
13904TIP3    H263128   2.749   5.024  16.174 -0.2338  1.4827 -0.0610
13905TIP3   OH263129   1.271   1.411  14.577 -0.2085 -0.2899  0.0817
13905TIP3    H163130   1.177   1.428  14.581 -0.3743 -1.3507  1.9643
13905TIP3    H263131   1.309   1.472  14.641  0.2527 -0.6110  0.1175
13906TIP3   OH263132   2.047   5.659  11.823 -0.1934  0.4075 -0.5515
13906TIP3    H163133   2.122   5.675  11.881  0.0375  0.2717 -0.8098
13906TIP3    H263134   2.060   5.569  11.792 -0.0346  0.6545 -1.2166
13907TIP3   OH263135   0.173   0.940   1.224  0.0531  0.4065 -0.2605
13907TIP3    H163136   0.268   0.929   1.217  0.1917  0.9344  0.6506
13907TIP3    H263137   0.154   1.019   1.174  0.0908  0.3166 -0.4191
13908TIP3   OH263138   2.335   0.565  15.806  0.0897 -0.3284  0.3080
13908TIP3    H163139   2.315   0.479  15.842  1.3274 -0.6857  0.1822
13908TIP3    H263140   2.338   0.552  15.712 -0.0101 -0.0809  0.2682
13909TIP3   OH263141   1.211   5.242   5.273 -0.2477 -0.6725 -0.6158
13909TIP3    H163142   1.167   5.317   5.314  0.4331 -0.6699  0.1387
13909TIP3    H263143   1.139   5.190   5.236 -1.3312 -2.3771  3.3515
13910TIP3   OH263144   4.020   3.537  12.389 -0.2056  0.2213 -0.4037
13910TIP3    H163145   4.089   3.582  12.439 -1.9048  1.4164  1.0164
13910TIP3    H263146   3.948   3.600  12.387 -1.1881 -0.8781 -2.0726
13911TIP3   OH263147   0.178   0.129   4.317  0.3384 -0.3524 -0.3329
13911TIP3    H163148   0.144   0.185   4.386 -2.6037  0.6852 -2.4161
13911TIP3    H263149   0.222   0.188   4.257 -2.1329 -0.2052 -2.1592
13912TIP3   OH263150   4.901   2.805   4.585 -0.1187  0.1384  0.1073
13912TIP3    H163151   4.955   2.729   4.608  1.0997  1.0258  0.3285
13912TIP3    H263152   4.857   2.779   4.505 -0.3935 -1.1072  0.6322
13913TIP3   OH263153   3.585   4.171  13.484 -0.7404  0.2104  0.0068
13913TIP3    H163154   3.651   4.241  13.484  1.1797 -1.4808 -1.2538
13913TIP3    H263155   3.576   4.146  13.576  0.3527  0.4991  0.2012
13914TIP3   OH263156   5.926   4.758   3.754 -0.6469  0.8731 -0.4446
13914TIP3    H163157   5.946   4.850   3.742  1.4328  0.6265  0.6467
13914TIP3    H263158   5.835   4.757   3.783 -0.3674  2.7044  0.6771
13915TIP3   OH263159   1.036   3.181  16.735  0.1065 -0.1792  0.3946
13915TIP3    H163160   1.048   3.117  16.664  0.0748 -0.3999  0.5873
13915TIP3    H263161   0.942   3.200  16.733  0.4912  1.9763 -1.4741
13916TIP3   OH263162   2.518   0.733   1.301  0.4385  0.4574  0.1179
13916TIP3    H163163   2.555   0.745   1.214  1.3293  1.4219  0.6133
13916TIP3    H263164   2.545   0.811   1.350 -3.2778  1.9096  0.1737
13917TIP3   OH263165   0.575   1.681   4.056 -0.3837 -0.2312 -0.1496
13917TIP3    H163166   0.587   1.726   4.140  1.8866 -0.9435 -0.0218
13917TIP3    H263167   0.569   1.588   4.080 -1.2876 -0.3220 -0.6872
13918TIP3   OH263168   5.017   1.185   3.138 -0.5114 -0.1694 -0.8013
13918TIP3    H163169   4.962   1.206   3.214  0.7918 -2.4860  0.8962
13918TIP3    H263170   5.068   1.265   3.123 -0.9100  0.4032  0.6990
13919TIP3   OH263171   1.726   4.157   4.932 -0.7126  0.4181 -0.0018
13919TIP3    H163172   1.727   4.069   4.895 -0.1867  0.3029  0.2734
13919TIP3    H263173   1.716   4.215   4.856 -0.8687  0.1303 -0.2018
13920TIP3   OH263174   2.946   4.809   4.683  0.0049  0.0529 -0.3121
13920TIP3    H163175   2.934   4.749   4.757 -1.3010  1.1799  0.4509
13920TIP3    H263176   2.899   4.768   4.611  0.3772 -0.5480 -0.2126
13921TIP3   OH263177   6.122   1.715  13.789  0.6468  0.2907  0.2357
13921TIP3    H163178   6.065   1.762  13.728  0.1844  0.1216  0.5378
13921TIP3    H263179   6.187   1.674  13.732  0.4876  0.5034 -0.1088
13922TIP3   OH263180   1.066   5.842   0.937 -0.0793  0.3150 -0.0998
13922TIP3    H163181   0.986   5.838   0.884 -0.3177 -0.1380  0.2918
13922TIP3    H263182   1.092   5.751   0.949 -1.9889  0.0651  3.5084
13923TIP3   OH263183   5.289   0.902   4.156  0.4037  0.1118  0.2175
13923TIP3    H163184   5.340   0.822   4.165 -0.9695 -1.0170 -1.4142
13923TIP3    H263185   5.286   0.939   4.244  1.7383 -1.1819  0.8484
13924TIP3   OH263186   3.474   2.502  16.604  0.0759  0.1364 -0.1530
13924TIP3    H163187   3.418   2.457  16.540 -0.0204  1.6286 -1.1701
13924TIP3    H263188   3.557   2.512  16.559  0.1468  0.8129  0.1221
13925TIP3   OH263189   2.152   3.677   3.309 -0.5121  0.1361  0.4671
13925TIP3    H163190   2.086   3.611   3.283  0.5907 -0.8928  0.1763
13925TIP3    H263191   2.234   3.643   3.274  0.2633  1.1448  1.2550
13926TIP3   OH263192   5.891   2.795  11.687 -0.3262 -0.1318 -0.0348
13926TIP3    H163193   5.796   2.803  11.701 -0.1816  0.5683  0.5907
13926TIP3    H263194   5.904   2.824  11.596 -0.7830 -0.8491 -0.3411
13927TIP3   OH263195   3.249   3.639  14.964 -0.0360  0.5687 -0.0873
13927TIP3    H163196   3.240   3.587  15.044 -1.4564 -0.5282 -0.9235
13927TIP3    H263197   3.273   3.575  14.897  1.6155  1.5481 -0.4955
13928TIP3   OH263198   1.182   6.772   2.964  0.3803 -0.2334  0.5778
13928TIP3    H163199   1.179   6.691   2.914  0.7459 -0.7300  1.3380
13928TIP3    H263200   1.155   6.840   2.902 -0.7262 -1.0367  0.1501
13929TIP3   OH263201   5.883   4.294   2.808  0.1795 -0.7568  0.0792
13929TIP3    H163202   5.808   4.353   2.818  0.9392  0.3770 -0.7322
13929TIP3    H263203   5.844   4.211   2.782 -0.7805 -0.0990 -0.6622
13930TIP3   OH263204   6.734   2.255  15.593 -0.2831  0.0662  0.4314
13930TIP3    H163205   6.811   2.274  15.647  1.0772 -0.5960 -1.1876
13930TIP3    H263206   6.739   2.160  15.577 -0.0596  0.3855 -1.6550
13931TIP3   OH263207   1.686   3.925   4.782 -0.0080 -0.5427  0.2343
13931TIP3    H163208   1.611   3.866   4.782 -1.0683  0.7430 -0.9027
13931TIP3    H263209   1.717   3.925   4.691  1.5468 -1.2160  0.7180
13932TIP3   OH263210   2.638   1.095   0.632 -0.0951  0.3504 -0.3397
13932TIP3    H163211   2.682   1.010   0.625  0.0916  0.4001  0.1681
13932TIP3    H263212   2.647   1.134   0.545 -0.0704 -0.0979 -0.5397
13933TIP3   OH263213   2.912   2.158   0.609 -0.3004  0.1402  0.4881
13933TIP3    H163214   3.005   2.147   0.586 -0.7391 -0.3410 -1.2617
13933TIP3    H263215   2.866   2.144   0.526 -1.8511  1.8483  0.9934
13934TIP3   OH263216   5.398   2.780   2.084 -0.2296 -0.3479  0.1139
13934TIP3    H163217   5.385   2.780   2.179 -0.2601 -2.2201  0.1552
13934TIP3    H263218   5.459   2.851   2.067  0.8005 -0.8103  1.7168
13935TIP3   OH263219   5.929   4.476  12.352  0.1052 -0.8597 -0.4817
13935TIP3    H163220   5.987   4.522  12.412 -0.3797  2.3737 -2.2846
13935TIP3    H263221   5.987   4.415  12.305  1.2650 -0.4156  0.3215
13936TIP3   OH263222   1.359   2.126   1.142  0.1017 -0.0286 -0.1140
13936TIP3    H163223   1.323   2.048   1.099  1.1616 -0.8453  0.4242
13936TIP3    H263224   1.282   2.173   1.174 -0.5584 -0.9074 -0.3597
13937TIP3   OH263225   4.209   3.501  16.339  0.3232  0.1884 -0.5852
13937TIP3    H163226   4.224   3.457  16.255 -1.1361  0.3236 -0.9551
13937TIP3    H263227   4.146   3.444  16.384  1.3046 -0.0275  0.5525
13938TIP3   OH263228   4.617   0.364  15.461 -0.3201 -0.9691  0.3643
13938TIP3    H163229   4.631   0.377  15.555  1.3733  0.3940 -0.0224
13938TIP3    H263230   4.689   0.307  15.434 -1.7107 -2.6880  0.1299
13939TIP3   OH263231   4.572   3.467  11.899 -0.2757  0.0867  0.1802
13939TIP3    H163232   4.628   3.454  11.976  0.6787 -0.5879 -0.6087
13939TIP3    H263233   4.510   3.394  11.903  0.2069 -0.3398 -0.0590
13940TIP3   OH263234   0.523   3.136  15.806 -0.3705  0.1623 -0.0279
13940TIP3    H163235   0.565   3.189  15.873 -0.8425  4.5137 -2.7755
13940TIP3    H263236   0.592   3.080  15.772  0.7729  0.5451  1.5811
13941TIP3   OH263237   1.062   4.447  12.298  0.1154 -0.1544  0.7178
13941TIP3    H163238   1.045   4.537  12.271  0.2991 -0.2653  0.2277
13941TIP3    H263239   0.994   4.428  12.363 -0.3115  0.1222  0.3555
13942TIP3   OH263240   3.475   2.092  13.520 -0.2738  0.0786  0.2906
13942TIP3    H163241   3.507   2.032  13.587 -0.7406  0.5766  0.9789
13942TIP3    H263242   3.519   2.065  13.440  1.9808  0.7888  1.1981
13943TIP3   OH263243   0.926   5.173  11.851  0.1471 -0.2772  0.0574
13943TIP3    H163244   0.949   5.087  11.816 -0.1507 -0.0612 -0.6906
13943TIP3    H263245   0.836   5.164  11.881 -0.0246 -0.1189 -0.4010
13944TIP3   OH263246   3.979   5.761  14.271  0.3631  0.3330  0.1414
13944TIP3    H163247   4.019   5.733  14.353 -2.2098  0.2906  1.4770
13944TIP3    H263248   3.964   5.679  14.223  4.6908  0.4896 -1.9850
13945TIP3   OH263249   6.254   5.533   6.155  0.7399 -0.4034 -0.0953
13945TIP3    H163250   6.245   5.622   6.190 -1.3055 -0.0610 -1.3657
13945TIP3    H263251   6.326   5.540   6.092  0.0074  0.6126 -0.8638
13946TIP3   OH263252   4.128   1.919   2.158  0.3714  0.1215 -0.1356
13946TIP3    H163253   4.072   1.994   2.137 -1.5923 -1.6515 -1.5377
13946TIP3    H263254   4.217   1.952   2.143 -0.4270  2.1178 -0.8794
13947TIP3   OH263255   6.125   4.965  16.747  0.0644 -0.3854 -0.0426
13947TIP3    H163256   6.168   4.879  16.747  1.1367  0.1382  0.5348
13947TIP3    H263257   6.189   5.024  16.787 -1.0400  0.4997  0.4605
13948TIP3   OH263258   3.748   6.417   4.769 -0.0816  0.2994  0.4032
13948TIP3    H163259   3.836   6.384   4.787  0.4940  0.8258 -1.2201
13948TIP3    H263260   3.714   6.360   4.700 -0.3933  1.0029 -0.0454
13949TIP3   OH263261   3.910   3.915  12.931  0.8304  0.1777 -0.3317
13949TIP3    H163262   3.913   3.844  12.867 -0.7482 -1.5142  1.3107
13949TIP3    H263263   3.818   3.919  12.957  1.5193  0.0460  2.5081
13950TIP3   OH263264   5.098   6.586   0.183  0.1219  0.2961  0.0570
13950TIP3    H163265   5.104   6.604   0.277  0.6161 -1.8803  0.4898
13950TIP3    H263266   5.016   6.627   0.156 -0.1380  0.7578  1.4659
13951TIP3   OH263267   1.279   6.384   0.086 -0.4995 -0.3886 -0.1790
13951TIP3    H163268   1.347   6.445   0.059 -0.1706 -1.1817 -1.2192
13951TIP3    H263269   1.258   6.409   0.176 -1.7607  2.4684 -1.1732
13952TIP3   OH263270   2.809   5.706  15.474  0.3077  0.0092  0.3048
13952TIP3    H163271   2.826   5.681  15.565  0.6286  0.6697  0.4244
13952TIP3    H263272   2.883   5.670  15.425 -1.4661 -3.3908 -0.2631
13953TIP3   OH263273   3.602   5.889   4.999 -0.2526  0.0998 -0.0625
13953TIP3    H163274   3.526   5.904   4.944 -0.5417 -1.3176 -0.0743
13953TIP3    H263275   3.572   5.910   5.088  0.3577  2.8878 -0.4083
13954TIP3   OH263276   6.014   3.118  12.348  0.8226  0.1688  0.1289
13954TIP3    H163277   6.081   3.050  12.363  0.0345 -0.2983  1.8144
13954TIP3    H263278   6.011   3.166  12.431 -1.5521 -0.4089  0.4420
13955TIP3   OH263279   5.954   3.078  16.252 -0.0998 -0.2765  0.2822
13955TIP3    H163280   5.995   3.000  16.214  0.4541  0.1745 -0.0738
13955TIP3    H263281   5.869   3.048  16.284 -0.8697 -0.5818 -1.8651
13956TIP3   OH263282   5.055   6.247   1.860 -0.2367  0.2162  0.0998
13956TIP3    H163283   5.059   6.342   1.866 -1.6943  0.3146 -0.2895
13956TIP3    H263284   5.141   6.218   1.891  0.9909  1.7349 -1.6837
13957TIP3   OH263285   5.137   2.050  14.824 -0.7433  0.0249  0.2329
13957TIP3    H163286   5.121   2.122  14.763  0.5651 -0.3973 -0.6414
13957TIP3    H263287   5.050   2.013  14.840 -1.1652  0.3733 -1.1039
13958TIP3   OH263288   5.769   1.819   4.775  0.0271  0.0007  0.2128
13958TIP3    H163289   5.774   1.729   4.743 -0.2010 -0.0447  0.3035
13958TIP3    H263290   5.683   1.825   4.818 -0.6049  0.6958 -1.0881
13959TIP3   OH263291   1.345   3.768   2.607 -0.3630  0.2848  0.4200
13959TIP3    H163292   1.394   3.715   2.670  0.6713  0.7881  0.0621
13959TIP3    H263293   1.352   3.857   2.641  3.5991  1.2775 -2.2860
13960TIP3   OH263294   0.826   2.417   6.331  0.2462 -0.2685 -0.1999
13960TIP3    H163295   0.844   2.442   6.422  0.6077 -1.7576  0.1552
13960TIP3    H263296   0.904   2.446   6.283 -0.1408  0.9370 -0.1371
13961TIP3   OH263297   0.840   3.878   3.269  0.0262 -0.0916  0.2076
13961TIP3    H163298   0.768   3.941   3.262 -1.4575 -1.7871 -0.7445
13961TIP3    H263299   0.797   3.792   3.262  1.7593 -1.3037  2.9244
13962TIP3   OH263300   5.839   4.530   0.826  0.9886 -0.2437 -0.6034
13962TIP3    H163301   5.771   4.477   0.783  0.4637  0.5513 -0.7607
13962TIP3    H263302   5.813   4.620   0.810  0.8188  0.0770  1.3360
13963TIP3   OH263303   3.119   5.685   4.799 -0.2717 -0.6516 -0.2845
13963TIP3    H163304   3.172   5.609   4.823  0.5451 -0.0968 -0.2628
13963TIP3    H263305   3.136   5.749   4.868  0.7836  0.3474 -1.4146
13964TIP3   OH263306   3.200   2.789  11.279 -0.1037 -0.0083  0.1652
13964TIP3    H163307   3.177   2.881  11.265  0.6120  0.0950 -0.4066
13964TIP3    H263308   3.217   2.783  11.373  2.0601  1.0034 -0.0953
13965TIP3   OH263309   1.265   4.274  13.601 -0.2738 -0.5867 -0.7619
13965TIP3    H163310   1.200   4.268  13.530 -2.8469 -2.4634  1.5777
13965TIP3    H263311   1.221   4.323  13.670  2.0139  0.8031 -0.1603
13966TIP3   OH263312   1.823   5.917  13.419  0.2603  0.1097  0.2342
13966TIP3    H163313   1.814   5.858  13.343 -2.8721 -0.7724  1.1017
13966TIP3    H263314   1.746   5.898  13.472  1.3922  2.0186  2.7526
13967TIP3   OH263315   5.426   1.044  11.526  0.0652  0.9317 -0.1820
13967TIP3    H163316   5.518   1.026  11.545 -0.8197 -0.8090  3.2738
13967TIP3    H263317   5.409   1.129  11.565  0.0121  0.8533 -0.0335
13968TIP3   OH263318   5.031   0.176  12.661 -0.1577  0.5776 -0.0197
13968TIP3    H163319   5.069   0.089  12.646 -0.4349  0.2274  1.1664
13968TIP3    H263320   5.106   0.231  12.684 -0.1568  0.2814  0.7103
13969TIP3   OH263321   2.384   2.843   3.906  0.3927 -0.0944  0.3064
13969TIP3    H163322   2.358   2.759   3.869  1.0550 -0.9586  1.6997
13969TIP3    H263323   2.463   2.867   3.858 -0.3845  0.2922 -0.8256
13970TIP3   OH263324   0.844   3.828  13.898  0.0586  0.0396 -0.3039
13970TIP3    H163325   0.907   3.894  13.868  0.0398 -0.0776 -0.6140
13970TIP3    H263326   0.762   3.852  13.855 -0.0494  0.0550 -0.0878
13971TIP3   OH263327   1.302   2.283   6.291  0.5270 -0.0574  0.2453
13971TIP3    H163328   1.350   2.214   6.337  0.1020 -0.2555  0.4068
13971TIP3    H263329   1.225   2.239   6.256 -0.4648  0.5799  1.5079
13972TIP3   OH263330   3.239   2.787  14.417  0.0478  0.0304 -0.1586
13972TIP3    H163331   3.144   2.788  14.407 -0.0131  0.1031  0.3940
13972TIP3    H263332   3.253   2.780  14.512  0.5900 -2.1018 -0.3436
13973TIP3   OH263333   5.879   3.808  17.038  0.0617  0.8620 -0.1289
13973TIP3    H163334   5.942   3.737  17.047  1.3027  1.4026 -3.1945
13973TIP3    H263335   5.797   3.772  17.073  0.4732 -2.4012 -2.0497
13974TIP3   OH263336   2.091   4.576   2.118 -0.4534 -0.2256 -0.0584
13974TIP3    H163337   2.168   4.556   2.065 -0.2056 -0.4488  0.3875
13974TIP3    H263338   2.019   4.529   2.075 -0.4312  0.3055 -0.7111
13975TIP3   OH263339   0.157   0.920  12.198  0.5091 -0.5645 -0.0461
13975TIP3    H163340   0.203   0.860  12.256  1.2850 -0.2949 -0.3756
13975TIP3    H263341   0.107   0.863  12.140 -2.4421 -0.8754  2.4804
13976TIP3   OH263342   2.163   1.926  11.672 -0.1040 -0.0956 -0.1236
13976TIP3    H163343   2.155   1.838  11.709 -0.2295 -0.6511 -1.4154
13976TIP3    H263344   2.079   1.968  11.692  0.1196 -0.1095  0.8756
13977TIP3   OH263345   2.904   4.606   0.770  0.3412  0.0604  0.2079
13977TIP3    H163346   2.925   4.559   0.689  1.8526  0.9977  0.0142
13977TIP3    H263347   2.890   4.697   0.741 -0.6844  0.1190  0.8184
13978TIP3   OH263348   4.870   2.383   0.895  0.3482 -0.1851  0.5118
13978TIP3    H163349   4.953   2.352   0.859 -0.4555 -0.6847 -0.9792
13978TIP3    H263350   4.804   2.354   0.832 -1.1740 -1.2461  2.4681
13979TIP3   OH263351   1.684   1.987  13.833  0.6647  0.0824 -0.1123
13979TIP3    H163352   1.716   1.992  13.923  1.3237  0.5093 -0.3601
13979TIP3    H263353   1.646   1.900  13.825 -0.6749  0.5424  0.9942
13980TIP3   OH263354   4.053   4.752  12.509 -0.2239  0.3466  0.1441
13980TIP3    H163355   4.113   4.756  12.584 -0.7980 -3.1481  0.9906
13980TIP3    H263356   3.966   4.746  12.548 -0.5347 -1.5551 -0.7212
13981TIP3   OH263357   1.975   4.195   2.823 -0.0123  0.2443  0.1308
13981TIP3    H163358   2.023   4.204   2.740  0.8260 -0.6670  0.5008
13981TIP3    H263359   1.998   4.274   2.872 -2.4707  2.0774 -1.4152
13982TIP3   OH263360   1.199   2.012  15.237 -0.2281 -0.0788  0.4780
13982TIP3    H163361   1.243   2.034  15.319  1.2718  1.2853 -0.6478
13982TIP3    H263362   1.251   1.941  15.200 -1.2579 -1.1168  0.9578
13983TIP3   OH263363   4.686   4.511   2.032  0.1977 -0.3437 -0.4049
13983TIP3    H163364   4.728   4.540   1.951 -0.8710 -0.8610 -1.1826
13983TIP3    H263365   4.600   4.554   2.031  0.0519 -0.6028  0.2945
13984TIP3   OH263366   2.945   0.937   1.575  0.5919 -0.2799  0.1527
13984TIP3    H163367   2.897   0.855   1.570 -1.9096  0.9975  1.0904
13984TIP3    H263368   2.926   0.970   1.664 -1.7052  2.9910 -1.3234
13985TIP3   OH263369   4.954   6.504  16.781  0.7292 -0.2676 -0.9377
13985TIP3    H163370   4.915   6.571  16.725 -2.0288  0.1597  1.3085
13985TIP3    H263371   5.009   6.554  16.842  2.9504 -0.6551 -2.4671
13986TIP3   OH263372   0.651   0.578   2.135 -0.1567 -0.0123  0.0768
13986TIP3    H163373   0.616   0.616   2.055  1.1494 -0.5668 -0.7894
13986TIP3    H263374   0.708   0.646   2.172  1.7291 -0.8209 -1.1730
13987TIP3   OH263375   0.266   0.374  16.828  0.1372  0.2914 -0.1885
13987TIP3    H163376   0.329   0.313  16.866 -0.3681  0.1774  0.4800
13987TIP3    H263377   0.306   0.460  16.842 -0.2936  0.3032  1.1542
13988TIP3   OH263378   2.700   3.857   2.652  0.8603  0.6294 -0.1576
13988TIP3    H163379   2.723   3.877   2.743 -0.9387 -0.6409  0.6296
13988TIP3    H263380   2.745   3.924   2.601  0.8650  2.1846  1.7671
13989TIP3   OH263381   5.522   6.199  17.203 -0.1549  0.8283  0.2341
13989TIP3    H163382   5.496   6.255  17.275  2.1441  0.4037  1.5040
13989TIP3    H263383   5.589   6.249  17.156 -0.2888  0.3519 -0.4912
13990TIP3   OH263384   3.318   3.148   2.993  0.1707  0.1989 -0.4855
13990TIP3    H163385   3.329   3.116   3.082 -1.9365  0.2749 -0.1401
13990TIP3    H263386   3.307   3.069   2.940 -3.9552  0.0629  0.2109
13991TIP3   OH263387   1.772   6.144   4.140  0.6591  0.0682 -0.3336
13991TIP3    H163388   1.723   6.167   4.061  1.5850 -0.8348 -1.2011
13991TIP3    H263389   1.776   6.049   4.140  1.7368  0.0911  0.1133
13992TIP3   OH263390   6.253   1.710   1.224 -0.2537 -0.1076 -0.2766
13992TIP3    H163391   6.293   1.682   1.306 -0.7174 -0.4539 -0.1641
13992TIP3    H263392   6.216   1.796   1.243 -2.2739 -1.0715  0.5424
13993TIP3   OH263393   3.195   5.789   1.044 -0.0816 -0.8517  0.0107
13993TIP3    H163394   3.229   5.781   0.955 -0.2444  1.9385 -0.4101
13993TIP3    H263395   3.116   5.735   1.045 -0.6786 -0.1029 -1.9038
13994TIP3   OH263396   5.034   6.288   5.785 -0.3290 -0.0929 -0.2560
13994TIP3    H163397   5.061   6.373   5.750  1.8158 -0.5908  0.0626
13994TIP3    H263398   5.100   6.267   5.851 -1.5198 -1.4493  0.5618
13995TIP3   OH263399   5.033   3.317   3.901  0.4625 -0.1822 -0.6916
13995TIP3    H163400   5.076   3.401   3.888  2.4973 -1.3275 -1.8579
13995TIP3    H263401   5.090   3.254   3.858 -1.4225 -2.0788 -0.5776
13996TIP3   OH263402   1.046   1.113   0.712 -0.0815 -0.3598 -0.2542
13996TIP3    H163403   1.017   1.195   0.752 -4.2464 -0.5423 -2.2704
13996TIP3    H263404   1.094   1.140   0.634 -1.1838  0.2452 -0.7553
13997TIP3   OH263405   2.169   1.331  12.000  0.2970 -0.0792  0.4197
13997TIP3    H163406   2.159   1.316  11.906 -1.8329 -0.5331  0.6433
13997TIP3    H263407   2.233   1.401  12.008  1.3852 -0.8203 -1.2990
13998TIP3   OH263408   0.320   3.897   6.098  0.1122 -0.0511 -0.4509
13998TIP3    H163409   0.269   3.845   6.035  0.7394  0.1043 -1.0958
13998TIP3    H263410   0.386   3.836   6.131  0.7643  0.2809 -1.1090
13999TIP3   OH263411   0.126   3.363   6.351 -0.1178  0.0943  0.0076
13999TIP3    H163412   0.052   3.329   6.299  0.5256 -0.4214 -0.5930
13999TIP3    H263413   0.159   3.287   6.398  0.2647  0.2449 -0.0143
14000TIP3   OH263414   2.915   4.311   4.899  0.8516  0.3716  0.1594
14000TIP3    H163415   2.890   4.327   4.990 -1.5836 -0.6742 -0.2388
14000TIP3    H263416   2.955   4.223   4.901  1.1661  0.5156  0.2681
14001TIP3   OH263417   5.203   1.599   3.584 -0.2282 -0.1454  0.1507
14001TIP3    H163418   5.277   1.618   3.527 -2.0045  2.3983 -1.5279
14001TIP3    H263419   5.136   1.562   3.526 -1.8894  2.0180  0.5417
14002TIP3   OH263420   0.284   2.758   4.757 -0.1924 -0.3563  0.0741
14002TIP3    H163421   0.257   2.708   4.679  1.1122 -0.4314 -0.3559
14002TIP3    H263422   0.376   2.776   4.742 -0.3582  1.1735  0.7977
14003TIP3   OH263423   6.258   5.946   2.693  0.1923  0.0869  0.1081
14003TIP3    H163424   6.290   5.879   2.633  1.0804  0.7751 -0.2052
14003TIP3    H263425   6.251   5.900   2.777 -1.4196 -0.9744 -0.5617
14004TIP3   OH263426   5.041   3.805   4.825 -0.3784 -0.0709  0.7779
14004TIP3    H163427   5.137   3.812   4.829 -0.0960 -2.3698 -0.0492
14004TIP3    H263428   5.012   3.814   4.915  0.5865  1.0012  0.9996
14005TIP3   OH263429   4.052   4.298   4.280  0.1029 -0.2319 -0.4206
14005TIP3    H163430   4.093   4.248   4.209 -0.6151 -1.0089 -0.3064
14005TIP3    H263431   4.007   4.370   4.236 -0.1211 -0.5614 -0.7326
14006TIP3   OH263432   0.036   1.226  13.776  0.2508  0.5812 -0.2014
14006TIP3    H163433   0.131   1.213  13.766 -0.2143 -2.6709 -1.7201
14006TIP3    H263434   0.025   1.249  13.868  2.4976  1.0694  0.0091
14007TIP3   OH263435   1.738   2.672  11.202  0.1811  0.4021  0.7704
14007TIP3    H163436   1.644   2.685  11.189  0.6868  2.4075 -1.5248
14007TIP3    H263437   1.760   2.725  11.278 -0.0686  2.6020 -0.6199
14008TIP3   OH263438   6.497   0.466   3.521 -0.2123  0.2411 -0.2467
14008TIP3    H163439   6.441   0.485   3.446  0.2800  0.1340 -0.6387
14008TIP3    H263440   6.543   0.386   3.497  1.9709  1.6467 -0.9612
14009TIP3   OH263441   4.500   5.313  11.179 -0.0840  0.4028 -0.4897
14009TIP3    H163442   4.458   5.244  11.127  1.9999 -1.2975 -0.0714
14009TIP3    H263443   4.586   5.324  11.138 -0.7592  3.7352 -1.3139
14010TIP3   OH263444   6.611   3.118   6.603 -0.1909 -0.2867  0.0734
14010TIP3    H163445   6.552   3.134   6.677 -0.2166 -1.3435  0.2874
14010TIP3    H263446   6.695   3.155   6.631  0.2806 -2.2087  1.3762
14011TIP3   OH263447   0.356   3.799   1.934 -0.0873  0.1270  0.1465
14011TIP3    H163448   0.437   3.849   1.931 -0.6526  1.1479  1.3374
14011TIP3    H263449   0.317   3.812   1.848  1.1761 -0.7179 -0.5967
14012TIP3   OH263450   0.183   5.431  15.385 -0.4096 -0.1892  0.1977
14012TIP3    H163451   0.193   5.359  15.322  0.9554 -0.3740  0.6026
14012TIP3    H263452   0.197   5.391  15.470 -1.1615  0.2788  0.5526
14013TIP3   OH263453   3.029   2.665   1.552  0.3558  0.4283 -0.3603
14013TIP3    H163454   2.942   2.642   1.522  0.2673  0.8791 -0.4493
14013TIP3    H263455   3.088   2.632   1.484  0.0437  3.3867 -2.2367
14014TIP3   OH263456   4.591   0.749  15.416 -0.4545 -0.4002  0.4078
14014TIP3    H163457   4.651   0.767  15.344  0.1238 -1.3449  0.6323
14014TIP3    H263458   4.569   0.835  15.452 -0.7735  0.0865 -0.8951
14015TIP3   OH263459   4.740   0.703  14.535 -0.0222  0.0725  0.2076
14015TIP3    H163460   4.727   0.780  14.479 -1.5347  0.1158  0.5739
14015TIP3    H263461   4.826   0.717  14.574 -0.2464  1.5818  0.2407
14016TIP3   OH263462   1.628   3.125   1.050  0.2634 -0.3713  0.1030
14016TIP3    H163463   1.611   3.205   1.001  0.8902  0.7523  1.6252
14016TIP3    H263464   1.723   3.120   1.056  0.2754 -1.8269 -0.8571
14017TIP3   OH263465   2.218   3.911  12.533 -0.5066  0.4109 -0.2977
14017TIP3    H163466   2.265   3.954  12.604 -0.2084  0.1179 -0.3178
14017TIP3    H263467   2.128   3.945  12.540 -0.8037 -0.5882  1.0076
14018TIP3   OH263468   1.192   5.878  12.886  0.1975  0.3623 -0.0186
14018TIP3    H163469   1.208   5.793  12.926 -0.0224  0.8668  1.1856
14018TIP3    H263470   1.253   5.937  12.930  2.0044  0.4622 -2.4014
14019TIP3   OH263471   2.849   4.303   4.634 -0.2179 -0.6187 -0.0623
14019TIP3    H163472   2.855   4.213   4.601 -2.0306 -1.6698  2.1910
14019TIP3    H263473   2.863   4.295   4.728  2.9417  1.9809 -0.1508
14020TIP3   OH263474   3.733   1.763  16.141  0.0453 -0.5562 -0.6949
14020TIP3    H163475   3.700   1.701  16.206 -0.9482 -0.1888 -0.8349
14020TIP3    H263476   3.786   1.825  16.192 -1.2822  0.1291 -0.0974
14021TIP3   OH263477   4.369   4.432  16.999  0.2904  0.2118  0.5844
14021TIP3    H163478   4.322   4.358  17.038 -0.1566 -0.8521 -1.7854
14021TIP3    H263479   4.300   4.488  16.964  0.6836  0.1934 -0.2495
14022TIP3   OH263480   0.239   1.418   1.418 -0.2175  0.0260  0.6344
14022TIP3    H163481   0.271   1.491   1.471  1.6557 -0.7745  0.6858
14022TIP3    H263482   0.144   1.426   1.421 -0.1457  0.8864  2.8939
14023TIP3   OH263483   0.745   5.242   5.900 -0.0004  0.5500 -0.5310
14023TIP3    H163484   0.670   5.247   5.959  0.2966  2.5188 -0.2549
14023TIP3    H263485   0.812   5.297   5.942  0.5714  1.1713 -2.1968
14024TIP3   OH263486   1.020   0.378  12.552 -0.1562 -0.1716 -0.4596
14024TIP3    H163487   1.105   0.422  12.548 -0.4373  0.5891  1.0489
14024TIP3    H263488   1.006   0.343  12.464  0.4186  2.1533 -1.5436
14025TIP3   OH263489   0.761   5.332  15.829  0.1937 -0.4565  0.1237
14025TIP3    H163490   0.770   5.392  15.756  1.0652 -0.8326 -0.0813
14025TIP3    H263491   0.797   5.249  15.797  0.9576 -0.5131  1.1124
14026TIP3   OH263492   0.414   6.592  11.489 -0.6507  0.1355  0.0711
14026TIP3    H163493   0.347   6.559  11.550 -2.0037 -1.8214 -2.2853
14026TIP3    H263494   0.386   6.681  11.468 -0.5106  0.6139  1.7438
14027TIP3   OH263495   3.632   5.876   3.383  0.0421 -0.4147  0.9732
14027TIP3    H163496   3.613   5.867   3.477  1.4863  0.8462  1.4322
14027TIP3    H263497   3.689   5.801   3.363 -0.3574 -0.7473  1.0640
14028TIP3   OH263498   1.538   0.834   0.857 -0.1596 -0.3053 -0.2691
14028TIP3    H163499   1.550   0.888   0.779  0.6018 -0.0158  0.0416
14028TIP3    H263500   1.461   0.872   0.900  0.6920  0.8975  0.2373
14029TIP3   OH263501   5.657   2.595   0.612 -0.0539  0.0510  0.4114
14029TIP3    H163502   5.563   2.604   0.594 -0.1968  0.8782  1.4418
14029TIP3    H263503   5.695   2.568   0.529 -1.1880 -0.1434 -0.0633
14030TIP3   OH263504   2.228   1.489   2.583 -0.3630  0.2028 -1.0079
14030TIP3    H163505   2.286   1.566   2.584  1.8652 -1.3908  0.0212
14030TIP3    H263506   2.283   1.418   2.551 -1.7417 -1.4178  0.0803
14031TIP3   OH263507   5.561   1.253  14.663 -0.2394 -0.6106 -0.2111
14031TIP3    H163508   5.471   1.223  14.673 -1.3468  2.3673 -0.3841
14031TIP3    H263509   5.602   1.234  14.748 -1.4161 -0.8136  0.3289
14032TIP3   OH263510   5.495   5.386   0.132 -0.0954 -0.3198 -0.1282
14032TIP3    H163511   5.440   5.406   0.056 -0.9521 -2.9944 -0.3445
14032TIP3    H263512   5.552   5.462   0.142 -1.9391  1.3723 -1.6285
14033TIP3   OH263513   0.990   2.749  16.352  0.0592 -0.8893 -0.3122
14033TIP3    H163514   0.939   2.802  16.291 -1.6488 -1.6835  0.3630
14033TIP3    H263515   1.013   2.670  16.302  0.0353 -0.8279 -0.4211
14034TIP3   OH263516   3.953   2.672  15.072  0.1943  0.1938 -0.2729
14034TIP3    H163517   4.001   2.634  15.146  0.7693 -1.4675 -1.4490
14034TIP3    H263518   3.868   2.695  15.109  0.8371  0.4107  1.1514
14035TIP3   OH263519   0.189   5.698  17.207  0.3618  0.0660  0.5776
14035TIP3    H163520   0.168   5.787  17.179  1.0191  0.2084  0.5249
14035TIP3    H263521   0.114   5.646  17.179 -0.3958  0.7298  1.3080
14036TIP3   OH263522   5.157   0.176  11.319 -0.2555  0.3999 -0.0523
14036TIP3    H163523   5.180   0.094  11.275  0.7237  0.6522 -0.0198
14036TIP3    H263524   5.186   0.245  11.260  0.3569  0.7347  0.6276
14037TIP3   OH263525   4.213   2.213  12.519 -0.1157  0.2623  0.4701
14037TIP3    H163526   4.199   2.144  12.454 -0.9203 -1.1351  2.0191
14037TIP3    H263527   4.301   2.195  12.553 -1.0288 -1.3010  2.2155
14038TIP3   OH263528   5.345   3.292   0.555 -0.2138  0.2337  0.2009
14038TIP3    H163529   5.260   3.303   0.512  0.2261  2.0178 -0.2861
14038TIP3    H263530   5.372   3.203   0.531 -1.8696 -0.3242  0.2787
14039TIP3   OH263531   6.592   3.956   2.543 -0.7131 -0.1185  0.3144
14039TIP3    H163532   6.624   3.997   2.462 -0.2608 -1.0317  0.0164
14039TIP3    H263533   6.668   3.908   2.576 -1.6261 -1.9580 -0.1567
14040TIP3   OH263534   2.917   4.494   2.876 -0.0869 -0.0198 -0.1473
14040TIP3    H163535   2.961   4.576   2.853  0.7257 -0.5341 -0.4990
14040TIP3    H263536   2.884   4.508   2.964  1.3710  0.1797  0.4013
14041TIP3   OH263537   3.165   0.229   4.379 -0.3743 -0.0037  0.6083
14041TIP3    H163538   3.071   0.242   4.389 -0.5717 -0.8668 -0.0019
14041TIP3    H263539   3.185   0.154   4.436  0.0109  0.3875  0.9964
14042TIP3   OH263540   4.869   2.729  13.919  0.6501  0.0292  1.0630
14042TIP3    H163541   4.852   2.761  13.830 -3.1503 -1.4312  1.0461
14042TIP3    H263542   4.874   2.808  13.972  1.3707  0.8810 -0.2169
14043TIP3   OH263543   1.778   4.790   0.721 -0.3744  0.4457  0.3846
14043TIP3    H163544   1.862   4.784   0.675 -0.4347 -0.3613  0.3652
14043TIP3    H263545   1.777   4.878   0.757 -0.1844  0.9932 -0.8948
14044TIP3   OH263546   2.161   1.954   4.087  0.5447  0.4404 -0.4743
14044TIP3    H163547   2.074   1.994   4.079 -0.0057 -0.8295 -1.2606
14044TIP3    H263548   2.203   2.001   4.158 -0.0976  2.3232 -1.2769
14045TIP3   OH263549   1.677   4.152   2.726 -0.2312 -0.3306 -0.4230
14045TIP3    H163550   1.723   4.236   2.729 -1.8689  0.5952  0.2659
14045TIP3    H263551   1.620   4.153   2.802  1.2789 -3.0763  0.9054
14046TIP3   OH263552   4.554   0.284  16.314 -0.5061 -0.1932 -0.4432
14046TIP3    H163553   4.538   0.214  16.378  1.0019  0.2085  0.4392
14046TIP3    H263554   4.624   0.250  16.259 -1.0050 -0.0730 -1.1562
14047TIP3   OH263555   6.137   4.432   4.374 -0.2269 -1.0243 -0.3805
14047TIP3    H163556   6.056   4.424   4.425  0.3513  1.2579  1.0466
14047TIP3    H263557   6.106   4.448   4.284 -1.3635 -1.0368 -0.0150
14048TIP3   OH263558   1.913   3.476  13.886  0.0109  0.5281 -0.3906
14048TIP3    H163559   1.879   3.472  13.976  3.5792  2.0662  1.2127
14048TIP3    H263560   1.868   3.551  13.847 -1.4227 -0.0209  0.1404
14049TIP3   OH263561   1.864   2.534   3.667 -0.3171  0.5280  0.2389
14049TIP3    H163562   1.946   2.584   3.663 -0.8171  1.3267 -0.2916
14049TIP3    H263563   1.796   2.596   3.640 -0.6669 -1.1431 -3.3312
14050TIP3   OH263564   3.139   3.589   2.136  0.2312  0.0871  0.1381
14050TIP3    H163565   3.069   3.551   2.082 -0.1840 -0.9995  1.3978
14050TIP3    H263566   3.212   3.528   2.126  0.4808  0.4026  0.0368
14051TIP3   OH263567   5.780   1.616   1.677 -0.4534 -0.0907 -0.0925
14051TIP3    H163568   5.814   1.664   1.602 -0.0623 -0.5994 -0.2496
14051TIP3    H263569   5.755   1.683   1.740 -2.1066  0.4165 -1.2189
14052TIP3   OH263570   0.960   2.274   5.804  0.0546  0.1434 -0.1912
14052TIP3    H163571   1.014   2.195   5.803 -0.9289 -0.5660 -0.0511
14052TIP3    H263572   1.003   2.333   5.743  0.5537 -0.6968 -0.6816
14053TIP3   OH263573   3.007   4.759  16.721 -0.5117  0.1674 -0.3083
14053TIP3    H163574   3.010   4.773  16.816 -1.8059  0.0141 -0.2247
14053TIP3    H263575   3.039   4.841  16.684  0.8010 -0.0734  0.2627
14054TIP3   OH263576   5.098   6.699  16.101 -0.1892  0.3686 -0.2932
14054TIP3    H163577   5.048   6.716  16.021  0.1200  0.2155 -0.5187
14054TIP3    H263578   5.031   6.682  16.168 -0.4878  1.5100 -0.2796
14055TIP3   OH263579   5.929   5.270   4.707 -0.1137 -0.1304  0.1190
14055TIP3    H163580   5.967   5.196   4.754 -0.6456  0.4804  1.5556
14055TIP3    H263581   5.979   5.275   4.626  2.3929  0.1864  1.6029
14056TIP3   OH263582   5.593   0.020  12.163 -0.6432  0.4981 -0.4890
14056TIP3    H163583   5.638   0.092  12.118 -1.9558  2.5380  1.2918
14056TIP3    H263584   5.519  -0.001  12.106 -1.2890  1.8480 -0.1788
14057TIP3   OH263585   4.148   2.510   3.508  0.0096  0.1770 -0.1215
14057TIP3    H163586   4.100   2.433   3.538  0.5446 -0.2239 -0.3042
14057TIP3    H263587   4.211   2.528   3.578  2.1309 -1.5118 -1.5044
14058TIP3   OH263588   4.363   1.231  17.099  0.0773  0.4300  0.0793
14058TIP3    H163589   4.335   1.279  17.177  0.1055  0.2285  0.2145
14058TIP3    H263590   4.399   1.298  17.041  0.2999  0.5448  0.3482
14059TIP3   OH263591   0.748   6.400   4.744  0.1653 -0.5213 -0.8390
14059TIP3    H163592   0.823   6.340   4.743  0.3029 -0.4022  0.4443
14059TIP3    H263593   0.681   6.356   4.692  0.1023 -2.0234  0.4325
14060TIP3   OH263594   0.620   5.800  15.300  0.4152  0.4536  0.0512
14060TIP3    H163595   0.593   5.708  15.296  0.5378  0.4347 -2.5762
14060TIP3    H263596   0.544   5.846  15.336  0.1652 -0.6134  0.9266
14061TIP3   OH263597   3.774   2.649  11.920 -0.4173  0.1983 -0.2213
14061TIP3    H163598   3.722   2.708  11.975 -2.0152 -1.7499  0.4867
14061TIP3    H263599   3.846   2.621  11.976  0.4489  1.5357 -0.6161
14062TIP3   OH263600   3.313   6.513   2.059  0.2950  0.2390 -0.2459
14062TIP3    H163601   3.376   6.462   2.111  0.7963  1.1242  0.0494
14062TIP3    H263602   3.228   6.472   2.076  0.7050 -0.5619 -0.1167
14063TIP3   OH263603   4.359   5.529   0.786 -0.6982  0.0376  0.3553
14063TIP3    H163604   4.381   5.457   0.846 -1.5433 -1.5800 -1.1638
14063TIP3    H263605   4.404   5.605   0.822  0.2645 -1.2466  2.0318
14064TIP3   OH263606   4.208   4.877   4.319  0.1097 -0.1544  0.2556
14064TIP3    H163607   4.276   4.838   4.374 -1.3996 -1.7877  1.0674
14064TIP3    H263608   4.165   4.802   4.277 -2.4075  0.6148  1.2559
14065TIP3   OH263609   3.731   2.660   5.093  0.7759 -0.1850 -0.3544
14065TIP3    H163610   3.653   2.714   5.096  1.4351  0.7575  0.0225
14065TIP3    H263611   3.732   2.613   5.176 -0.0655 -1.1828 -0.8892
14066TIP3   OH263612   5.153   3.129   6.737 -0.0682 -0.0068 -0.5119
14066TIP3    H163613   5.112   3.054   6.695 -1.8759  1.7336 -2.0955
14066TIP3    H263614   5.091   3.156   6.804 -0.3452  1.0881 -1.1661
14067TIP3   OH263615   5.965   1.839   0.586 -0.1099  0.7792 -0.1641
14067TIP3    H163616   5.949   1.855   0.493 -2.3261 -1.9185 -0.3634
14067TIP3    H263617   5.915   1.908   0.631 -1.4981  0.3499 -0.9897
14068TIP3   OH263618   6.373   2.875   0.318  0.2818 -0.3175 -0.1728
14068TIP3    H163619   6.336   2.899   0.403  2.8494  1.2546  0.6032
14068TIP3    H263620   6.359   2.952   0.264  1.6787  0.0058 -0.0959
14069TIP3   OH263621   4.168   5.497   3.735 -0.1981 -0.1696  0.5931
14069TIP3    H163622   4.172   5.591   3.718  0.9151 -0.2452  0.4056
14069TIP3    H263623   4.176   5.489   3.830  0.7819 -0.1302  0.5147
14070TIP3   OH263624   0.811   6.557   4.503 -0.6185  0.5842  0.5142
14070TIP3    H163625   0.885   6.584   4.557  0.1939  0.8163 -0.6616
14070TIP3    H263626   0.777   6.479   4.545  1.7586 -0.8950 -0.1428
14071TIP3   OH263627   4.517   4.901  13.948 -0.4112  0.1917  0.5168
14071TIP3    H163628   4.596   4.909  13.896 -0.3618 -0.3592  0.4955
14071TIP3    H263629   4.520   4.812  13.983 -1.7700 -0.4025 -0.7338
14072TIP3   OH263630   2.867   2.956  15.996  0.1111  0.0685  0.0574
14072TIP3    H163631   2.850   2.991  15.909 -0.2416  0.5233  0.3011
14072TIP3    H263632   2.926   3.020  16.037  0.1263 -0.0436  0.2132
14073TIP3   OH263633   0.967   4.690  16.426  0.1399  0.1574  0.0863
14073TIP3    H163634   0.914   4.765  16.455 -1.4575 -0.6301 -0.6550
14073TIP3    H263635   0.989   4.644  16.507  1.4225  1.5736  0.5817
14074TIP3   OH263636   3.191   5.273   4.184  0.2066 -0.0706  0.3828
14074TIP3    H163637   3.122   5.257   4.248 -0.9565  0.3908 -0.7119
14074TIP3    H263638   3.150   5.328   4.118  0.8313 -1.8632 -1.6378
14075TIP3   OH263639   3.788   4.285  10.724 -0.4946 -0.1141  0.0504
14075TIP3    H163640   3.774   4.370  10.682 -0.0710  0.0235  0.1755
14075TIP3    H263641   3.883   4.280  10.735 -0.5662 -0.3458  0.5721
14076TIP3   OH263642   4.752   3.149  11.921 -0.3731 -0.7904  0.2469
14076TIP3    H163643   4.711   3.114  11.842  0.0192 -0.2867 -0.1901
14076TIP3    H263644   4.696   3.119  11.992 -1.2392 -0.5104 -0.2977
14077TIP3   OH263645   2.428   2.258  14.485 -0.1888  0.1596 -0.3196
14077TIP3    H163646   2.357   2.293  14.432 -0.0877  0.0616 -0.5204
14077TIP3    H263647   2.434   2.317  14.560  0.2154  0.7710 -0.8317
14078TIP3   OH263648   2.828   2.955  10.262 -0.1178  0.3380  0.2714
14078TIP3    H163649   2.798   2.870  10.294 -1.0952  0.1324 -1.0900
14078TIP3    H263650   2.777   3.019  10.312 -0.5089  0.0681  0.2234
14079TIP3   OH263651   4.511   6.502  13.623  0.5728  0.1531  0.2298
14079TIP3    H163652   4.499   6.592  13.653 -1.6419 -0.4300  1.3026
14079TIP3    H263653   4.451   6.451  13.676  0.3199 -1.6942 -1.7134
14080TIP3   OH263654   1.253   5.026  15.949  0.1042 -0.3636  0.2125
14080TIP3    H163655   1.181   5.001  15.892  0.2406 -2.2465  0.8126
14080TIP3    H263656   1.322   4.963  15.930  1.7545  1.5705 -0.5720
14081TIP3   OH263657   4.716   5.151  14.792  0.2258  0.0628 -0.3456
14081TIP3    H163658   4.651   5.080  14.793  2.9311 -2.6314 -1.6583
14081TIP3    H263659   4.789   5.117  14.844  0.5114  3.2469  1.6120
14082TIP3   OH263660   4.140   5.535  13.408  0.0169 -0.1572  0.1459
14082TIP3    H163661   4.080   5.562  13.477 -0.9439 -0.3582 -0.5975
14082TIP3    H263662   4.215   5.499  13.455 -0.7773 -0.6299  1.0880
14083TIP3   OH263663   4.013   1.217  13.936  0.2716 -0.0162  0.0604
14083TIP3    H163664   3.934   1.194  13.887  0.5218 -1.0501  0.1204
14083TIP3    H263665   3.990   1.202  14.028  1.2691 -2.7944 -0.0543
14084TIP3   OH263666   2.476   6.565  14.157 -0.2170 -0.3962  0.3818
14084TIP3    H163667   2.435   6.487  14.196 -0.2193 -0.4530  0.2702
14084TIP3    H263668   2.520   6.608  14.229  0.0924 -0.6998  0.3764
14085TIP3   OH263669   1.934   6.105   4.746 -0.7722  0.0860 -0.3255
14085TIP3    H163670   1.957   6.022   4.703 -1.8994 -0.3846 -0.0609
14085TIP3    H263671   1.965   6.173   4.685 -2.0274 -0.5608 -1.7617
14086TIP3   OH263672   1.232   6.736  11.904 -0.2885 -0.1060  0.2459
14086TIP3    H163673   1.217   6.687  11.985  1.2702 -2.9078 -1.0109
14086TIP3    H263674   1.172   6.697  11.841 -1.2529  1.8227 -0.1027
14087TIP3   OH263675   3.324   2.785  15.237  0.4055  0.1874 -0.0363
14087TIP3    H163676   3.379   2.863  15.250 -0.7755  1.0052  0.1490
14087TIP3    H263677   3.264   2.785  15.311 -1.2129  0.4889 -1.2873
14088TIP3   OH263678   5.242   2.507   5.017  0.9909  0.2988  0.9171
14088TIP3    H163679   5.241   2.587   5.071  0.7181  0.8199  0.1496
14088TIP3    H263680   5.172   2.453   5.055  0.7453  0.6929  1.0451
14089TIP3   OH263681   5.440   1.311   4.929  0.4878 -0.4626  0.3026
14089TIP3    H163682   5.384   1.386   4.908  1.7444 -0.0341 -1.8440
14089TIP3    H263683   5.458   1.319   5.023  0.3643  1.7567  0.1741
14090TIP3   OH263684   3.629   2.240  15.049  0.1471  0.1623 -0.2710
14090TIP3    H163685   3.570   2.275  15.116 -1.4341 -0.1253 -1.4558
14090TIP3    H263686   3.640   2.313  14.987 -3.4154 -1.2258 -2.9206
14091TIP3   OH263687   2.729   6.175   5.778 -0.2490  0.0398 -0.1935
14091TIP3    H163688   2.727   6.079   5.788 -1.8631 -0.2992 -2.7954
14091TIP3    H263689   2.664   6.207   5.840  0.6980 -0.4642  1.0986
14092TIP3   OH263690   1.972   6.729  11.606  0.3547  0.0346 -0.1971
14092TIP3    H163691   2.012   6.647  11.578 -2.2302 -2.0461  1.7707
14092TIP3    H263692   1.929   6.763  11.528  0.3926 -1.1383 -0.7474
14093TIP3   OH263693   1.186   6.211   1.803 -0.4238  0.7104 -0.5188
14093TIP3    H163694   1.167   6.292   1.756  0.2932  0.4665 -1.2502
14093TIP3    H263695   1.281   6.210   1.811 -0.2709 -0.9047 -2.0767
14094TIP3   OH263696   3.583   2.137  16.530 -1.1559  0.2411 -0.4134
14094TIP3    H163697   3.591   2.218  16.480  1.0291  1.5706  1.8866
14094TIP3    H263698   3.493   2.137  16.563 -0.5921  3.0085  1.4404
14095TIP3   OH263699   6.532   3.838   0.201 -0.4544 -0.2377  0.5283
14095TIP3    H163700   6.625   3.849   0.221 -0.0520  1.6829 -2.0046
14095TIP3    H263701   6.525   3.854   0.107 -3.3141 -0.7317  0.5689
14096TIP3   OH263702   3.977   1.532   2.338  0.2378 -0.2858  0.1671
14096TIP3    H163703   3.965   1.441   2.308 -0.7148 -0.4206  0.9033
14096TIP3    H263704   4.004   1.524   2.429 -0.0640  0.1686  0.3022
14097TIP3   OH263705   2.875   2.473   4.761  0.1934 -0.0440  0.5198
14097TIP3    H163706   2.827   2.487   4.680 -1.6245 -1.6332  1.2109
14097TIP3    H263707   2.860   2.380   4.781  2.5561 -0.2923  1.4825
14098TIP3   OH263708   5.802   6.208   1.655  0.7388 -0.3893  0.4194
14098TIP3    H163709   5.876   6.246   1.702  1.2954 -2.1669  1.0536
14098TIP3    H263710   5.841   6.142   1.598 -0.3454 -1.5063  0.9225
14099TIP3   OH263711   6.101   0.616  13.754  0.0030 -0.1617  0.3072
14099TIP3    H163712   6.136   0.569  13.830  2.7219  1.5632  0.2790
14099TIP3    H263713   6.170   0.678  13.732 -0.8218 -0.3666 -3.4044
14100TIP3   OH263714   3.005   2.126  11.073 -0.6818 -0.1679 -0.2037
14100TIP3    H163715   3.049   2.110  10.990 -0.6873  0.1755 -0.2734
14100TIP3    H263716   2.958   2.208  11.060 -0.7160 -0.1321  0.1266
14101TIP3   OH263717   0.560   2.845  16.914 -0.2533 -0.6608 -0.2963
14101TIP3    H163718   0.611   2.846  16.833  0.1274 -0.7821 -0.0614
14101TIP3    H263719   0.528   2.935  16.923  0.9560 -0.2585  0.1967
14102TIP3   OH263720   5.925   1.509   4.950  0.6408  0.3178  0.6554
14102TIP3    H163721   5.981   1.438   4.983  0.1812 -0.1758  0.3795
14102TIP3    H263722   5.943   1.512   4.856  0.4363  0.3673  0.6182
14103TIP3   OH263723   6.064   2.392   4.729 -0.3874 -0.0060  0.3560
14103TIP3    H163724   6.011   2.333   4.675 -0.2403  0.4219 -0.2636
14103TIP3    H263725   6.148   2.347   4.737 -0.2011  0.2264 -0.3060
14104TIP3   OH263726   0.371   6.687   1.718 -0.0975  0.3149  0.1404
14104TIP3    H163727   0.422   6.695   1.799  0.3893 -0.8620 -0.0229
14104TIP3    H263728   0.429   6.722   1.650 -0.7288  1.8420  0.3515
14105TIP3   OH263729   3.052   1.187   0.408 -0.3666 -0.3900 -0.0826
14105TIP3    H163730   2.971   1.218   0.366  0.5273 -0.1166 -1.6923
14105TIP3    H263731   3.069   1.251   0.477 -1.6875 -0.6492  0.5294
14106TIP3   OH263732   4.693   3.164   0.818  0.3566  0.2446  0.8540
14106TIP3    H163733   4.704   3.207   0.733  3.8419 -2.4567 -0.2767
14106TIP3    H263734   4.754   3.209   0.876 -0.2043  0.4714  1.2788
14107TIP3   OH263735   2.324   0.447   5.321 -0.3090  0.0094  0.3195
14107TIP3    H163736   2.363   0.426   5.236 -2.1897  1.6023 -1.0322
14107TIP3    H263737   2.316   0.362   5.365 -0.3057 -1.0330 -1.5748
14108TIP3   OH263738   2.117   5.034   5.418  0.5676 -0.3673  0.8429
14108TIP3    H163739   2.120   4.944   5.387 -1.4256 -0.2886  0.3130
14108TIP3    H263740   2.125   5.087   5.339 -3.2757 -0.1713  0.3728
14109TIP3   OH263741   3.418   5.500  12.941  0.8004  0.0349 -0.5575
14109TIP3    H163742   3.392   5.449  12.864  0.0971  0.8293 -0.8610
14109TIP3    H263743   3.417   5.437  13.013  0.0677 -0.4137 -0.9451
14110TIP3   OH263744   3.622   5.466  13.323  0.2394 -0.4200 -0.6474
14110TIP3    H163745   3.672   5.385  13.320  1.3392  0.1363  1.2232
14110TIP3    H263746   3.620   5.490  13.416 -0.9884  1.1299 -1.0304
14111TIP3   OH263747   4.682   4.278  15.383  0.0016  0.3911 -0.4474
14111TIP3    H163748   4.610   4.257  15.323 -0.1862 -0.2559 -0.0080
14111TIP3    H263749   4.713   4.193  15.414  1.1176  0.6579 -0.8080
14112TIP3   OH263750   5.047   6.237   3.148  0.1835  0.3427 -0.1984
14112TIP3    H163751   4.992   6.308   3.182  0.7413  1.0773 -0.7747
14112TIP3    H263752   5.062   6.261   3.056  0.3856 -0.5291 -0.3991
14113TIP3   OH263753   1.643   0.579   1.796 -0.1580  0.0471 -0.2807
14113TIP3    H163754   1.688   0.583   1.880  0.8807 -0.1069 -0.8121
14113TIP3    H263755   1.710   0.601   1.732 -1.1151  0.8917 -1.0178
14114TIP3   OH263756   0.550   2.721  15.842 -0.2128 -0.1044  0.0949
14114TIP3    H163757   0.615   2.653  15.823 -0.3928 -0.1725 -0.2942
14114TIP3    H263758   0.602   2.801  15.852  0.1090 -0.4711  1.6249
14115TIP3   OH263759   2.174   0.367   4.046 -0.8109  0.1639 -0.0332
14115TIP3    H163760   2.183   0.426   4.120 -0.7124 -0.9972  0.9220
14115TIP3    H263761   2.103   0.404   3.993 -0.5904  1.2376  0.4001
14116TIP3   OH263762   3.322   2.466   2.129  0.0549 -0.0818  0.2952
14116TIP3    H163763   3.379   2.444   2.055 -0.6345  1.1250 -0.6356
14116TIP3    H263764   3.351   2.408   2.199  1.5799 -0.3808 -0.5290
14117TIP3   OH263765   0.407   6.669   3.678  0.4972 -0.2910  0.1310
14117TIP3    H163766   0.469   6.694   3.609 -0.8825  1.2014 -0.6335
14117TIP3    H263767   0.391   6.750   3.727 -0.7416 -0.6568  0.3701
14118TIP3   OH263768   2.612   1.242   0.129  0.2241  0.3046 -0.0132
14118TIP3    H163769   2.558   1.317   0.102 -0.2577 -0.1678 -0.3982
14118TIP3    H263770   2.606   1.181   0.055 -0.3584 -0.6242  0.7686
14119TIP3   OH263771   5.148   5.621   0.447  0.5113 -0.5030  0.2241
14119TIP3    H163772   5.139   5.541   0.500 -1.6833 -1.7349 -1.7832
14119TIP3    H263773   5.136   5.591   0.357 -1.2509  2.1823 -0.5639
14120TIP3   OH263774   3.036   3.955  12.718  0.1113  0.2081 -0.2167
14120TIP3    H163775   3.039   3.864  12.689  2.9335  0.4332 -0.9751
14120TIP3    H263776   3.127   3.985  12.709 -0.3495  2.5219  1.9008
14121TIP3   OH263777   2.907   2.313  12.696  0.2264  0.2958 -0.0404
14121TIP3    H163778   2.885   2.278  12.610 -0.1850 -0.0733  0.2115
14121TIP3    H263779   2.995   2.279  12.714  0.1009 -0.0517 -0.0877
14122TIP3   OH263780   3.231   5.408  10.932 -0.4070  0.3679  0.2011
14122TIP3    H163781   3.260   5.454  11.011 -1.3189  0.7168  0.3451
14122TIP3    H263782   3.306   5.412  10.873 -0.2078  1.3765  0.5074
14123TIP3   OH263783   0.427   0.505   2.332  0.3190  0.3233  0.2796
14123TIP3    H163784   0.371   0.453   2.275 -1.9538  3.0877 -0.2061
14123TIP3    H263785   0.508   0.517   2.282 -1.1215  1.5852 -1.8653
14124TIP3   OH263786   5.406   5.444  12.499 -0.8842  0.2248 -0.2341
14124TIP3    H163787   5.415   5.430  12.404 -3.1817  2.1606 -0.8278
14124TIP3    H263788   5.487   5.488  12.524 -0.7176  0.7261 -1.5471
14125TIP3   OH263789   4.837   2.478   3.163 -0.6323  0.0215 -0.0148
14125TIP3    H163790   4.879   2.564   3.167 -0.9467  0.1888 -0.2610
14125TIP3    H263791   4.901   2.418   3.202 -0.8983  0.5448  1.2558
14126TIP3   OH263792   1.411   6.442   4.665 -0.1353 -0.2665 -0.2609
14126TIP3    H163793   1.487   6.387   4.683  0.6695  0.3574 -1.6299
14126TIP3    H263794   1.428   6.524   4.712  1.5404  1.0182 -2.8509
14127TIP3   OH263795   4.945   0.079  14.305 -0.2183 -0.3582 -0.3726
14127TIP3    H163796   4.949   0.070  14.400 -1.3672 -4.0740 -0.5255
14127TIP3    H263797   5.029   0.119  14.282  0.2761  0.2593  2.1493
14128TIP3   OH263798   1.361   0.122  11.016 -0.0428  0.6344 -0.2326
14128TIP3    H163799   1.292   0.090  10.958 -0.8724  0.7783  0.6485
14128TIP3    H263800   1.419   0.172  10.959 -0.8665  0.8098 -0.9323
14129TIP3   OH263801   4.314   1.023   0.999 -0.1880  0.3284  0.1279
14129TIP3    H163802   4.354   0.937   0.999 -0.0726  0.3539  1.5887
14129TIP3    H263803   4.229   1.010   1.042 -0.3421  0.8619 -0.0084
14130TIP3   OH263804   3.356   5.096  14.051  0.1294  0.2060  0.1443
14130TIP3    H163805   3.427   5.141  14.006  0.1178 -0.6034 -0.7155
14130TIP3    H263806   3.370   5.003  14.031  0.4798 -0.2764  2.3175
14131TIP3   OH263807   4.839   0.236  15.321 -0.3364  0.2206  0.2171
14131TIP3    H163808   4.924   0.206  15.352 -0.8094 -0.6863  0.6865
14131TIP3    H263809   4.828   0.192  15.237  0.5181  1.9170 -0.8425
14132TIP3   OH263810   1.656   4.069  12.417 -0.1247 -0.1716  0.1555
14132TIP3    H163811   1.650   4.020  12.335  0.5097 -0.2522  0.1531
14132TIP3    H263812   1.708   4.146  12.395  1.3923 -0.9648  0.8256
14133TIP3   OH263813   2.991   6.066   2.913 -0.3372 -0.4857 -0.5242
14133TIP3    H163814   3.043   6.059   2.993  0.5046 -0.0674 -1.0207
14133TIP3    H263815   2.907   6.102   2.942 -0.2834 -0.9625  0.2582
14134TIP3   OH263816   2.892   1.967  13.375 -0.1640 -0.1779  0.1218
14134TIP3    H163817   2.892   1.894  13.437  1.2024 -0.7798 -0.5587
14134TIP3    H263818   2.981   2.003  13.379 -0.9324  1.8004  0.8157
14135TIP3   OH263819   1.819   1.766   5.032  0.8339 -0.1401  0.2546
14135TIP3    H163820   1.813   1.671   5.022  1.6910 -0.1557 -0.3037
14135TIP3    H263821   1.833   1.780   5.125  0.1377 -0.5241  0.4210
14136TIP3   OH263822   3.900   4.450  12.614 -0.1128 -0.1533  0.3742
14136TIP3    H163823   3.915   4.447  12.519 -1.7463 -0.3415  0.1032
14136TIP3    H263824   3.845   4.374  12.632  1.5874 -1.1412  1.7817
14137TIP3   OH263825   0.402   2.491  12.642 -0.5997  0.1241  0.3888
14137TIP3    H163826   0.405   2.541  12.561  0.1904  0.1308  0.4176
14137TIP3    H263827   0.403   2.557  12.711  1.1163  0.0778  0.4417
14138TIP3   OH263828   1.683   3.173  16.276  0.9088 -0.7143 -0.3102
14138TIP3    H163829   1.764   3.126  16.295 -0.7157 -3.1517  1.0582
14138TIP3    H263830   1.668   3.227  16.354  0.1914 -1.8489  0.3558
14139TIP3   OH263831   1.079   1.991   5.326 -0.0244  0.1549 -0.4580
14139TIP3    H163832   1.170   2.007   5.300 -0.3958  0.8974 -1.3701
14139TIP3    H263833   1.039   1.952   5.249 -0.4234 -0.4042  0.0267
14140TIP3   OH263834   3.847   6.126  11.573 -0.5079 -0.3280  1.0287
14140TIP3    H163835   3.832   6.131  11.668 -1.1852 -0.2639  0.9255
14140TIP3    H263836   3.866   6.034  11.556 -0.5150 -0.3627  1.2101
14141TIP3   OH263837   1.148   6.527  13.010  0.4325  0.6020  0.1904
14141TIP3    H163838   1.096   6.452  12.981  0.7467  0.5002 -0.1189
14141TIP3    H263839   1.096   6.603  12.986  0.6912  0.5205 -0.6528
14142TIP3   OH263840   4.872   3.725  11.156  0.7374  0.2727  0.1634
14142TIP3    H163841   4.795   3.718  11.212 -0.2179  0.1538 -1.1268
14142TIP3    H263842   4.938   3.670  11.199  0.3467  0.9214  1.6397
14143TIP3   OH263843   6.252   3.130   4.056  0.4295 -0.7889 -0.3965
14143TIP3    H163844   6.240   3.039   4.082  1.2451 -0.7906  0.0235
14143TIP3    H263845   6.173   3.175   4.086  0.2084 -1.2842 -0.2382
14144TIP3   OH263846   3.229   6.033  14.411 -0.0562  0.3074  0.2177
14144TIP3    H163847   3.278   5.952  14.427  0.8168  0.6484 -0.6169
14144TIP3    H263848   3.237   6.048  14.317  0.3262  1.6883  0.4474
14145TIP3   OH263849   1.609   3.836  16.949 -0.2597 -0.1618 -0.2104
14145TIP3    H163850   1.646   3.865  17.033  0.6475  1.2258 -1.0466
14145TIP3    H263851   1.668   3.766  16.920 -2.1927 -2.7066  1.5967
14146TIP3   OH263852   3.345   4.241   0.261 -0.2986 -0.1150 -0.4564
14146TIP3    H163853   3.437   4.253   0.283 -0.4696  1.7876 -0.6405
14146TIP3    H263854   3.336   4.147   0.246  1.3137 -0.5180  0.8263
14147TIP3   OH263855   1.074   1.756  12.449 -0.6022  0.0797 -0.8523
14147TIP3    H163856   1.031   1.680  12.488 -0.2486 -0.0679 -0.7446
14147TIP3    H263857   1.131   1.790  12.518 -0.6630  0.3653 -0.9415
14148TIP3   OH263858   0.161   4.885  16.049 -0.0521 -0.9026 -0.0833
14148TIP3    H163859   0.173   4.980  16.045 -1.1504 -0.7769 -0.9311
14148TIP3    H263860   0.066   4.873  16.049  0.0141 -1.9403  2.4293
14149TIP3   OH263861   2.938   1.573  10.336 -0.1710 -0.0920 -0.1641
14149TIP3    H163862   2.947   1.633  10.410 -1.0950 -2.3288  1.9065
14149TIP3    H263863   3.027   1.561  10.304  0.8740 -1.7137  2.9220
14150TIP3   OH263864   4.113   3.471  12.070  1.4055 -0.1430  0.3285
14150TIP3    H163865   4.083   3.559  12.088  1.8053 -0.1563  1.0831
14150TIP3    H263866   4.054   3.439  12.002  1.9416  1.0976 -0.7687
14151TIP3   OH263867   2.288   6.718  11.454 -0.0634 -0.1169 -0.1210
14151TIP3    H163868   2.341   6.750  11.381  0.4941  1.2315  0.8467
14151TIP3    H263869   2.218   6.667  11.412  0.7836 -0.1554 -1.5301
14152TIP3   OH263870   4.516   3.291   2.626 -0.3819 -0.1620 -0.4546
14152TIP3    H163871   4.609   3.272   2.622 -0.2520 -0.3400  2.0405
14152TIP3    H263872   4.477   3.211   2.662 -1.5749 -0.2199 -1.7833
14153TIP3   OH263873   0.034   0.417  12.963  0.2053  0.4986 -0.0643
14153TIP3    H163874  -0.024   0.411  13.039  1.1458  2.1229  0.8534
14153TIP3    H263875  -0.021   0.453  12.894 -0.1790  0.9866  0.4793
14154TIP3   OH263876   6.492   6.361  15.864  0.4938 -0.1752  0.2618
14154TIP3    H163877   6.533   6.420  15.800  0.0477  0.4415  0.5321
14154TIP3    H263878   6.534   6.276  15.848 -0.0926 -0.2030 -1.3111
14155TIP3   OH263879   1.656   0.039   2.910 -0.0156  0.1707 -0.1386
14155TIP3    H163880   1.729  -0.015   2.880  0.2953  1.2318 -1.3585
14155TIP3    H263881   1.582  -0.021   2.913  0.2014 -0.2414 -1.9774
14156TIP3   OH263882   1.261   2.899   4.145 -0.2959 -0.1751  0.2886
14156TIP3    H163883   1.218   2.814   4.155 -1.5596  0.4242  0.1545
14156TIP3    H263884   1.302   2.896   4.059 -2.1309  0.0908 -0.6434
14157TIP3   OH263885   3.265   2.714  11.528 -0.0682  0.2821 -0.3970
14157TIP3    H163886   3.291   2.634  11.573 -0.7912  0.1347 -0.2273
14157TIP3    H263887   3.177   2.733  11.561 -0.7743 -0.0273 -2.0237
14158TIP3   OH263888   0.245   0.643   0.459  0.1214  0.0458 -0.1673
14158TIP3    H163889   0.238   0.625   0.553 -2.8775 -1.3977 -0.5365
14158TIP3    H263890   0.184   0.715   0.443  0.4087  0.1132 -1.0288
14159TIP3   OH263891   6.652   2.635  17.070  0.3452 -0.4408  0.0130
14159TIP3    H163892   6.675   2.718  17.111  0.0529 -0.2148 -0.2759
14159TIP3    H263893   6.732   2.608  17.024 -0.3956  1.2074 -2.4335
14160TIP3   OH263894   2.863   5.592  15.753  0.0496 -0.3493 -0.0913
14160TIP3    H163895   2.942   5.548  15.723  0.2938  1.2801 -1.9745
14160TIP3    H263896   2.883   5.621  15.842  1.1296 -0.9664 -0.1238
14161TIP3   OH263897   1.046   6.337  14.092 -0.3094 -0.0660  0.3414
14161TIP3    H163898   1.133   6.373  14.078 -0.7069  0.3923 -1.0848
14161TIP3    H263899   1.014   6.381  14.171 -0.0927  1.4434 -0.3725
14162TIP3   OH263900   4.958   2.417  15.343 -0.1181  0.3405 -0.1999
14162TIP3    H163901   4.864   2.416  15.359  0.0450  0.9629  0.8299
14162TIP3    H263902   4.995   2.359  15.410  0.3853  1.4523  0.5015
14163TIP3   OH263903   4.838   2.310  12.086  0.0221  0.1100  0.3874
14163TIP3    H163904   4.762   2.352  12.048  1.0673  2.2698  0.5318
14163TIP3    H263905   4.854   2.234  12.030 -1.3600  0.4446 -0.5097
14164TIP3   OH263906   5.007   2.642  12.146  0.4508  0.7897  0.7357
14164TIP3    H163907   5.057   2.614  12.223 -0.6668 -0.3461  1.0909
14164TIP3    H263908   5.068   2.696  12.096  1.5919  0.5487  1.8154
14165TIP3   OH263909   2.535   5.142   0.811  0.2979  0.2094 -0.0722
14165TIP3    H163910   2.459   5.185   0.850 -0.2315 -0.3549 -0.4705
14165TIP3    H263911   2.499   5.073   0.756  1.1381 -0.9086  0.7276
14166TIP3   OH263912   6.084   6.292   1.874  0.5155 -0.0906 -0.0115
14166TIP3    H163913   6.085   6.375   1.922  0.2884  0.8560 -1.5718
14166TIP3    H263914   6.104   6.316   1.784 -2.3607 -1.3007 -1.1023
14167TIP3   OH263915   0.418   2.951   0.237 -1.0760  0.3813 -0.6132
14167TIP3    H163916   0.334   2.974   0.196 -1.0216  0.5907 -0.6118
14167TIP3    H263917   0.394   2.913   0.321 -1.1300  2.1354  0.2156
14168TIP3   OH263918   5.617   0.648  16.067 -0.2574  0.1354 -0.8845
14168TIP3    H163919   5.522   0.655  16.055 -0.3744  0.1516  0.0078
14168TIP3    H263920   5.628   0.588  16.140  0.4650 -0.7664 -1.7000
14169TIP3   OH263921   0.977   6.603   0.155  0.1065  0.5880 -0.3760
14169TIP3    H163922   0.918   6.603   0.080 -0.6392 -1.2558  0.1333
14169TIP3    H263923   1.038   6.532   0.136  1.4107  1.6646 -0.3122
14170TIP3   OH263924   4.790   0.622   1.838 -0.5052 -0.3189 -0.3499
14170TIP3    H163925   4.822   0.593   1.923  1.1258 -0.0680 -0.8561
14170TIP3    H263926   4.868   0.648   1.789 -1.1020 -2.7044 -2.8232
14171TIP3   OH263927   3.356   5.945   4.213 -0.4205 -0.2515 -0.1481
14171TIP3    H163928   3.372   6.038   4.198 -0.1873  0.2995  2.7986
14171TIP3    H263929   3.261   5.935   4.205 -0.6698  0.6741  1.2666
14172TIP3   OH263930   1.612   4.337   5.117 -0.0422  0.3645 -0.3479
14172TIP3    H163931   1.654   4.326   5.202 -0.9360  0.8006  0.1627
14172TIP3    H263932   1.667   4.286   5.057 -1.4998 -3.2514  1.1187
14173TIP3   OH263933   6.600   3.410   3.697 -0.4457 -0.1064 -0.0630
14173TIP3    H163934   6.542   3.382   3.768 -0.1727  1.3243  0.7746
14173TIP3    H263935   6.685   3.424   3.740  0.5915 -2.1951 -1.2686
14174TIP3   OH263936   2.262   3.478   1.479  0.0645 -0.0376 -0.0991
14174TIP3    H163937   2.354   3.458   1.500 -0.4577 -0.3355  2.1629
14174TIP3    H263938   2.212   3.414   1.529 -1.4151  0.3098 -1.0756
14175TIP3   OH263939   3.646   1.782   0.595 -0.2767 -0.0773 -0.0443
14175TIP3    H163940   3.712   1.735   0.646 -0.3278 -2.0630 -1.6783
14175TIP3    H263941   3.587   1.713   0.563 -1.2706  1.2853 -1.2981
14176TIP3   OH263942   5.993   1.118  14.815  0.4873  0.3917  0.0528
14176TIP3    H163943   5.933   1.192  14.812 -2.0031 -1.5073 -1.5447
14176TIP3    H263944   5.936   1.041  14.821  2.4983 -1.7256 -3.8350
14177TIP3   OH263945   4.489   4.060  12.969 -0.4375  0.1213  0.0179
14177TIP3    H163946   4.420   4.100  12.916 -1.0838 -1.1213 -0.1046
14177TIP3    H263947   4.517   4.130  13.028 -0.4559  1.2061 -1.2181
14178TIP3   OH263948   6.642   3.659  16.148  0.1047  1.0013  0.0631
14178TIP3    H163949   6.589   3.601  16.093 -0.5430  0.6265  1.0581
14178TIP3    H263950   6.674   3.603  16.218  1.6194  1.2897 -0.3723
14179TIP3   OH263951   0.026   2.188  11.374  0.1322  0.2866 -0.4041
14179TIP3    H163952  -0.048   2.174  11.433  0.6756  0.9822  0.4735
14179TIP3    H263953  -0.000   2.263  11.320  1.1305  2.1559  1.5742
14180TIP3   OH263954   4.054   1.494   2.619  0.4154  0.0952 -0.0667
14180TIP3    H163955   4.102   1.542   2.686  1.4852  0.2326 -0.9136
14180TIP3    H263956   4.111   1.420   2.596 -0.7894 -1.0690  0.5383
14181TIP3   OH263957   1.991   4.818  15.969 -0.1972 -0.1220 -0.0343
14181TIP3    H163958   2.062   4.874  16.001 -0.5351 -0.7349  1.9820
14181TIP3    H263959   1.926   4.878  15.934 -0.6071  0.8325  2.1831
14182TIP3   OH263960   1.902   1.681  15.994  0.1944  0.3663  0.1787
14182TIP3    H163961   1.910   1.664  15.900 -1.9007  0.2853 -0.0339
14182TIP3    H263962   1.924   1.597  16.036  1.2175  0.4262 -0.2055
14183TIP3   OH263963   6.776   0.899  11.874  0.0108 -0.1900  0.2685
14183TIP3    H163964   6.831   0.842  11.928 -0.3367 -0.2291  0.5861
14183TIP3    H263965   6.782   0.861  11.786  1.1112  0.2719  0.1384
14184TIP3   OH263966   4.025   5.691  13.587  0.3180 -0.3638 -0.5139
14184TIP3    H163967   3.949   5.749  13.580  0.8215  0.5738  1.1738
14184TIP3    H263968   4.060   5.708  13.675  0.6109 -3.0752 -0.0038
14185TIP3   OH263969   0.542   4.570   6.610  0.3201 -0.5275 -0.0477
14185TIP3    H163970   0.510   4.568   6.520 -0.8995  1.2790  0.3009
14185TIP3    H263971   0.468   4.539   6.663  0.2714  0.4673  0.4922
14186TIP3   OH263972   2.189   2.542   1.385 -0.3501  0.2225 -0.1842
14186TIP3    H163973   2.144   2.488   1.450  0.2578 -0.6194 -0.4522
14186TIP3    H263974   2.123   2.606   1.358 -1.9733 -1.9271 -1.6925
14187TIP3   OH263975   2.506   6.381   2.607  0.1053 -0.3344 -0.5205
14187TIP3    H163976   2.436   6.422   2.657 -0.7545 -0.8083 -1.3037
14187TIP3    H263977   2.533   6.447   2.543 -1.5311 -1.0314 -2.0282
14188TIP3   OH263978   2.365   2.435   5.222 -0.1663  0.1768 -0.0836
14188TIP3    H163979   2.373   2.482   5.305  0.9056 -0.2597  0.0840
14188TIP3    H263980   2.282   2.388   5.229  0.8672 -1.5491  1.6815
14189TIP3   OH263981   0.961   6.274  13.828  0.2314  0.1367 -0.5034
14189TIP3    H163982   0.993   6.316  13.908 -0.4450 -1.9846  0.9744
14189TIP3    H263983   0.868   6.298  13.824  0.3537  0.5530 -0.8702
14190TIP3   OH263984   3.829   6.078   5.036 -0.2165 -0.2276  0.3032
14190TIP3    H163985   3.853   6.050   5.125 -1.2413 -0.3841  0.5470
14190TIP3    H263986   3.756   6.020   5.012 -1.8668  1.6563  0.5045
14191TIP3   OH263987   3.300   3.792   5.637  0.5172 -0.3113  0.1770
14191TIP3    H163988   3.359   3.861   5.669 -0.6938  0.8563 -0.0106
14191TIP3    H263989   3.356   3.736   5.584  1.4060  1.0060 -0.3378
14192TIP3   OH263990   0.740   2.597   4.376 -0.1345  0.0171  0.0239
14192TIP3    H163991   0.734   2.508   4.410 -0.3073  0.8184  2.2138
14192TIP3    H263992   0.654   2.635   4.391  0.2733  0.9170  0.1492
14193TIP3   OH263993   1.488   6.562  10.685  0.6418  0.3096 -0.7184
14193TIP3    H163994   1.469   6.512  10.765  0.4368 -0.6246 -1.3322
14193TIP3    H263995   1.555   6.625  10.712 -0.5780  1.1127  0.5703
14194TIP3   OH263996   4.656   5.987   1.088 -0.5140 -0.5517  0.3921
14194TIP3    H163997   4.561   5.992   1.095 -0.5797  0.2065 -0.6887
14194TIP3    H263998   4.681   5.911   1.141 -1.7467 -0.9334  0.4443
14195TIP3   OH263999   5.085   4.790   4.184  0.0935 -0.1217  0.5355
14195TIP3    H164000   5.103   4.876   4.145 -1.7736 -0.2671 -0.7894
14195TIP3    H264001   5.007   4.759   4.137 -0.0551 -1.9579  1.9174
14196TIP3   OH264002   3.457   0.690  15.940  1.1596  0.3661 -0.6002
14196TIP3    H164003   3.383   0.630  15.946  1.4132 -0.0057 -1.0971
14196TIP3    H264004   3.527   0.638  15.900  1.4592  0.9209 -0.8128
14197TIP3   OH264005   2.691   3.076  15.256 -0.9138  0.2131  0.4388
14197TIP3    H164006   2.618   3.016  15.238 -0.6239  0.6271 -2.5825
14197TIP3    H264007   2.768   3.031  15.225 -0.7116  2.1281 -2.1466
14198TIP3   OH264008   4.415   1.816   0.930  0.1967  0.3096 -0.2797
14198TIP3    H164009   4.481   1.755   0.898 -0.8698 -1.0137 -0.0516
14198TIP3    H264010   4.446   1.839   1.018  0.2855 -0.4329 -0.1031
14199TIP3   OH264011   2.356   2.198  13.352 -0.0832 -0.7397 -0.2184
14199TIP3    H164012   2.397   2.284  13.342  0.4014 -0.9974 -0.4205
14199TIP3    H264013   2.428   2.138  13.369 -0.5752 -0.8118  1.8592
14200TIP3   OH264014   6.192   4.416   3.578  0.7546  0.3818 -0.0583
14200TIP3    H164015   6.233   4.333   3.601  0.8157  0.6996  1.0020
14200TIP3    H264016   6.224   4.434   3.489  0.3691 -0.9448 -0.4905
14201TIP3   OH264017   5.155   6.384  12.122 -0.1547  0.0175  0.2261
14201TIP3    H164018   5.166   6.290  12.112 -0.8319 -0.1832  1.2322
14201TIP3    H264019   5.175   6.420  12.035  1.7088 -0.8842  0.2278
14202TIP3   OH264020   6.226   0.956   0.868 -1.0670 -0.2112  0.3015
14202TIP3    H164021   6.251   0.963   0.960  0.6030  0.2098 -0.1550
14202TIP3    H264022   6.262   0.872   0.840 -0.5803  0.1691 -0.2426
14203TIP3   OH264023   4.989   0.415  13.537 -0.3676 -0.1504 -0.0784
14203TIP3    H164024   5.077   0.452  13.549  0.4549 -1.3906 -1.8678
14203TIP3    H264025   4.960   0.394  13.626  0.8876  0.8382  0.6056
14204TIP3   OH264026   6.212   2.941  11.506 -0.1070  0.0302  0.1045
14204TIP3    H164027   6.241   2.938  11.415  0.5114  1.7794  0.1931
14204TIP3    H264028   6.120   2.916  11.503 -0.1733  0.3687 -1.0545
14205TIP3   OH264029   0.125   2.478   3.879  0.5195 -0.2196 -0.0754
14205TIP3    H164030   0.066   2.492   3.953 -0.8916 -0.9309 -1.0208
14205TIP3    H264031   0.106   2.550   3.819  3.4109  1.8223  1.2245
14206TIP3   OH264032   4.965   2.716   0.706 -0.8710 -0.5589 -0.1689
14206TIP3    H164033   4.874   2.689   0.694 -1.3103  1.2870 -1.4697
14206TIP3    H264034   5.016   2.643   0.672 -1.7770 -2.2065  1.8075
14207TIP3   OH264035   4.845   3.563  13.827 -0.3006  0.4364  0.0200
14207TIP3    H164036   4.817   3.575  13.917 -0.9554 -0.6271 -0.0120
14207TIP3    H264037   4.881   3.647  13.800 -1.6174  1.2587  0.7466
14208TIP3   OH264038   6.104   0.978  13.342  0.7894  0.0125  0.6416
14208TIP3    H164039   6.103   0.996  13.248 -0.2639 -0.6039  0.5169
14208TIP3    H264040   6.171   1.037  13.377  1.6202 -0.1724 -0.5691
14209TIP3   OH264041   2.729   6.188   2.693 -0.4083 -0.6143  0.3387
14209TIP3    H164042   2.764   6.236   2.618  1.6810  0.1728  1.7207
14209TIP3    H264043   2.653   6.239   2.720 -0.9154 -0.6576 -0.9335
14210TIP3   OH264044   5.248   2.188   2.653 -0.0620  0.0522 -0.4923
14210TIP3    H164045   5.237   2.116   2.714 -2.3263  1.1099  0.4687
14210TIP3    H264046   5.343   2.203   2.650  0.1589  0.2198  3.1002
14211TIP3   OH264047   4.401   3.647  14.559 -0.5517 -0.0889 -0.0576
14211TIP3    H164048   4.452   3.689  14.490 -2.0181  0.0714 -1.0852
14211TIP3    H264049   4.467   3.601  14.612  0.8072  1.3090 -0.4351
14212TIP3   OH264050   5.518   0.692   3.773  0.2734 -0.1497 -0.3944
14212TIP3    H164051   5.534   0.631   3.701  0.4933 -1.5193  0.7578
14212TIP3    H264052   5.435   0.663   3.811 -0.4523  1.3000 -0.8027
14213TIP3   OH264053   1.092   4.816  14.331  0.5586  0.1468 -0.4136
14213TIP3    H164054   1.127   4.892  14.285  0.4809  0.5262  0.1436
14213TIP3    H264055   1.163   4.788  14.389 -0.3575  1.5627  1.5017
14214TIP3   OH264056   1.434   1.116  13.999  0.3563 -0.1152 -0.6494
14214TIP3    H164057   1.385   1.078  14.071  1.1596 -0.0086 -0.0320
14214TIP3    H264058   1.383   1.193  13.973 -0.1120 -0.3499 -0.4267
14215TIP3   OH264059   0.015   1.479   0.629  0.3456  0.4485  0.4279
14215TIP3    H164060  -0.052   1.502   0.693 -0.0969 -0.4306  0.2994
14215TIP3    H264061   0.060   1.403   0.668  1.8867  1.5684  0.9363
14216TIP3   OH264062   4.111   0.121  15.487  0.6406  0.2231 -0.2298
14216TIP3    H164063   4.150   0.170  15.560  0.4565 -0.7698  0.5595
14216TIP3    H264064   4.175   0.054  15.466  0.9919  0.9095 -1.4669
14217TIP3   OH264065   0.982   1.221   3.675 -0.1869  0.3265  0.3062
14217TIP3    H164066   0.996   1.221   3.580 -0.6849  0.8652  0.2267
14217TIP3    H264067   1.013   1.135   3.704  0.3798  0.3255 -0.2807
14218TIP3   OH264068   4.361   5.531  11.999  0.5332  0.6870 -0.4430
14218TIP3    H164069   4.303   5.607  12.000  0.6354  0.7716 -0.8855
14218TIP3    H264070   4.430   5.554  11.938 -2.0248 -1.6198 -4.7089
14219TIP3   OH264071   4.141   5.961  15.661 -0.0834  0.4884 -0.0277
14219TIP3    H164072   4.168   6.051  15.643  0.2006  0.4087 -0.0057
14219TIP3    H264073   4.094   5.933  15.583 -0.0596  0.6124 -0.0857
14220TIP3   OH264074   3.463   0.156   5.707 -0.5032 -0.1612  0.1444
14220TIP3    H164075   3.403   0.134   5.779  0.2167  1.9724  1.4980
14220TIP3    H264076   3.408   0.199   5.642 -0.9381 -0.9319 -0.0084
14221TIP3   OH264077   2.511   1.094  13.981 -0.0258  0.2678 -0.0619
14221TIP3    H164078   2.473   1.180  13.969  0.1490  0.1996 -1.2173
14221TIP3    H264079   2.519   1.084  14.076 -2.3464  0.5070  0.2166
14222TIP3   OH264080   1.489   0.024   5.593 -0.3131 -0.1822  0.3818
14222TIP3    H164081   1.405   0.043   5.635 -1.6622  0.0875 -2.2275
14222TIP3    H264082   1.468  -0.040   5.525  2.0558 -1.9570  1.1703
14223TIP3   OH264083   5.331   1.563  11.814  0.1544 -0.4747 -0.1860
14223TIP3    H164084   5.359   1.493  11.873  1.1229 -1.8919 -2.1996
14223TIP3    H264085   5.238   1.546  11.798  0.2775 -1.0343 -0.3126
14224TIP3   OH264086   0.241   3.131  13.188 -0.5631  0.4274  0.3113
14224TIP3    H164087   0.161   3.162  13.231 -1.3218 -0.0031 -0.7391
14224TIP3    H264088   0.300   3.207  13.188 -1.1332  0.8760  0.7202
14225TIP3   OH264089   3.737   3.842   5.214 -0.5875  0.1073 -0.0754
14225TIP3    H164090   3.737   3.883   5.128 -1.0783 -2.8669 -1.6447
14225TIP3    H264091   3.655   3.870   5.254 -1.5958 -0.4394 -1.6750
14226TIP3   OH264092   0.916   5.305   6.087 -0.0110 -0.3144  0.0701
14226TIP3    H164093   0.913   5.397   6.112  2.2296 -0.0954 -0.2998
14226TIP3    H264094   0.891   5.257   6.166 -0.1428  0.5706  0.5691
14227TIP3   OH264095   2.367   6.424   1.972 -0.4902 -0.0153  0.1026
14227TIP3    H164096   2.432   6.361   2.003 -0.4607 -0.1596 -0.2489
14227TIP3    H264097   2.283   6.386   1.997 -0.4700 -0.1673 -0.0551
14228TIP3   OH264098   0.006   6.518   2.881  0.4862  0.2126  0.8326
14228TIP3    H164099   0.031   6.451   2.818 -0.7815 -0.5333  1.0897
14228TIP3    H264100   0.086   6.568   2.896  1.1228 -0.4015 -0.3786
14229TIP3   OH264101   0.411   4.171   6.143  0.5191 -0.2853  0.3934
14229TIP3    H164102   0.373   4.096   6.098 -1.2445  0.6684  0.2247
14229TIP3    H264103   0.382   4.162   6.234 -1.5879  1.3097 -0.0599
14230TIP3   OH264104   5.273   1.867  16.984 -0.6643  0.1976  0.5080
14230TIP3    H164105   5.318   1.945  16.952  0.1396  0.2650  1.7384
14230TIP3    H264106   5.249   1.887  17.074 -0.0954 -1.0995  0.9785
14231TIP3   OH264107   4.855   1.280  14.405  0.0981  0.5665  0.1927
14231TIP3    H164108   4.915   1.297  14.333 -0.1187  2.4736  0.4050
14231TIP3    H264109   4.769   1.276  14.363 -0.0349  1.7372  0.3251
14232TIP3   OH264110   2.381   0.997  10.468  0.1049 -0.2135 -0.0009
14232TIP3    H164111   2.457   1.044  10.434 -0.2247 -0.1679 -0.6874
14232TIP3    H264112   2.314   1.065  10.478 -0.2812 -0.4896 -0.7168
14233TIP3   OH264113   2.801   2.541   3.033 -0.4277  0.1870  0.6619
14233TIP3    H164114   2.845   2.485   3.097  0.5070  1.1636  0.8936
14233TIP3    H264115   2.743   2.481   2.985 -0.2997 -0.7645  1.6556
14234TIP3   OH264116   1.150   3.539  15.575  0.4224  0.0594 -0.0489
14234TIP3    H164117   1.220   3.568  15.634  0.7796  0.4320 -0.6481
14234TIP3    H264118   1.101   3.619  15.555  1.0003  0.1486 -1.1667
14235TIP3   OH264119   1.431   2.653   4.394  0.0280 -0.3685  0.0184
14235TIP3    H164120   1.395   2.733   4.433  2.9363  0.8759  0.3938
14235TIP3    H264121   1.361   2.589   4.404 -1.4635  1.4170  2.1134
14236TIP3   OH264122   2.039   1.207  11.575 -0.3705  0.0246 -0.4049
14236TIP3    H164123   2.103   1.251  11.520 -2.0290 -0.4093 -2.8323
14236TIP3    H264124   2.063   1.114  11.571  0.5539  0.1554  1.1602
14237TIP3   OH264125   5.755   6.331  11.336  0.1904 -0.0189 -0.2330
14237TIP3    H164126   5.693   6.353  11.267  0.0314  2.2468  0.5511
14237TIP3    H264127   5.701   6.320  11.414  0.5415 -0.6603 -0.0796
14238TIP3   OH264128   5.795   0.435  10.612 -0.0684  0.1697 -0.1832
14238TIP3    H164129   5.704   0.450  10.584  0.0592  1.2411 -0.0731
14238TIP3    H264130   5.829   0.523  10.631  1.0102 -0.2145 -0.2705
14239TIP3   OH264131   6.013   0.860   4.687 -0.1293 -0.2489 -0.4255
14239TIP3    H164132   5.992   0.781   4.736 -0.9153 -0.3311 -0.8727
14239TIP3    H264133   6.098   0.842   4.647  0.3678 -0.3054  0.6236
14240TIP3   OH264134   4.705   5.187  13.745  0.1895  0.1114 -0.7522
14240TIP3    H164135   4.626   5.227  13.782  0.3706 -0.7632  0.6530
14240TIP3    H264136   4.766   5.260  13.736 -0.6553  0.7418 -1.5582
14241TIP3   OH264137   1.693   0.359  11.713 -1.0044 -0.4292 -0.1324
14241TIP3    H164138   1.788   0.367  11.707 -0.8190 -1.7767  0.5724
14241TIP3    H264139   1.663   0.446  11.741  0.2229 -0.4763  1.4743
14242TIP3   OH264140   4.529   2.338  14.093 -0.6116 -0.5532 -0.2654
14242TIP3    H164141   4.489   2.329  14.180 -1.2951 -1.7478 -0.6778
14242TIP3    H264142   4.471   2.397  14.046 -0.3545 -0.0708  0.0127
14243TIP3   OH264143   5.733   5.738   3.214 -0.1708  0.3272 -0.1202
14243TIP3    H164144   5.812   5.781   3.182  0.4492 -1.5594 -1.3103
14243TIP3    H264145   5.741   5.648   3.184 -0.8632 -0.9807  3.1421
14244TIP3   OH264146   4.650   6.505   5.279  0.4448  0.6042  0.6693
14244TIP3    H164147   4.616   6.538   5.362 -0.1974  0.8271  0.3277
14244TIP3    H264148   4.586   6.439   5.252  1.0674 -0.0428  0.7381
14245TIP3   OH264149   1.285   3.105   4.868  0.4660 -0.0444 -0.3141
14245TIP3    H164150   1.380   3.097   4.860  0.5001 -0.7319  0.6473
14245TIP3    H264151   1.272   3.180   4.926  0.4570 -0.4847  0.2653
14246TIP3   OH264152   4.579   6.022   4.403 -0.5832  0.1510  0.5769
14246TIP3    H164153   4.539   5.938   4.378 -1.5123  0.3812  1.2157
14246TIP3    H264154   4.669   6.000   4.426 -0.7114 -0.6123  0.3845
14247TIP3   OH264155   3.082   2.648   4.383 -0.4594 -0.0740 -0.0628
14247TIP3    H164156   3.049   2.699   4.457 -2.9741 -2.1762  0.4086
14247TIP3    H264157   3.101   2.713   4.315 -1.8035  1.6162  1.1028
14248TIP3   OH264158   0.133   5.118   4.733  0.7889 -0.0312 -0.3747
14248TIP3    H164159   0.172   5.034   4.707  0.5346 -0.8979  1.7963
14248TIP3    H264160   0.039   5.103   4.727  0.6884 -0.5662  1.6890
14249TIP3   OH264161   0.212   6.619   0.237  0.1454  0.4702 -0.4152
14249TIP3    H164162   0.149   6.690   0.232  0.0834  0.4508  0.0941
14249TIP3    H264163   0.278   6.641   0.171 -0.4412  0.4335 -1.0330
14250TIP3   OH264164   3.258   4.333  11.666 -0.0271 -0.3584 -0.1579
14250TIP3    H164165   3.306   4.270  11.613 -0.1329 -0.8876  0.3729
14250TIP3    H264166   3.273   4.417  11.622 -0.2318 -0.8036 -1.1062
14251TIP3   OH264167   2.461   3.150   1.102 -0.1683  0.2833 -1.0918
14251TIP3    H164168   2.506   3.086   1.157 -1.5077 -1.2387 -1.7259
14251TIP3    H264169   2.455   3.228   1.157 -1.1632 -1.0845  0.8142
14252TIP3   OH264170   3.072   2.023   5.649 -0.0848 -0.2013  0.8272
14252TIP3    H164171   3.112   1.939   5.672 -0.9641 -1.0808 -0.6287
14252TIP3    H264172   3.011   2.001   5.579 -0.8271  1.5742  0.8700
14253TIP3   OH264173   2.325   5.368  14.649  0.4342 -0.0298  0.6015
14253TIP3    H164174   2.247   5.410  14.612  0.2715 -0.1615  0.7914
14253TIP3    H264175   2.330   5.403  14.738  0.7154  0.1419  0.5180
14254TIP3   OH264176   0.981   0.933   5.989 -0.0430  0.3530  0.4946
14254TIP3    H164177   1.067   0.904   6.018  0.0711 -1.2082 -1.2626
14254TIP3    H264178   0.929   0.939   6.069  0.8685 -1.6178  1.2879
14255TIP3   OH264179   6.561   2.634  11.282 -0.0371 -0.1867 -0.1345
14255TIP3    H164180   6.566   2.621  11.187 -0.9602  1.0294 -0.3752
14255TIP3    H264181   6.468   2.654  11.298  0.2097  0.1344  0.9541
14256TIP3   OH264182   3.535   1.952   3.640 -0.0238  0.1867  0.0209
14256TIP3    H164183   3.487   1.881   3.682 -1.0582  0.6795 -0.2995
14256TIP3    H264184   3.581   1.995   3.712 -0.3509 -0.0644  0.3871
14257TIP3   OH264185   3.210   0.706   1.781 -0.0052  0.6595  0.2681
14257TIP3    H164186   3.193   0.633   1.841 -0.8871 -1.8745 -2.7296
14257TIP3    H264187   3.140   0.769   1.799 -1.1541 -0.7369  0.8893
14258TIP3   OH264188   4.686   3.969  13.682 -0.1042 -0.1589 -0.5564
14258TIP3    H164189   4.745   3.943  13.611  0.7386 -2.1178  0.7735
14258TIP3    H264190   4.615   3.905  13.679  0.2166 -0.5933  0.6628
14259TIP3   OH264191   4.832   3.702  11.536 -0.1291 -0.0688 -0.3119
14259TIP3    H164192   4.817   3.790  11.503 -0.1362  0.2032  0.3897
14259TIP3    H264193   4.893   3.713  11.609  0.2408 -0.6991 -0.5176
14260TIP3   OH264194   3.625   6.149  12.704  0.1857  0.1196 -0.0145
14260TIP3    H164195   3.608   6.210  12.631 -0.5851 -0.5196 -0.3894
14260TIP3    H264196   3.714   6.170  12.733  1.5199 -1.2780 -2.7678
14261TIP3   OH264197   0.235   5.359  11.334 -0.5018  0.3853 -0.3752
14261TIP3    H164198   0.309   5.305  11.304 -1.2525 -0.7198 -0.2751
14261TIP3    H264199   0.210   5.321  11.418 -0.8168  1.1291 -0.1286
14262TIP3   OH264200   4.499   3.740   6.393  0.9488 -0.4244  0.1286
14262TIP3    H164201   4.586   3.775   6.372  0.5851  0.4456  0.0463
14262TIP3    H264202   4.438   3.800   6.351  0.1537  1.4001  3.5778
14263TIP3   OH264203   0.618   2.557   5.672 -0.1480 -0.0999 -0.5134
14263TIP3    H164204   0.602   2.587   5.583 -0.5835 -2.9141 -1.4727
14263TIP3    H264205   0.657   2.470   5.662  0.6122 -0.1430  2.0512
14264TIP3   OH264206   0.178   2.371  11.897  0.3728 -0.7290  0.4479
14264TIP3    H164207   0.222   2.378  11.982 -1.5661 -0.9041  1.5238
14264TIP3    H264208   0.114   2.442  11.897  1.0224 -0.0847 -1.3378
14265TIP3   OH264209   0.413   4.676  17.012  0.3114  0.4444  0.1589
14265TIP3    H164210   0.442   4.730  16.939  1.3993  1.4378  1.2817
14265TIP3    H264211   0.492   4.664  17.066 -0.2766 -0.9193  0.7766
14266TIP3   OH264212   3.763   6.679   3.269  0.3011 -0.7652  0.2598
14266TIP3    H164213   3.783   6.613   3.202 -0.2349 -0.0836 -0.6066
14266TIP3    H264214   3.831   6.745   3.259  0.0860 -0.5466  0.2221
14267TIP3   OH264215   0.762   5.262   1.531 -0.1606  0.2950  0.5033
14267TIP3    H164216   0.800   5.196   1.474 -0.2968  0.4557  0.2246
14267TIP3    H264217   0.752   5.339   1.476  0.3726  0.6826  0.9318
14268TIP3   OH264218   5.679   4.076  17.118  0.3616 -0.1775  0.3387
14268TIP3    H164219   5.649   4.167  17.123  0.5077 -0.1357  0.4739
14268TIP3    H264220   5.600   4.026  17.097  0.0665 -0.1419  1.2954
14269TIP3   OH264221   1.572   2.546  11.395 -0.3046 -0.0700  0.2730
14269TIP3    H164222   1.665   2.530  11.413 -1.0307 -2.9942  2.0802
14269TIP3    H264223   1.554   2.494  11.317 -1.0369 -2.2907  1.8183
14270TIP3   OH264224   0.417   2.507   0.124  0.0032  0.6589  0.6408
14270TIP3    H164225   0.415   2.432   0.066 -0.5146  0.7969  0.4712
14270TIP3    H264226   0.333   2.551   0.109 -0.8653 -0.2002  2.6585
14271TIP3   OH264227   6.190   5.614  16.537 -0.4816 -0.4994 -0.2247
14271TIP3    H164228   6.139   5.657  16.469 -0.1013 -0.9665 -0.8216
14271TIP3    H264229   6.202   5.524  16.505  0.5826 -0.4413 -0.0290
14272TIP3   OH264230   6.564   3.740  14.515  0.1124  0.2563 -0.1633
14272TIP3    H164231   6.553   3.830  14.545  1.0151  0.4345 -0.3433
14272TIP3    H264232   6.658   3.730  14.502 -0.0474 -0.4888 -0.8433
14273TIP3   OH264233   1.310   1.057   1.313  0.5652  0.1877  0.1710
14273TIP3    H164234   1.376   0.988   1.304  0.6096  0.1037  1.0117
14273TIP3    H264235   1.226   1.011   1.306  0.5034  0.5980 -3.2648
14274TIP3   OH264236   0.602   4.046  16.185  0.2687  0.1792 -0.3741
14274TIP3    H164237   0.697   4.033  16.182  0.3924 -0.5931  3.1517
14274TIP3    H264238   0.567   3.980  16.124  1.9116 -1.3944  0.2994
14275TIP3   OH264239   4.309   0.666  14.076  0.0391  0.8295 -0.1136
14275TIP3    H164240   4.306   0.714  14.159 -0.5398  0.4067  0.1158
14275TIP3    H264241   4.226   0.684  14.034  0.3729  1.1263 -0.6600
14276TIP3   OH264242   0.890   5.084   6.457 -0.7728  0.0916 -0.2776
14276TIP3    H164243   0.848   5.130   6.385  0.7675  1.0641 -0.6134
14276TIP3    H264244   0.837   5.105   6.534 -2.6291 -1.2244 -1.1333
14277TIP3   OH264245   1.394   1.605   5.396 -0.8182 -0.0241  0.5276
14277TIP3    H164246   1.325   1.635   5.455  0.0808  0.2993  1.4423
14277TIP3    H264247   1.432   1.529   5.440 -0.5446 -0.1596  0.0656
14278TIP3   OH264248   1.116   0.959  11.440  0.5193 -0.8930  0.3480
14278TIP3    H164249   1.026   0.966  11.474  0.7352 -0.3032  0.8158
14278TIP3    H264250   1.145   1.050  11.432  0.9516 -1.0723 -0.1538
14279TIP3   OH264251   3.607   3.913  12.992  0.6863  0.1632 -0.6619
14279TIP3    H164252   3.628   4.002  13.021  0.5642 -0.1034  0.2832
14279TIP3    H264253   3.520   3.920  12.954  0.2255  0.2626  0.3771
14280TIP3   OH264254   4.104   1.101  13.095  0.1232 -0.5787 -0.3134
14280TIP3    H164255   4.175   1.072  13.152  0.1268  0.6749  0.3512
14280TIP3    H264256   4.027   1.106  13.153  0.1875  0.9644 -0.3224
14281TIP3   OH264257   6.196   4.518  15.282 -0.3902  0.5534  0.0982
14281TIP3    H164258   6.230   4.430  15.295  0.1458  0.5072 -1.4042
14281TIP3    H264259   6.240   4.549  15.203  0.7645  2.8404  1.5272
14282TIP3   OH264260   3.406   0.377   0.810 -0.1693 -0.0457  0.0573
14282TIP3    H164261   3.381   0.411   0.724 -0.6136 -0.9495 -0.1931
14282TIP3    H264262   3.336   0.315   0.832  1.3466 -1.9759 -0.2374
14283TIP3   OH264263   6.557   4.771  11.408 -0.0765 -0.4381 -0.0761
14283TIP3    H164264   6.630   4.749  11.466  1.5548 -1.2642 -2.2826
14283TIP3    H264265   6.596   4.827  11.341 -1.4992 -0.7303 -1.2047
14284TIP3   OH264266   2.123   4.254  16.727 -0.0871  0.0362  0.2345
14284TIP3    H164267   2.096   4.244  16.818 -2.3922 -1.8001 -0.5373
14284TIP3    H264268   2.218   4.268  16.731  0.2095 -1.9153  2.8520
14285TIP3   OH264269   2.373   5.622   1.683 -0.1139 -0.9681 -0.4067
14285TIP3    H164270   2.326   5.618   1.600 -0.4531 -2.3258 -0.1666
14285TIP3    H264271   2.408   5.534   1.696  0.6265 -0.5668  0.5036
14286TIP3   OH264272   5.771   0.530   4.898  0.2978  0.7647  0.1002
14286TIP3    H164273   5.863   0.506   4.884 -0.2923 -1.4392 -0.2977
14286TIP3    H264274   5.732   0.528   4.811 -0.2156  1.3565  0.3106
14287TIP3   OH264275   5.460   1.250  15.511  0.6136  0.2544  0.0057
14287TIP3    H164276   5.383   1.201  15.541  2.3013 -1.7061  1.4443
14287TIP3    H264277   5.468   1.322  15.574  1.3925 -1.0810  1.5208
14288TIP3   OH264278   2.124   2.798   5.516  0.1725 -0.2333  0.4382
14288TIP3    H164279   2.065   2.818   5.589  0.8354 -0.5686  1.0790
14288TIP3    H264280   2.068   2.755   5.452 -0.6839  1.1418  0.2211
14289TIP3   OH264281   3.262   3.837  15.251 -0.1310 -0.4902 -0.0206
14289TIP3    H164282   3.337   3.779  15.262  0.4710  0.4520  1.0477
14289TIP3    H264283   3.286   3.894  15.179  0.0709 -0.3580  0.1510
14290TIP3   OH264284   4.678   6.093  13.736 -0.2168 -0.4683 -0.0443
14290TIP3    H164285   4.709   6.004  13.717  1.2795  0.0407 -0.0701
14290TIP3    H264286   4.685   6.139  13.653 -0.9653 -0.2933 -0.0238
14291TIP3   OH264287   1.514   2.989  14.290  0.2949 -0.2407 -0.0864
14291TIP3    H164288   1.595   3.032  14.263  0.2532 -0.5491 -0.7226
14291TIP3    H264289   1.480   3.043  14.361  1.7759 -0.8717  1.1422
14292TIP3   OH264290   4.744   6.223   1.401  0.2455 -0.0112 -0.0955
14292TIP3    H164291   4.775   6.264   1.482  2.2324  0.9722 -1.2890
14292TIP3    H264292   4.675   6.282   1.369 -0.3261 -0.2372  0.6797
14293TIP3   OH264293   1.439   1.435  16.948 -0.1912 -0.1696  0.3220
14293TIP3    H164294   1.415   1.364  17.008 -0.2501  0.4357  1.0276
14293TIP3    H264295   1.401   1.409  16.864 -0.8274 -0.6252  0.7404
14294TIP3   OH264296   2.957   4.230   3.666  0.1709  0.1065 -0.3237
14294TIP3    H164297   3.000   4.256   3.584 -0.9032  1.9538 -0.3504
14294TIP3    H264298   3.007   4.276   3.734 -0.4134  0.5405 -0.1778
14295TIP3   OH264299   1.328   0.237   5.042 -0.1657 -0.4695 -0.0189
14295TIP3    H164300   1.309   0.330   5.031 -0.5821 -0.4645  0.6670
14295TIP3    H264301   1.282   0.212   5.122 -0.3459 -1.3518 -0.3836
14296TIP3   OH264302   2.706   1.171  10.712 -0.3920 -0.3291  0.6326
14296TIP3    H164303   2.619   1.137  10.733 -0.9131  1.2722  1.1966
14296TIP3    H264304   2.766   1.101  10.738 -1.3261 -0.3630  2.8809
14297TIP3   OH264305   6.396   5.149  15.731 -0.0541 -0.3083 -0.2519
14297TIP3    H164306   6.302   5.167  15.739  0.3084  1.0989  1.8071
14297TIP3    H264307   6.434   5.234  15.708  0.6946 -1.0075 -1.7345
14298TIP3   OH264308   5.945   3.375   3.560 -0.5001  0.2296  0.6391
14298TIP3    H164309   5.945   3.452   3.617 -0.3110  0.1359  0.7657
14298TIP3    H264310   5.976   3.408   3.475  2.0592 -0.1802  1.3420
14299TIP3   OH264311   5.450   2.606  15.244  0.3706  0.3845  0.1873
14299TIP3    H164312   5.477   2.556  15.167 -0.1476 -0.9289  0.8460
14299TIP3    H264313   5.363   2.574  15.264  0.2995  1.0853  1.0317
14300TIP3   OH264314   4.653   1.628  15.606 -0.3799  0.2283  0.2543
14300TIP3    H164315   4.735   1.605  15.563 -0.2078 -1.1436  1.2460
14300TIP3    H264316   4.679   1.654  15.695 -0.7726  2.4648 -0.2198
14301TIP3   OH264317   4.936   2.901  16.777 -0.1879  0.0514  0.2436
14301TIP3    H164318   4.999   2.851  16.725 -0.4230 -0.1004  0.1028
14301TIP3    H264319   4.857   2.904  16.723 -0.9475 -1.4273  1.2190
14302TIP3   OH264320   0.764   2.518   4.777  0.0291 -0.0265 -0.0505
14302TIP3    H164321   0.742   2.565   4.857 -2.9499 -2.0448  0.4719
14302TIP3    H264322   0.860   2.522   4.772  0.2534  0.8990  3.1088
14303TIP3   OH264323   2.283   0.344  15.339 -0.3009 -0.0403  0.0939
14303TIP3    H164324   2.275   0.360  15.245 -0.4701  1.2914  0.3156
14303TIP3    H264325   2.192   0.343  15.371 -0.4288 -2.8174 -0.0588
14304TIP3   OH264326   2.613   2.099   4.272  0.1204  0.0315  0.1371
14304TIP3    H164327   2.609   2.041   4.196  1.5357 -1.3306  1.0439
14304TIP3    H264328   2.684   2.159   4.253 -0.3692  0.5220 -0.1598
14305TIP3   OH264329   2.155   2.927  13.858  0.3131 -0.0242 -0.1842
14305TIP3    H164330   2.237   2.901  13.900  0.5006  1.8171  0.6476
14305TIP3    H264331   2.116   2.991  13.917 -1.8392 -0.9487 -0.4846
14306TIP3   OH264332   1.635   2.523  16.898  0.7233 -0.0979 -0.6796
14306TIP3    H164333   1.701   2.462  16.932  1.4199  0.2253 -1.4256
14306TIP3    H264334   1.656   2.606  16.940 -0.4053 -0.3940  0.5649
14307TIP3   OH264335   2.384   2.615  15.045  0.0707 -0.8470 -0.3625
14307TIP3    H164336   2.350   2.599  15.133  2.3703 -0.3522  0.6900
14307TIP3    H264337   2.393   2.528  15.007 -0.3378 -1.1171  0.1396
14308TIP3   OH264338   6.507   6.745   3.645 -0.3129 -0.3468 -0.0293
14308TIP3    H164339   6.521   6.760   3.552  1.0773  1.7354  0.4607
14308TIP3    H264340   6.458   6.662   3.649  2.4662 -2.3010 -2.4410
14309TIP3   OH264341   3.508   2.943  11.258  0.1379  0.2742  0.3085
14309TIP3    H164342   3.455   2.946  11.338 -1.7859 -0.4158 -0.8758
14309TIP3    H264343   3.552   2.858  11.261  1.4664  0.9555  1.4208
14310TIP3   OH264344   0.950   2.661   5.034  0.4108  0.5325 -0.0839
14310TIP3    H164345   0.991   2.581   5.002  0.5215  1.6436 -2.9644
14310TIP3    H264346   1.001   2.732   4.996 -2.0304  1.9558 -0.9089
14311TIP3   OH264347   6.035   2.470   3.296  0.4656  0.2789 -0.3389
14311TIP3    H164348   5.983   2.391   3.283  0.8443  0.0645 -0.6031
14311TIP3    H264349   6.095   2.471   3.220  0.7853  0.5603 -0.0853
14312TIP3   OH264350   1.587   1.564   4.623  0.5709  0.3161  0.4385
14312TIP3    H164351   1.552   1.648   4.594 -1.3702  1.1488  4.4335
14312TIP3    H264352   1.524   1.499   4.590 -0.6048  1.0111  1.2287
14313TIP3   OH264353   2.913   5.693   2.244  0.0266 -0.4072 -0.2714
14313TIP3    H164354   2.898   5.680   2.338 -1.5463 -0.3637 -0.4940
14313TIP3    H264355   2.991   5.748   2.240 -0.3779  0.3202  1.0441
14314TIP3   OH264356   0.191   1.447  16.758  0.2383 -1.0812  0.1196
14314TIP3    H164357   0.129   1.402  16.815  0.0206 -0.2164  0.5710
14314TIP3    H264358   0.163   1.538  16.757  1.4203 -0.6876  0.2484
14315TIP3   OH264359   6.051   0.113   6.361 -0.5923  0.1268 -0.2980
14315TIP3    H164360   5.982   0.102   6.426 -0.1943 -0.5545  0.0206
14315TIP3    H264361   6.103   0.033   6.367  0.0816  0.5191 -0.7091
14316TIP3   OH264362   6.446   2.408  16.147  0.3807  0.1812  0.3334
14316TIP3    H164363   6.419   2.378  16.234  1.9057 -0.0450  0.7678
14316TIP3    H264364   6.447   2.329  16.093 -1.7753  0.5033 -0.2765
14317TIP3   OH264365   5.696   6.663   1.900  0.0805 -0.2852 -0.0318
14317TIP3    H164366   5.714   6.609   1.977  1.3108  0.6580  0.3864
14317TIP3    H264367   5.610   6.700   1.916  1.2226  1.7354  2.0761
14318TIP3   OH264368   3.562   0.801  14.153  0.3916  0.3359 -0.7893
14318TIP3    H164369   3.485   0.813  14.209 -0.0324  2.1672 -1.6853
14318TIP3    H264370   3.598   0.890  14.143  2.1196 -0.3563 -1.1132
14319TIP3   OH264371   1.390   2.951  15.746 -0.2646  0.0564  0.5203
14319TIP3    H164372   1.441   3.028  15.720 -0.5150  0.5975  1.5543
14319TIP3    H264373   1.336   2.982  15.819 -0.3446 -1.1110  0.9779
14320TIP3   OH264374   0.975   3.304  14.219 -0.2665 -0.0136 -0.2850
14320TIP3    H164375   0.965   3.397  14.199 -1.1581 -0.0958 -0.2823
14320TIP3    H264376   0.906   3.286  14.283  1.3055 -0.1865  1.4176
14321TIP3   OH264377   5.709   3.372  12.043 -0.3549  0.4560  0.1161
14321TIP3    H164378   5.671   3.440  11.987 -0.6994 -0.5722 -0.9475
14321TIP3    H264379   5.792   3.409  12.073 -1.0185  1.7431  0.4097
14322TIP3   OH264380   5.210   1.049  13.088 -0.2709 -0.2389  0.1276
14322TIP3    H164381   5.227   0.956  13.071  2.3171  0.3917 -1.4179
14322TIP3    H264382   5.233   1.061  13.180  2.4800 -0.6557 -0.4046
14323TIP3   OH264383   1.782   1.952   3.183  0.0806  0.4846 -0.3205
14323TIP3    H164384   1.701   1.998   3.204  0.2541  0.8031 -0.3513
14323TIP3    H264385   1.759   1.898   3.107  0.4902  2.2991 -1.7932
14324TIP3   OH264386   0.952   3.375  15.883 -0.0091  0.4306 -0.2931
14324TIP3    H164387   0.980   3.446  15.825 -1.8419 -0.0237 -1.8712
14324TIP3    H264388   0.858   3.388  15.892 -0.3528 -1.6289 -0.4540
14325TIP3   OH264389   4.240   3.691   2.441 -0.1310 -0.1385 -0.0229
14325TIP3    H164390   4.232   3.757   2.372 -2.7666 -1.6584 -1.3081
14325TIP3    H264391   4.200   3.732   2.518  0.9774  0.8227  0.0639
14326TIP3   OH264392   4.882   3.996  12.167  1.0004  0.2686  0.6666
14326TIP3    H164393   4.819   3.932  12.201  1.3671  0.3458  1.5181
14326TIP3    H264394   4.853   4.013  12.078  0.5120 -0.5994  0.6430
14327TIP3   OH264395   6.474   0.571  15.325 -0.0364 -0.0669 -0.4271
14327TIP3    H164396   6.523   0.505  15.275  0.8643  0.5218 -0.3558
14327TIP3    H264397   6.516   0.571  15.411 -0.7838 -0.2056 -0.0577
14328TIP3   OH264398   4.106   6.364  12.654  0.2445  0.0620 -0.2624
14328TIP3    H164399   4.178   6.307  12.681  1.1090  2.1775  2.2216
14328TIP3    H264400   4.135   6.401  12.570  1.2293 -0.4910 -0.1829
14329TIP3   OH264401   0.367   5.637  12.935 -0.1032 -0.0408  0.0317
14329TIP3    H164402   0.324   5.578  12.872 -2.3246 -0.6551  1.9573
14329TIP3    H264403   0.305   5.709  12.945  0.7980  0.6693  0.5683
14330TIP3   OH264404   5.263   4.206   2.396 -0.0339  0.3433  0.9467
14330TIP3    H164405   5.206   4.183   2.323  0.7703 -0.6821  0.6096
14330TIP3    H264406   5.220   4.279   2.439 -1.6323 -0.4524  0.7490
14331TIP3   OH264407   3.466   0.370  10.664  0.5249  0.1301 -0.2006
14331TIP3    H164408   3.472   0.294  10.606 -0.3499  1.0116 -1.5109
14331TIP3    H264409   3.379   0.364  10.703 -0.8097  1.9396 -2.5990
14332TIP3   OH264410   6.654   4.212  12.224  1.0712  0.5381  0.2005
14332TIP3    H164411   6.652   4.117  12.227 -0.1453  0.4057 -2.3295
14332TIP3    H264412   6.568   4.237  12.190  2.6235  2.2257 -3.0271
14333TIP3   OH264413   4.703   0.091   1.604 -0.1456  0.4680 -0.1119
14333TIP3    H164414   4.716   0.024   1.671  0.7195 -1.0508 -1.7177
14333TIP3    H264415   4.773   0.155   1.621 -1.6946  1.7404  2.1723
14334TIP3   OH264416   2.290   1.494   2.051 -0.5531 -0.2355  0.5542
14334TIP3    H164417   2.356   1.564   2.057 -1.2584  0.3913  1.4812
14334TIP3    H264418   2.306   1.452   1.967  1.8678 -0.9508  1.3074
14335TIP3   OH264419   4.791   1.278   3.639  0.5860 -0.1572 -0.1011
14335TIP3    H164420   4.710   1.327   3.621 -0.3252 -1.8010 -0.6818
14335TIP3    H264421   4.824   1.316   3.720 -1.0858  0.1914  0.4601
14336TIP3   OH264422   2.885   4.533   3.586  0.2491  0.9205 -0.1484
14336TIP3    H164423   2.939   4.550   3.509 -0.3247 -1.0139 -1.0399
14336TIP3    H264424   2.935   4.470   3.638 -0.9838 -0.7602 -0.9014
14337TIP3   OH264425   4.222   2.187  16.692  0.0089  0.2234 -0.4238
14337TIP3    H164426   4.146   2.161  16.640 -0.1756 -1.0493  0.4298
14337TIP3    H264427   4.207   2.279  16.713 -0.9302  0.1840 -0.8759
14338TIP3   OH264428   6.373   2.185   0.736  0.1078 -0.4087 -0.0247
14338TIP3    H164429   6.305   2.118   0.726 -0.7875 -0.0393  2.5943
14338TIP3    H264430   6.437   2.166   0.668 -0.8651 -2.9928 -0.3069
14339TIP3   OH264431   0.948   0.677   6.186  0.1224 -0.5537 -0.1951
14339TIP3    H164432   1.024   0.722   6.222  1.1982 -0.9886 -1.8106
14339TIP3    H264433   0.953   0.588   6.220  1.0891 -0.9397 -1.2736
14340TIP3   OH264434   1.323   2.203   2.849 -0.4041  0.3822 -0.4144
14340TIP3    H164435   1.389   2.137   2.868 -0.3616  0.8937  1.4224
14340TIP3    H264436   1.346   2.236   2.762  2.0862  0.8696  0.3373
14341TIP3   OH264437   6.544   1.904  14.854 -0.2259  0.1425  0.0897
14341TIP3    H164438   6.509   1.849  14.784 -0.4617  0.4370 -0.0211
14341TIP3    H264439   6.613   1.955  14.813  0.0525 -0.1259  0.2122
14342TIP3   OH264440   4.874   5.138  11.813  0.1320  0.0223 -0.1206
14342TIP3    H164441   4.826   5.110  11.735 -0.1830  1.9618 -0.6773
14342TIP3    H264442   4.866   5.234  11.813 -0.0542  0.0685  2.4128
14343TIP3   OH264443   1.495   6.437  14.640  0.8410  0.1795  0.1773
14343TIP3    H164444   1.541   6.513  14.604 -0.0087  0.5545 -0.1477
14343TIP3    H264445   1.402   6.455  14.623  0.4895 -0.0871  1.7065
14344TIP3   OH264446   4.966   1.261   0.742  0.0329 -0.0570  0.0281
14344TIP3    H164447   5.057   1.273   0.712  0.0971  0.3906  0.3943
14344TIP3    H264448   4.951   1.333   0.802 -0.9970  0.6369 -1.0200
14345TIP3   OH264449   4.464   6.129   0.028 -0.4789  0.4285  0.0929
14345TIP3    H164450   4.487   6.062   0.091 -1.3525  0.6806  0.6942
14345TIP3    H264451   4.506   6.209   0.061 -0.0143  0.3298 -0.2494
14346TIP3   OH264452   2.900   1.316  14.720 -0.1346  0.1147 -0.6562
14346TIP3    H164453   2.910   1.241  14.661 -2.0492  0.0549 -0.9753
14346TIP3    H264454   2.968   1.304  14.786 -0.1182 -1.6700 -0.9532
14347TIP3   OH264455   2.665   4.143  13.182 -0.3357 -0.4561  0.0185
14347TIP3    H164456   2.748   4.100  13.200  0.0241  0.3992  0.4969
14347TIP3    H264457   2.680   4.235  13.206 -1.5042 -0.3418  0.3894
14348TIP3   OH264458   1.129   2.453  11.203  0.0776  0.5779  0.4008
14348TIP3    H164459   1.213   2.415  11.177 -0.0343 -0.8722  2.0077
14348TIP3    H264460   1.064   2.397  11.161 -0.0938  1.1599 -0.1151
14349TIP3   OH264461   5.337   1.142   2.932 -0.0736  0.2739  0.2738
14349TIP3    H164462   5.383   1.223   2.955 -3.6145  3.2309 -1.7211
14349TIP3    H264463   5.307   1.157   2.842 -0.2220 -3.7189 -0.5245
14350TIP3   OH264464   1.923   2.155  14.839  0.1106 -0.1569 -0.5949
14350TIP3    H164465   1.911   2.241  14.797 -0.7410 -0.2252 -0.5029
14350TIP3    H264466   1.838   2.111  14.829  0.5682 -1.0315 -0.7264
14351TIP3   OH264467   4.137   0.881  12.768 -0.4119  0.0699  0.0517
14351TIP3    H164468   4.170   0.853  12.853  0.1767  0.5413 -0.0127
14351TIP3    H264469   4.119   0.975  12.779 -0.2754  0.1473 -0.3598
14352TIP3   OH264470   1.358   2.940   6.123  0.6023 -0.2038 -0.5831
14352TIP3    H164471   1.394   2.915   6.208 -0.5874  1.5992  0.5080
14352TIP3    H264472   1.431   2.984   6.078  0.7651  0.3836  0.2265
14353TIP3   OH264473   6.741   3.537  16.389  0.4165  0.1348  0.5159
14353TIP3    H164474   6.776   3.448  16.395  2.5586  0.9126  0.7069
14353TIP3    H264475   6.664   3.536  16.446  1.3719 -1.1760  1.8868
14354TIP3   OH264476   2.011   6.310   3.179 -0.4552  0.0759 -0.3166
14354TIP3    H164477   1.949   6.294   3.250 -0.2191  1.6456  0.2733
14354TIP3    H264478   2.070   6.235   3.182 -1.0910 -0.4117  0.4442
14355TIP3   OH264479   1.129   2.540   3.429 -0.0195 -0.3166 -0.1340
14355TIP3    H164480   1.112   2.629   3.460  0.4363  0.0287 -0.8597
14355TIP3    H264481   1.186   2.502   3.497  0.8566  0.3866 -0.4581
14356TIP3   OH264482   3.313   1.556   5.734 -0.7667 -0.6588  0.0451
14356TIP3    H164483   3.351   1.514   5.657  0.9962  0.7712  0.0714
14356TIP3    H264484   3.271   1.485   5.782  0.9821 -2.1783 -0.5498
14357TIP3   OH264485   1.728   3.269  16.917 -0.1815  0.4287 -0.2982
14357TIP3    H164486   1.756   3.199  16.976 -1.9982 -1.6180 -1.6799
14357TIP3    H264487   1.808   3.316  16.895  0.8727 -0.2234  1.9092
14358TIP3   OH264488   4.594   2.368   0.590 -0.1032 -0.0578 -0.2418
14358TIP3    H164489   4.592   2.331   0.502 -0.2067 -0.5698 -0.0294
14358TIP3    H264490   4.594   2.292   0.648 -0.2518  0.2770  0.2063
14359TIP3   OH264491   5.990   6.103   4.785  0.2332  0.5434 -0.1791
14359TIP3    H164492   5.974   6.175   4.723  1.1936  1.1967  0.2985
14359TIP3    H264493   5.906   6.060   4.794 -0.1651  1.0747 -1.1541
14360TIP3   OH264494   2.818   5.350   1.954 -0.3664  0.5610 -0.2778
14360TIP3    H164495   2.824   5.327   1.861 -1.2869 -1.2249  0.0635
14360TIP3    H264496   2.730   5.321   1.980 -0.3261  1.5175  1.0445
14361TIP3   OH264497   1.725   1.800   2.948  0.5065  0.0340 -0.1957
14361TIP3    H164498   1.736   1.716   2.904  0.8188 -0.6525  1.1297
14361TIP3    H264499   1.646   1.838   2.909  0.1820 -1.0084 -0.5915
14362TIP3   OH264500   4.199   0.497  17.227 -0.2050 -0.4377 -0.1188
14362TIP3    H164501   4.270   0.481  17.165 -1.8406 -0.6797 -2.0266
14362TIP3    H264502   4.191   0.415  17.276  0.4186 -0.6257 -0.3236
14363TIP3   OH264503   3.453   0.857   3.277  0.1065 -0.6290 -0.1867
14363TIP3    H164504   3.393   0.784   3.296  0.5963 -1.2535 -0.9671
14363TIP3    H264505   3.540   0.822   3.297  0.3106 -0.1143 -0.1681
14364TIP3   OH264506   4.777   0.128   5.662  0.2296  0.5522 -0.5872
14364TIP3    H164507   4.691   0.096   5.688  0.2741  1.4534  0.8024
14364TIP3    H264508   4.760   0.211   5.618  0.3790  0.7331 -0.3096
14365TIP3   OH264509   2.469   6.747  15.416 -0.0516  0.0210 -0.0594
14365TIP3    H164510   2.505   6.658  15.426 -2.4359 -1.0248 -0.0356
14365TIP3    H264511   2.442   6.751  15.324 -0.8176  0.3652  0.1785
14366TIP3   OH264512   0.349   4.364  11.966 -0.4804 -0.0972  0.5469
14366TIP3    H164513   0.258   4.341  11.983 -0.1981  0.0018  2.3078
14366TIP3    H264514   0.391   4.361  12.051  0.5952  2.3866  0.1798
14367TIP3   OH264515   5.031   2.839   1.360 -0.0179  0.1143  0.6161
14367TIP3    H164516   5.069   2.759   1.396  1.6232  0.7227  0.2971
14367TIP3    H264517   4.937   2.831   1.380  0.1092 -1.8173  0.6967
14368TIP3   OH264518   3.104   1.866  10.786 -0.2424  0.4028 -0.9771
14368TIP3    H164519   3.110   1.824  10.872 -1.9218  0.5346 -0.7705
14368TIP3    H264520   3.183   1.920  10.781 -0.6356  1.2750  0.9739
14369TIP3   OH264521   1.753   5.104   0.209 -0.3052  0.1270 -0.1975
14369TIP3    H164522   1.829   5.137   0.257 -0.7123  0.8663 -0.0461
14369TIP3    H264523   1.688   5.173   0.218 -0.3766  0.3120 -1.8641
14370TIP3   OH264524   3.585   2.682  13.500 -0.2613  0.1596 -0.0936
14370TIP3    H164525   3.594   2.587  13.497  0.1247  0.1772  0.3988
14370TIP3    H264526   3.657   2.715  13.446 -0.8376  0.1611 -0.8811
14371TIP3   OH264527   2.403   2.698   0.495 -0.1537 -0.4738  0.0050
14371TIP3    H164528   2.464   2.735   0.559 -0.9719  0.2778  0.3620
14371TIP3    H264529   2.454   2.693   0.414  0.0873  1.1691  0.0234
14372TIP3   OH264530   2.850   2.513  14.695 -0.1057 -0.0785 -0.3391
14372TIP3    H164531   2.934   2.527  14.739 -0.7921  0.8593  0.7290
14372TIP3    H264532   2.785   2.543  14.758 -1.2469 -0.6794 -1.1988
14373TIP3   OH264533   5.632   2.220  16.241 -0.7047  0.5869  0.1623
14373TIP3    H164534   5.637   2.305  16.285 -0.2804  1.8608 -2.1739
14373TIP3    H264535   5.614   2.242  16.150  0.2601 -1.8134 -0.6775
14374TIP3   OH264536   2.006   1.866   4.831  0.1602 -0.4157  0.2209
14374TIP3    H164537   2.065   1.791   4.835  0.3317 -0.2410  1.7597
14374TIP3    H264538   1.949   1.856   4.908 -0.5581  0.4347 -0.1764
14375TIP3   OH264539   0.503   5.882   5.724  0.0353  0.3415  0.3574
14375TIP3    H164540   0.438   5.835   5.776 -0.5550  0.1623 -0.5212
14375TIP3    H264541   0.455   5.958   5.691  0.6669  0.9568  0.8327
14376TIP3   OH264542   4.973   4.146  11.766  0.1494  0.3625  0.3532
14376TIP3    H164543   5.041   4.113  11.825 -0.9689 -1.3587  0.7389
14376TIP3    H264544   4.903   4.175  11.824  1.0257  3.4476  0.0223
14377TIP3   OH264545   4.958   0.082   1.809 -0.2348  0.1502 -0.1043
14377TIP3    H164546   4.871   0.043   1.799  0.0674 -0.3916 -0.7108
14377TIP3    H264547   5.011   0.040   1.741  0.8383 -0.5391  1.1180
14378TIP3   OH264548   1.117   5.908  15.256 -0.2649 -0.3108 -0.6154
14378TIP3    H164549   1.100   5.924  15.163 -0.5700  1.0798 -0.3502
14378TIP3    H264550   1.032   5.918  15.298  0.4556  3.8031  0.3511
14379TIP3   OH264551   4.494   0.068   0.992  0.1381 -0.1447  0.2283
14379TIP3    H164552   4.547   0.021   0.928 -0.0137  0.2095 -0.1623
14379TIP3    H264553   4.456  -0.001   1.046 -0.9771 -0.5579 -1.0342
14380TIP3   OH264554   2.616   3.678  17.071  0.2978  0.2819 -0.1385
14380TIP3    H164555   2.689   3.663  17.011 -0.5004  0.5215 -1.1817
14380TIP3    H264556   2.585   3.590  17.094  1.5766  0.1214  1.2001
14381TIP3   OH264557   4.432   1.615  17.234  0.1182  0.3153  0.0869
14381TIP3    H164558   4.467   1.583  17.151 -0.4685  0.2158 -0.1267
14381TIP3    H264559   4.380   1.542  17.268  1.7881 -0.3011  1.4268
14382TIP3   OH264560   5.925   0.915  14.515  0.0942 -0.9146 -0.3909
14382TIP3    H164561   5.877   0.887  14.593 -2.3134  1.3698 -0.8983
14382TIP3    H264562   5.995   0.970  14.548 -1.7409  1.1873  0.2512
14383TIP3   OH264563   1.122   0.202   2.252  0.3668  0.7800  0.5495
14383TIP3    H164564   1.207   0.172   2.286 -0.4234 -1.4236  0.7772
14383TIP3    H264565   1.123   0.296   2.266  3.1028  0.9667 -0.2112
14384TIP3   OH264566   3.228   3.887   5.149 -0.3920  0.0704  0.6696
14384TIP3    H164567   3.318   3.915   5.131 -0.3143 -0.7426 -0.2920
14384TIP3    H264568   3.180   3.969   5.165  0.6145  0.4852  1.7282
14385TIP3   OH264569   2.177   1.852  16.592  0.7080 -0.3149 -0.4257
14385TIP3    H164570   2.174   1.904  16.512 -2.2092 -1.2627 -1.0483
14385TIP3    H264571   2.120   1.898  16.654  0.4974 -1.1898  0.0531
14386TIP3   OH264572   6.114   4.789  12.332 -0.1391 -0.3298  0.8338
14386TIP3    H164573   6.124   4.860  12.268 -0.8907 -0.3017  0.7384
14386TIP3    H264574   6.122   4.833  12.416 -0.7844 -0.0974  0.7778
14387TIP3   OH264575   0.823   2.834  13.314  0.3341 -0.3244  0.4527
14387TIP3    H164576   0.783   2.768  13.371  0.1402 -2.0343 -1.5413
14387TIP3    H264577   0.905   2.794  13.285  1.4510  1.3779  1.1016
14388TIP3   OH264578   3.315   3.501  10.866 -0.2843  0.4717  0.1230
14388TIP3    H164579   3.223   3.523  10.884 -0.4726 -0.5250  0.4433
14388TIP3    H264580   3.314   3.407  10.851  0.6992  0.4529  0.1343
14389TIP3   OH264581   3.525   6.347   3.295 -0.3446  0.2136 -0.0207
14389TIP3    H164582   3.607   6.342   3.344 -0.2157 -0.6113 -0.3017
14389TIP3    H264583   3.543   6.298   3.215 -0.8015  0.8866 -0.5396
14390TIP3   OH264584   0.324   2.277   5.286  0.1182  0.2034  0.4784
14390TIP3    H164585   0.376   2.251   5.362  3.2331 -0.0432 -1.5311
14390TIP3    H264586   0.369   2.355   5.253 -2.4237  1.5664  0.0319
14391TIP3   OH264587   5.052   5.852   3.350 -0.6610  0.1799 -0.2671
14391TIP3    H164588   4.979   5.905   3.319 -0.3201 -0.7760 -3.0162
14391TIP3    H264589   5.086   5.810   3.271  2.6040  0.2397  0.9636
14392TIP3   OH264590   4.459   4.916  13.019  0.2087 -0.0894 -0.0419
14392TIP3    H164591   4.391   4.963  12.972  0.0299 -0.3793 -0.0756
14392TIP3    H264592   4.520   4.984  13.047 -0.4119  0.2467  0.5191
14393TIP3   OH264593   0.449   1.376   2.842 -0.3738  0.2431  0.3469
14393TIP3    H164594   0.454   1.366   2.746  0.7156  0.8445  0.3166
14393TIP3    H264595   0.431   1.468   2.856  0.3252  0.3282  0.7274
14394TIP3   OH264596   4.735   3.132   4.786  0.1468  0.9246 -0.1565
14394TIP3    H164597   4.663   3.073   4.807  0.4719  0.3919 -0.5128
14394TIP3    H264598   4.697   3.200   4.730 -0.1315  0.8004 -0.1148
14395TIP3   OH264599   5.953   6.690   0.711  1.0277  0.1410 -0.4028
14395TIP3    H164600   5.947   6.673   0.805  1.2314  0.0803 -0.4014
14395TIP3    H264601   5.908   6.773   0.699 -0.4840 -0.6461 -0.4885
14396TIP3   OH264602   6.048   3.011  11.751  0.4513  0.3520 -0.3714
14396TIP3    H164603   6.025   3.098  11.720  1.4945  0.5626 -0.5716
14396TIP3    H264604   5.968   2.959  11.738 -0.3420  1.3864  0.2159
14397TIP3   OH264605   3.427   3.294  16.786 -0.9375 -0.1327 -0.4380
14397TIP3    H164606   3.412   3.320  16.878 -1.1226  0.4108 -0.6156
14397TIP3    H264607   3.425   3.377  16.738  0.2995 -0.2885 -0.7849
14398TIP3   OH264608   2.853   0.277   3.995 -0.4802 -0.0074 -0.7372
14398TIP3    H164609   2.936   0.285   3.948 -0.1241 -1.5176 -0.4313
14398TIP3    H264610   2.876   0.232   4.076 -1.3618  0.9981  0.0919
14399TIP3   OH264611   1.736   2.278  16.681  0.2415 -0.2093  0.2773
14399TIP3    H164612   1.807   2.257  16.741  0.4953 -0.0332  0.0363
14399TIP3    H264613   1.775   2.272  16.594 -0.0700 -0.2443  0.1363
14400TIP3   OH264614   4.174   4.347  12.722  0.2264  0.6521 -0.0287
14400TIP3    H164615   4.199   4.410  12.655 -2.0394  0.8930 -0.6961
14400TIP3    H264616   4.134   4.399  12.791  3.2629  0.5188  2.0200
14401TIP3   OH264617   5.998   6.253   2.805  0.0162 -0.2665  0.3977
14401TIP3    H164618   5.985   6.161   2.780 -1.2545 -0.3149  1.1853
14401TIP3    H264619   6.088   6.255   2.839  0.1594 -1.1524  0.1127
14402TIP3   OH264620   2.670   0.202  17.230  0.9298  0.6234 -0.2289
14402TIP3    H164621   2.704   0.115  17.250 -0.7396 -0.4361 -1.6391
14402TIP3    H264622   2.612   0.223  17.303  0.7166  0.1862 -0.2700
14403TIP3   OH264623   3.545   5.202  14.303  0.4135  0.6079 -0.6696
14403TIP3    H164624   3.625   5.247  14.275  1.0193 -0.7081 -1.1024
14403TIP3    H264625   3.521   5.147  14.228  0.4648 -0.8357  0.3423
14404TIP3   OH264626   5.190   3.922  12.386  0.6452  0.3493 -0.6653
14404TIP3    H164627   5.237   3.878  12.456 -0.3177  1.8095  0.9803
14404TIP3    H264628   5.100   3.926  12.416  0.3658  1.7699 -1.5676
14405TIP3   OH264629   1.618   5.497   1.313  0.0094 -0.1343 -0.5374
14405TIP3    H164630   1.660   5.509   1.398  0.7261 -0.9098 -0.7769
14405TIP3    H264631   1.526   5.519   1.328 -0.3325 -2.3691  0.9613
14406TIP3   OH264632   3.049   5.575  15.380  0.1779  0.1539 -0.2010
14406TIP3    H164633   3.090   5.549  15.463 -0.7925 -0.3739  0.1352
14406TIP3    H264634   3.063   5.501  15.322 -0.7043 -0.2479  0.0750
14407TIP3   OH264635   5.472   3.367   4.708 -0.0105  0.4264  0.1237
14407TIP3    H164636   5.480   3.308   4.783  0.4197  0.8309  0.4046
14407TIP3    H264637   5.468   3.454   4.746 -0.0972  0.6173 -0.3127
14408TIP3   OH264638   6.225   1.642  12.255 -0.0913  0.3817  0.2195
14408TIP3    H164639   6.137   1.673  12.275  0.2355  2.0669 -0.7340
14408TIP3    H264640   6.281   1.682  12.321  0.1665  0.8456 -0.2613
14409TIP3   OH264641   5.285   2.027   5.397 -0.2812  0.5174  0.1251
14409TIP3    H164642   5.258   1.947   5.440  0.7330  0.7071  1.1665
14409TIP3    H264643   5.380   2.031   5.411 -0.3483  2.0181  0.3045
14410TIP3   OH264644   4.908   4.705  11.300 -0.1808  0.2510  0.3468
14410TIP3    H164645   4.852   4.628  11.312  0.0868 -0.1934 -0.9910
14410TIP3    H264646   4.919   4.711  11.205  2.3957  0.0530  0.5615
14411TIP3   OH264647   5.938   2.290   0.845 -0.0338  0.1836  0.5657
14411TIP3    H164648   5.850   2.328   0.837 -0.9604 -2.2369 -2.5591
14411TIP3    H264649   5.997   2.363   0.825 -1.4573  1.2415  0.0070
14412TIP3   OH264650   1.764   1.802   4.709 -0.0922 -0.4643  0.1076
14412TIP3    H164651   1.846   1.844   4.733 -0.4777  0.1158  0.4266
14412TIP3    H264652   1.788   1.736   4.644  0.4140  0.7895 -1.0113
14413TIP3   OH264653   0.662   4.122  13.933  0.1763  0.4500  0.3546
14413TIP3    H164654   0.750   4.160  13.941  1.1995 -1.6395 -0.2657
14413TIP3    H264655   0.654   4.099  13.840 -0.8049  0.0886  0.5175
14414TIP3   OH264656   2.893   4.812  12.112  0.1408  0.2085  0.2663
14414TIP3    H164657   2.797   4.815  12.104  0.0551  1.5779  1.3165
14414TIP3    H264658   2.911   4.729  12.156 -0.6059  0.1109  0.3996
14415TIP3   OH264659   4.280   3.951   2.778  0.5364  0.0526 -0.0054
14415TIP3    H164660   4.303   3.961   2.686 -0.4076 -1.1551 -0.4021
14415TIP3    H264661   4.196   3.996   2.787  0.3058 -0.3871  0.0989
14416TIP3   OH264662   1.028   4.082  16.398 -0.4115  0.0029  0.0542
14416TIP3    H164663   0.986   4.143  16.458  0.2563 -0.2529  0.7976
14416TIP3    H264664   1.080   4.138  16.339 -0.5341  0.2078  0.1408
14417TIP3   OH264665   5.823   0.031   3.957  0.1467  0.4686  0.1207
14417TIP3    H164666   5.823  -0.023   3.878 -0.4269  0.8884 -0.1731
14417TIP3    H264667   5.733   0.060   3.966  0.5180  1.7072  0.0475
14418TIP3   OH264668   2.680   0.799  17.059 -0.5271 -0.1181 -0.1553
14418TIP3    H164669   2.713   0.722  17.106 -0.6044 -0.0826 -0.0401
14418TIP3    H264670   2.729   0.800  16.977  0.9139  0.8439  0.6732
14419TIP3   OH264671   4.470   5.591   6.843  0.3588  0.2056 -0.1934
14419TIP3    H164672   4.457   5.520   6.780 -0.4858  0.5558 -0.4349
14419TIP3    H264673   4.455   5.550   6.928 -3.5120  0.6834 -0.4340
14420TIP3   OH264674   1.342   1.988   5.209 -0.2791 -0.1493  0.1172
14420TIP3    H164675   1.397   1.911   5.194 -0.4235 -0.5095  1.3502
14420TIP3    H264676   1.395   2.061   5.178  0.2064 -0.6573 -0.2786
14421TIP3   OH264677   4.716   4.153  11.274  0.0867  0.0173 -0.5706
14421TIP3    H164678   4.687   4.217  11.209  2.0990  0.5889 -0.9931
14421TIP3    H264679   4.809   4.139  11.253  0.0382 -1.9959  0.3958
14422TIP3   OH264680   1.934   4.716  11.949  0.3399 -0.0926  0.3998
14422TIP3    H164681   1.964   4.739  11.861 -0.6086 -0.4876 -0.0464
14422TIP3    H264682   1.857   4.771  11.962  0.8395  0.4249  1.2495
14423TIP3   OH264683   2.554   3.982  13.421 -0.3014 -0.4014 -0.2469
14423TIP3    H164684   2.535   3.889  13.407  0.5198 -1.0125  2.2074
14423TIP3    H264685   2.553   4.020  13.333  0.0157 -2.8472 -1.3990
14424TIP3   OH264686   1.210   0.390  11.861  0.2775 -0.7213  0.2118
14424TIP3    H164687   1.283   0.329  11.872 -1.5968 -3.1296  0.2670
14424TIP3    H264688   1.133   0.333  11.856 -1.2709  1.3541 -3.8584
14425TIP3   OH264689   0.284   4.728  15.084  0.3901  0.3149 -0.3280
14425TIP3    H164690   0.256   4.777  15.006  0.7633  2.2285  0.6898
14425TIP3    H264691   0.207   4.677  15.109 -0.2880  1.0101 -0.9402
14426TIP3   OH264692   5.897   2.267  16.574 -0.3022  0.2278 -0.2804
14426TIP3    H164693   5.948   2.246  16.496 -1.3478  0.7941 -1.1349
14426TIP3    H264694   5.880   2.181  16.615  0.6477 -0.0270 -0.4059
14427TIP3   OH264695   3.071   0.966  16.645  0.4843 -0.2996  0.0594
14427TIP3    H164696   3.036   0.881  16.671  2.1932 -0.3346  2.6013
14427TIP3    H264697   3.164   0.950  16.632  0.3799  0.6522 -2.2661
14428TIP3   OH264698   1.073   3.766   1.636 -0.5289 -0.1885  0.5759
14428TIP3    H164699   1.104   3.744   1.724 -2.4683  2.0358  1.8946
14428TIP3    H264700   1.138   3.828   1.602  0.1520 -0.9527  0.4485
14429TIP3   OH264701   4.709   1.304  11.219  0.4867  0.7022 -0.1678
14429TIP3    H164702   4.754   1.388  11.211  0.1023  0.7367 -2.8274
14429TIP3    H264703   4.688   1.279  11.129 -0.3853 -1.7326  0.6237
14430TIP3   OH264704   3.668   4.742  10.754  0.4097  0.1212  0.4043
14430TIP3    H164705   3.646   4.653  10.728 -0.8151  0.6059 -0.2688
14430TIP3    H264706   3.728   4.731  10.827  2.6988 -1.2779 -1.5393
14431TIP3   OH264707   4.473   1.493   4.198 -0.2464  0.0945 -0.5485
14431TIP3    H164708   4.481   1.581   4.161 -0.9222 -0.0071 -0.9557
14431TIP3    H264709   4.485   1.505   4.292 -0.0780  0.5871 -0.6326
14432TIP3   OH264710   0.889   2.432  16.596  0.0735  0.5452 -0.4338
14432TIP3    H164711   0.890   2.341  16.625 -0.2809  0.4976 -0.5694
14432TIP3    H264712   0.799   2.448  16.566  0.2518  0.7933 -0.8605
14433TIP3   OH264713   4.730   3.790  12.039 -0.1521 -0.0106  0.1678
14433TIP3    H164714   4.647   3.836  12.049 -0.5960 -1.2016  2.4298
14433TIP3    H264715   4.709   3.698  12.057  1.0017 -0.9724 -2.7452
14434TIP3   OH264716   1.377   3.759   2.325 -0.5379 -0.1409 -0.6165
14434TIP3    H164717   1.385   3.766   2.420  3.5072  1.3874 -0.8933
14434TIP3    H264718   1.338   3.843   2.299  0.1853  0.2666 -0.4157
14435TIP3   OH264719   3.867   3.841   3.120 -0.1249 -0.5272 -0.2066
14435TIP3    H164720   3.845   3.903   3.189 -0.9725 -0.7921 -0.2237
14435TIP3    H264721   3.867   3.756   3.163  0.3191 -0.5898 -0.3292
14436TIP3   OH264722   0.558   4.814  16.819 -0.1375  0.0007  0.4416
14436TIP3    H164723   0.580   4.903  16.847  0.3346  0.1720 -0.4286
14436TIP3    H264724   0.623   4.794  16.752 -1.7392 -0.0547 -1.1625
14437TIP3   OH264725   3.095   6.666   5.697 -0.2831 -0.2567 -0.5584
14437TIP3    H164726   3.093   6.732   5.627  1.3137  0.7861  0.3306
14437TIP3    H264727   3.156   6.701   5.761 -1.3660 -1.4148  1.1750
14438TIP3   OH264728   6.724   1.652   6.489  0.3244 -0.0830 -0.3161
14438TIP3    H164729   6.783   1.579   6.508 -0.0975 -0.5834 -0.8890
14438TIP3    H264730   6.640   1.610   6.472 -0.2532  0.6322  0.6961
14439TIP3   OH264731   4.628   5.135  14.127 -0.0819  0.0196 -0.4736
14439TIP3    H164732   4.634   5.224  14.162 -0.5591 -0.0803 -0.1384
14439TIP3    H264733   4.563   5.141  14.057 -2.8653 -0.7816  1.8833
14440TIP3   OH264734   3.631   6.438  14.354 -0.4106  0.3747  0.0397
14440TIP3    H164735   3.617   6.499  14.281 -2.6105  1.5752  1.3470
14440TIP3    H264736   3.588   6.357  14.326  0.5096  0.1618 -0.7833
14441TIP3   OH264737   3.291   5.485   4.897  0.1690  0.5346  0.4233
14441TIP3    H164738   3.256   5.423   4.834  0.1899  2.1323 -1.2499
14441TIP3    H264739   3.324   5.431   4.968  2.1892 -1.5649 -1.9076
14442TIP3   OH264740   4.454   6.730  13.761 -0.2363 -0.0591  0.4744
14442TIP3    H164741   4.493   6.811  13.794  0.1260 -0.2060  0.4064
14442TIP3    H264742   4.371   6.758  13.723 -0.7418  0.1025  1.6362
14443TIP3   OH264743   6.147   4.027   1.999  0.7518 -0.0594  0.1309
14443TIP3    H164744   6.117   3.938   1.980  1.7051 -0.0380 -1.6712
14443TIP3    H264745   6.194   4.054   1.920  4.4923  0.3289  2.2424
14444TIP3   OH264746   5.935   0.345  16.187 -0.1813 -0.5093 -0.1002
14444TIP3    H164747   5.956   0.318  16.277  1.5728 -1.6972 -0.8109
14444TIP3    H264748   6.005   0.406  16.164 -0.5282 -0.3439 -0.7376
14445TIP3   OH264749   4.272   2.328  15.230  0.3452  0.5402 -0.2723
14445TIP3    H164750   4.242   2.297  15.145 -0.0931  0.7660 -0.2007
14445TIP3    H264751   4.212   2.288  15.293 -0.7183  2.1264 -0.2347
14446TIP3   OH264752   4.540   0.566   4.621  0.2237 -0.1901  0.2152
14446TIP3    H164753   4.604   0.534   4.685  0.2288  0.6355  0.6487
14446TIP3    H264754   4.476   0.613   4.674  0.5522  1.0385 -0.4247
14447TIP3   OH264755   2.724   6.505   1.565  0.2527  0.2309  0.0537
14447TIP3    H164756   2.646   6.561   1.573 -1.0855 -1.3867 -1.1139
14447TIP3    H264757   2.740   6.474   1.654 -0.5390  0.4445  0.2791
14448TIP3   OH264758   5.707   5.998  15.018 -0.1028  0.0200 -0.0227
14448TIP3    H164759   5.687   5.904  15.011  2.8013 -0.8184  1.5513
14448TIP3    H264760   5.751   6.019  14.936 -0.1870 -0.1397 -0.1106
14449TIP3   OH264761   6.731   1.468  10.692  0.6265 -0.3362 -0.4780
14449TIP3    H164762   6.763   1.540  10.638  0.0713  1.3160  1.3044
14449TIP3    H264763   6.807   1.444  10.746  0.5575 -0.4731 -0.4423
14450TIP3   OH264764   2.693   2.818  17.026  0.8455 -0.3429 -0.5411
14450TIP3    H164765   2.762   2.761  16.993  0.1205 -1.8459  0.4372
14450TIP3    H264766   2.682   2.792  17.118 -0.5451  0.3295 -0.4828
14451TIP3   OH264767   1.986   4.850  13.744  0.1892 -0.2253 -0.3892
14451TIP3    H164768   1.962   4.794  13.817  0.2138 -1.6997 -1.4621
14451TIP3    H264769   2.047   4.914  13.781 -2.1884  1.1185  1.5526
14452TIP3   OH264770   0.273   2.882   4.988  0.1872 -0.1170  1.1329
14452TIP3    H164771   0.274   2.831   4.907  0.3121 -0.3893  1.3051
14452TIP3    H264772   0.240   2.968   4.961 -0.4441 -0.4190  0.9249
14453TIP3   OH264773   3.093   2.748  11.894  0.5634 -0.2233 -0.1429
14453TIP3    H164774   3.172   2.789  11.928  0.7161  0.2184 -0.9935
14453TIP3    H264775   3.068   2.803  11.819 -1.4892  0.6462  1.0832
14454TIP3   OH264776   2.075   0.322  13.509  0.1995 -0.0447  0.1855
14454TIP3    H164777   2.151   0.277  13.471 -0.1496 -0.2458 -0.2836
14454TIP3    H264778   2.029   0.360  13.434 -0.5026 -0.4487  0.3967
14455TIP3   OH264779   4.947   6.067  12.259  0.2452  0.6769 -1.0432
14455TIP3    H164780   4.889   6.014  12.204  0.7718 -0.3558 -0.6348
14455TIP3    H264781   4.940   6.027  12.346  0.6608  1.2813 -0.7248
14456TIP3   OH264782   2.301   5.535  12.929  0.2699  0.6232 -0.0197
14456TIP3    H164783   2.368   5.486  12.977  0.6908  0.2800 -0.9356
14456TIP3    H264784   2.246   5.467  12.889  0.0895  0.9014 -0.2461
14457TIP3   OH264785   4.505   2.612   6.027 -0.8741  0.1785  0.0952
14457TIP3    H164786   4.504   2.679   5.959 -0.2107  0.0586 -0.0341
14457TIP3    H264787   4.453   2.540   5.991  0.4594 -0.3740 -0.7881
14458TIP3   OH264788   4.707   2.587  14.213 -0.2564 -0.2913  0.0399
14458TIP3    H164789   4.742   2.609  14.126 -1.0459  0.0989 -0.1827
14458TIP3    H264790   4.722   2.493  14.222  0.8275 -0.1413 -0.0592
14459TIP3   OH264791   1.444   6.014  12.992 -0.6055  0.0804  0.1948
14459TIP3    H164792   1.489   6.098  13.005 -1.5904  0.6162  0.2506
14459TIP3    H264793   1.467   5.962  13.068  3.0351 -1.1472 -1.5016
14460TIP3   OH264794   3.506   5.394  11.298  0.1061 -0.6705 -0.2386
14460TIP3    H164795   3.466   5.399  11.385 -2.3881 -1.0742 -1.2643
14460TIP3    H264796   3.578   5.331  11.308 -1.3178 -2.1880  1.1628
14461TIP3   OH264797   1.010   4.045   0.354  0.6405 -0.0198 -0.2403
14461TIP3    H164798   0.985   4.111   0.418 -0.5877 -1.8930  1.3017
14461TIP3    H264799   0.927   4.011   0.321  1.2310 -1.3496 -0.4091
14462TIP3   OH264800   0.969   5.792   4.954 -0.2815  0.3058  0.5163
14462TIP3    H164801   0.983   5.764   5.044  0.6987 -0.4185  0.1490
14462TIP3    H264802   0.943   5.712   4.908 -1.2791  0.7667  0.2474
14463TIP3   OH264803   3.647   5.768  11.482 -0.7716  0.5934 -0.3957
14463TIP3    H164804   3.684   5.687  11.445 -1.1542 -0.3430  1.1864
14463TIP3    H264805   3.694   5.838  11.437  1.3712 -0.5372 -0.0325
14464TIP3   OH264806   0.324   5.930   3.874 -0.1937 -0.0614  0.1377
14464TIP3    H164807   0.317   5.847   3.828  0.2568 -0.0583  0.0606
14464TIP3    H264808   0.315   5.907   3.967  2.4164 -0.5524  0.3400
14465TIP3   OH264809   4.398   3.054   1.241  0.1922  0.5141 -0.0595
14465TIP3    H164810   4.488   3.064   1.273  0.3230 -0.5325 -0.0578
14465TIP3    H264811   4.393   3.113   1.166  0.7956  0.7955  0.1136
14466TIP3   OH264812   2.978   1.092   1.793 -0.8007 -0.5587 -0.2582
14466TIP3    H164813   3.037   1.068   1.864 -0.6071 -1.7734 -0.7940
14466TIP3    H264814   2.963   1.186   1.804  2.3343  0.1244 -0.8932
14467TIP3   OH264815   3.648   3.655   4.563  0.1381  0.1803 -0.4348
14467TIP3    H164816   3.692   3.680   4.481 -1.8757  0.9405 -1.3608
14467TIP3    H264817   3.603   3.574   4.541  0.2023 -0.0124  0.1545
14468TIP3   OH264818   4.955   0.386  12.369  0.1178 -0.2095  0.2847
14468TIP3    H164819   4.916   0.433  12.295 -1.3853 -0.8731  0.6020
14468TIP3    H264820   5.038   0.431  12.386 -0.1696  0.8184 -0.9154
14469TIP3   OH264821   2.939   0.051   2.260 -0.3250 -0.3422  0.1717
14469TIP3    H164822   2.843   0.054   2.260 -0.3272 -0.3547  0.9430
14469TIP3    H264823   2.961   0.015   2.174 -0.9181  2.2235 -1.1813
14470TIP3   OH264824   6.243   0.247  15.804 -0.3804 -0.2840  0.4342
14470TIP3    H164825   6.279   0.310  15.743  0.1733 -0.5148  0.5153
14470TIP3    H264826   6.163   0.215  15.762 -0.1566 -0.2291 -0.0347
14471TIP3   OH264827   4.929   4.011  11.155 -0.0968 -0.4510 -0.5662
14471TIP3    H164828   4.909   3.918  11.169  1.2378 -0.6706 -0.0183
14471TIP3    H264829   5.024   4.015  11.146  0.4094  1.3282  3.5224
14472TIP3   OH264830   1.593   4.822   0.965 -0.1707  0.0344 -0.3344
14472TIP3    H164831   1.652   4.889   0.930  0.4331  0.0329  0.6180
14472TIP3    H264832   1.507   4.864   0.969 -0.0792  0.2912 -1.0337
14473TIP3   OH264833   2.357   4.530   3.588 -0.0913  0.2392  0.0185
14473TIP3    H164834   2.340   4.587   3.512 -1.7794  1.1036  0.9861
14473TIP3    H264835   2.446   4.553   3.615  0.2027  0.5658 -1.1610
14474TIP3   OH264836   0.772   1.722  12.385 -0.0784 -0.1438 -0.3051
14474TIP3    H164837   0.841   1.753  12.325 -1.1263 -0.5597 -1.7627
14474TIP3    H264838   0.766   1.628  12.368  1.0416 -0.6843  1.9883
14475TIP3   OH264839   3.388   4.515   2.190  0.2871  0.0045 -0.1318
14475TIP3    H164840   3.448   4.447   2.221  0.1977  0.3180  0.7850
14475TIP3    H264841   3.414   4.593   2.239  0.3276  0.6078 -1.1028
14476TIP3   OH264842   1.259   5.226   0.663  0.4219  0.2314  0.2185
14476TIP3    H164843   1.287   5.174   0.588  0.6123 -1.1195  1.1829
14476TIP3    H264844   1.340   5.257   0.703  0.3045  1.4612 -0.4551
14477TIP3   OH264845   1.514   0.948  14.805  0.0533  0.7873  0.8148
14477TIP3    H164846   1.446   0.882  14.819  1.1771 -0.3355  1.2061
14477TIP3    H264847   1.530   0.985  14.891  2.4352 -1.5476  1.5011
14478TIP3   OH264848   0.642   2.174   3.669  0.4143  0.1072  0.2379
14478TIP3    H164849   0.641   2.249   3.609 -0.8287  0.8973  1.2153
14478TIP3    H264850   0.666   2.099   3.613 -4.9179 -0.0940 -2.3683
14479TIP3   OH264851   4.356   6.113   2.626 -0.7004 -0.2653  0.9449
14479TIP3    H164852   4.304   6.170   2.569 -0.4795 -0.2351  0.7675
14479TIP3    H264853   4.405   6.058   2.565  0.1524  0.3198  1.0841
14480TIP3   OH264854   2.144   0.190  12.942 -0.5283  0.0683 -0.1366
14480TIP3    H164855   2.136   0.118  13.004 -2.6812  1.1233  0.9554
14480TIP3    H264856   2.132   0.150  12.856 -1.2548 -0.9426  0.4184
14481TIP3   OH264857   5.363   0.695   1.968 -0.3827  0.0211 -0.4921
14481TIP3    H164858   5.370   0.773   1.914 -0.0406 -0.7566 -1.6116
14481TIP3    H264859   5.453   0.669   1.986 -0.4653  0.7228  1.1979
14482TIP3   OH264860   3.230   2.398  16.440 -0.1448 -0.1862 -0.3823
14482TIP3    H164861   3.249   2.357  16.356 -1.1131 -1.1719 -0.1518
14482TIP3    H264862   3.145   2.440  16.428 -0.9297 -1.4742  0.4666
14483TIP3   OH264863   2.891   3.571  13.380 -0.4873  0.4417  0.1310
14483TIP3    H164864   2.925   3.642  13.435  1.9956 -0.2100 -0.4660
14483TIP3    H264865   2.923   3.491  13.421 -0.8985 -0.1981 -0.7637
14484TIP3   OH264866   6.691   0.254   2.680 -0.7080  0.6094  0.3675
14484TIP3    H164867   6.750   0.326   2.701 -0.0999  0.0771  0.5189
14484TIP3    H264868   6.657   0.226   2.765 -2.5582  2.0401  0.1547
14485TIP3   OH264869   5.685   5.407  12.307 -0.2866  0.5733  0.7010
14485TIP3    H164870   5.690   5.314  12.288 -2.4084  0.5264  0.1203
14485TIP3    H264871   5.661   5.412  12.400 -2.8909  0.3989  0.1081
14486TIP3   OH264872   6.175   2.536  10.580  0.4238 -0.1358  0.0821
14486TIP3    H164873   6.199   2.549  10.489 -0.9045 -0.7839 -0.3907
14486TIP3    H264874   6.145   2.445  10.584 -0.5225  0.1933  0.9284
14487TIP3   OH264875   4.461   3.156  15.321  0.2480  0.1356  0.1863
14487TIP3    H164876   4.437   3.067  15.349  1.5406 -0.3177 -0.0561
14487TIP3    H264877   4.556   3.153  15.312  0.1447  1.0098 -1.6486
14488TIP3   OH264878   6.430   4.060   0.391  0.2497  0.2515 -0.3891
14488TIP3    H164879   6.442   3.974   0.353 -0.9527  0.1363 -0.5340
14488TIP3    H264880   6.483   4.119   0.336  1.8480 -0.4950  0.2733
14489TIP3   OH264881   2.965   4.303  12.870 -0.7445 -0.6045  0.8611
14489TIP3    H164882   2.960   4.363  12.944  1.6681  0.8797 -0.0821
14489TIP3    H264883   3.030   4.237  12.896 -1.1830 -1.1075  0.7160
14490TIP3   OH264884   1.234   4.532   1.757 -0.1254  0.4961 -0.6607
14490TIP3    H164885   1.278   4.615   1.777  1.5022 -0.8652  2.0412
14490TIP3    H264886   1.294   4.487   1.697 -0.6721  0.9288 -1.5600
14491TIP3   OH264887   4.429   4.335   4.629 -0.4423  0.2414  0.2886
14491TIP3    H164888   4.405   4.266   4.691 -0.3010 -0.9976 -0.9608
14491TIP3    H264889   4.487   4.291   4.567 -1.4465  1.1187 -1.3449
14492TIP3   OH264890   6.081   0.361   4.391  0.1024 -0.8016  0.8958
14492TIP3    H164891   6.154   0.392   4.338 -0.4533 -1.6946 -0.4477
14492TIP3    H264892   6.071   0.427   4.460  0.3467  0.8274 -0.5620
14493TIP3   OH264893   0.114   0.479  16.033  0.0564  0.2230  0.1859
14493TIP3    H164894   0.167   0.495  15.955  0.3397 -1.8365 -0.0972
14493TIP3    H264895   0.134   0.388  16.058 -1.7739  0.0707  1.2954
14494TIP3   OH264896   4.888   1.958  16.955 -0.2405 -0.0082 -0.1734
14494TIP3    H164897   4.810   1.945  16.902  0.2917  2.2005 -1.6500
14494TIP3    H264898   4.883   1.891  17.024 -2.7839 -0.6577 -0.9103
14495TIP3   OH264899   2.521   5.637  16.904  0.1163 -0.0794 -0.2453
14495TIP3    H164900   2.498   5.706  16.841 -1.2988  1.3190  1.6875
14495TIP3    H264901   2.611   5.656  16.928  0.6584 -0.5884 -1.7356
14496TIP3   OH264902   4.212   1.833   5.507  0.0903  0.5649  0.4147
14496TIP3    H164903   4.139   1.894   5.496 -0.5689 -0.3843 -0.6083
14496TIP3    H264904   4.259   1.866   5.584 -0.4412  2.1532  0.0969
14497TIP3   OH264905   4.153   5.234   5.950 -0.1590 -0.2446  0.0099
14497TIP3    H164906   4.214   5.286   6.002  0.2232  1.0369 -1.6618
14497TIP3    H264907   4.114   5.173   6.013 -0.7756  2.1625  2.1211
14498TIP3   OH264908   3.980   2.827   5.024 -0.2204 -0.1567 -0.0434
14498TIP3    H164909   4.006   2.754   5.081 -0.6925  1.0141  1.7514
14498TIP3    H264910   3.886   2.837   5.039  0.1604  2.0271  1.2856
14499TIP3   OH264911   3.092   3.080  17.243  0.0877 -0.2692 -0.0296
14499TIP3    H164912   3.094   3.033  17.159  1.4486 -1.0337  0.4003
14499TIP3    H264913   3.086   3.010  17.309 -0.4153  0.3027  0.5400
14500TIP3   OH264914   5.989   1.406   5.246  0.0826 -0.0315  0.9056
14500TIP3    H164915   5.905   1.403   5.199  1.4783  0.4483 -1.7836
14500TIP3    H264916   6.052   1.370   5.184  2.1813  1.3719  2.1133
14501TIP3   OH264917   3.600   1.106   1.989 -0.0411 -0.0554  0.3583
14501TIP3    H164918   3.640   1.064   1.913 -1.3309 -0.1041 -0.3295
14501TIP3    H264919   3.651   1.186   2.002 -1.4328  1.4337 -2.3361
14502TIP3   OH264920   3.500   3.343  11.457 -0.0964  0.5848  0.0090
14502TIP3    H164921   3.474   3.415  11.399 -0.4638 -0.8357 -1.6445
14502TIP3    H264922   3.572   3.300  11.412  0.8828  0.5565  1.5190
14503TIP3   OH264923   3.980   6.674  12.723 -0.0190 -0.6685 -0.1946
14503TIP3    H164924   3.943   6.695  12.637  2.3719  2.2283 -0.7100
14503TIP3    H264925   4.008   6.759  12.758  1.2311 -2.0381  2.4072
14504TIP3   OH264926   5.232   4.368  16.495 -0.1138  0.0347 -0.2623
14504TIP3    H164927   5.156   4.318  16.524  0.7645 -1.1147  0.1172
14504TIP3    H264928   5.280   4.388  16.576  2.3758 -3.2189 -0.6970
14505TIP3   OH264929   4.214   5.916   5.686  0.0630 -0.2430 -0.2813
14505TIP3    H164930   4.217   5.847   5.620 -0.3814 -0.5939  0.0655
14505TIP3    H264931   4.140   5.893   5.742  1.1541 -0.5938  1.0620
14506TIP3   OH264932   1.457   4.425   3.273 -0.0685 -0.1611  0.9417
14506TIP3    H164933   1.440   4.442   3.180  1.8505 -0.7928  0.4290
14506TIP3    H264934   1.375   4.389   3.306 -0.3277 -1.3849 -0.8870
14507TIP3   OH264935   4.875   3.549   1.473  0.1770  0.0077 -0.1331
14507TIP3    H164936   4.914   3.603   1.542  1.7597  0.7595 -1.5398
14507TIP3    H264937   4.950   3.507   1.430 -0.5851  0.8189 -2.4124
14508TIP3   OH264938   4.866   1.509   1.666  0.4400  0.1072 -0.2664
14508TIP3    H164939   4.796   1.514   1.601  0.3693 -1.8164 -0.3927
14508TIP3    H264940   4.850   1.583   1.724 -1.3691  0.0354 -0.6219
14509TIP3   OH264941   0.241   3.560   5.589 -0.4392  0.5110 -0.3174
14509TIP3    H164942   0.292   3.616   5.647 -0.8239  1.1246 -0.5528
14509TIP3    H264943   0.306   3.515   5.536 -0.0705 -0.2597  0.7579
14510TIP3   OH264944   1.693   0.838  10.476 -0.3526  0.1967  0.0217
14510TIP3    H164945   1.634   0.824  10.401 -1.4887  1.4552  0.6354
14510TIP3    H264946   1.743   0.915  10.453  1.0095 -0.7883 -0.4302
14511TIP3   OH264947   4.825   3.756   2.479 -0.1976  0.6081  0.3722
14511TIP3    H164948   4.811   3.681   2.536 -0.4700  0.8293  0.5994
14511TIP3    H264949   4.790   3.831   2.528 -0.0055  0.8694  0.1142
14512TIP3   OH264950   3.488   1.958   4.881  0.2311  0.0596 -0.0694
14512TIP3    H164951   3.417   1.999   4.929  1.1936  0.5313  1.0028
14512TIP3    H264952   3.509   1.880   4.932  0.1120 -0.3845 -0.6910
14513TIP3   OH264953   0.903   5.659  12.201 -0.3642 -0.7970 -0.8676
14513TIP3    H164954   0.889   5.681  12.109 -0.6674 -0.7081 -0.8021
14513TIP3    H264955   0.996   5.674  12.216 -0.2666 -1.0414 -1.2228
14514TIP3   OH264956   3.595   5.868   4.620  0.0632  0.6111  0.1121
14514TIP3    H164957   3.542   5.896   4.545  0.5787  0.5830 -0.2732
14514TIP3    H264958   3.539   5.882   4.696  0.1979  2.4903 -0.0754
14515TIP3   OH264959   0.064   0.422  11.435  0.2871  0.2009  0.4616
14515TIP3    H164960   0.112   0.503  11.419 -0.8679  0.7553 -0.4038
14515TIP3    H264961  -0.008   0.425  11.372 -0.3892 -0.9967  1.1491
14516TIP3   OH264962   5.285   4.111  11.893  0.0246 -0.5338  0.1514
14516TIP3    H164963   5.280   4.056  11.971  0.3423  0.7353  1.1017
14516TIP3    H264964   5.315   4.196  11.926 -0.8959  0.3477 -1.1991
14517TIP3   OH264965   3.795   3.674  14.576  0.5116 -0.7607 -0.1933
14517TIP3    H164966   3.810   3.724  14.495  0.6542 -1.9964 -0.9593
14517TIP3    H264967   3.881   3.666  14.616  0.6936 -1.4169 -0.6999
14518TIP3   OH264968   2.366   0.964   5.297  0.6493 -0.3951  0.0460
14518TIP3    H164969   2.300   0.895   5.306  1.3027 -0.9159  1.0492
14518TIP3    H264970   2.327   1.040   5.339  0.4405 -0.5205  0.0816
14519TIP3   OH264971   4.549   1.282  14.886 -0.3248  0.3689 -0.0545
14519TIP3    H164972   4.590   1.198  14.864  1.4143  1.3157 -0.6202
14519TIP3    H264973   4.467   1.258  14.930  0.6888 -1.6434  0.8777
14520TIP3   OH264974   6.268   1.350  14.363 -0.0960  0.0437 -0.2743
14520TIP3    H164975   6.334   1.304  14.415 -0.4875 -0.9958 -0.6644
14520TIP3    H264976   6.196   1.287  14.355 -1.2820  1.2628  0.4109
14521TIP3   OH264977   4.701   1.872   2.278 -0.4185  0.4150  0.3648
14521TIP3    H164978   4.729   1.925   2.353  1.1163 -1.6248  1.3332
14521TIP3    H264979   4.762   1.896   2.208 -1.2322  1.5953  0.0184
14522TIP3   OH264980   6.618   1.536   4.492  0.3044  0.0737 -0.4250
14522TIP3    H164981   6.649   1.525   4.582 -0.1923  0.1474 -0.2469
14522TIP3    H264982   6.529   1.502   4.492  0.2494  0.2082 -0.8561
14523TIP3   OH264983   4.246   4.438   2.343  0.0746 -0.5666 -0.0986
14523TIP3    H164984   4.258   4.344   2.358  1.1557 -0.0729  2.9562
14523TIP3    H264985   4.158   4.456   2.377 -0.4495 -0.5764 -1.4204
14524TIP3   OH264986   0.939   4.554   0.683  0.6443  0.4204 -0.5741
14524TIP3    H164987   0.991   4.634   0.683  0.5335  0.4945 -0.7790
14524TIP3    H264988   0.848   4.584   0.674  0.6788  0.2351 -1.7427
14525TIP3   OH264989   0.118   2.509  16.070 -0.5660 -0.0509  0.1107
14525TIP3    H164990   0.104   2.417  16.096 -0.6812  0.6305  2.8471
14525TIP3    H264991   0.033   2.551  16.084 -0.5722  0.4442 -1.3386
14526TIP3   OH264992   2.249   5.978   5.077  0.3888  0.6241  0.0879
14526TIP3    H164993   2.251   6.045   5.146  1.1695  1.0520 -0.3435
14526TIP3    H264994   2.308   5.910   5.109 -1.0200 -0.2807  0.9114
14527TIP3   OH264995   1.935   5.966  14.791 -0.2808 -0.4675  0.4476
14527TIP3    H164996   1.840   5.971  14.800 -0.4557  1.5775 -1.6165
14527TIP3    H264997   1.969   6.025  14.858 -0.4403 -1.2754  1.2510
14528TIP3   OH264998   1.459   3.442   3.046 -0.2342 -0.4332  0.3660
14528TIP3    H164999   1.368   3.412   3.043 -1.0194  1.6943  0.8666
14528TIP3    H265000   1.478   3.451   3.139  1.3751 -3.1462  0.3947
14529TIP3   OH265001   4.534   0.098   2.559  0.3230 -0.4461  0.0882
14529TIP3    H165002   4.513   0.173   2.614 -0.2237 -0.6940  0.2220
14529TIP3    H265003   4.538   0.024   2.620 -0.4016 -0.7437 -0.2175
14530TIP3   OH265004   0.913   1.740  11.194 -0.4936 -0.5076 -0.6411
14530TIP3    H165005   0.948   1.651  11.192  1.6052  0.2621 -1.4010
14530TIP3    H265006   0.882   1.756  11.104  1.0438  0.1724 -1.0917
14531TIP3   OH265007   5.107   1.773  12.206  0.2858 -0.1435 -0.0242
14531TIP3    H165008   5.182   1.780  12.147 -0.3565  0.6481 -0.7678
14531TIP3    H265009   5.131   1.703  12.267  1.9034  0.5357  0.1602
14532TIP3   OH265010   1.477   0.748   6.382  0.5409  0.0759 -0.4158
14532TIP3    H165011   1.573   0.744   6.375  0.9036 -0.7122  3.0344
14532TIP3    H265012   1.459   0.837   6.410  0.2039  0.3373 -1.4434
14533TIP3   OH265013   5.222   6.414   4.051  0.3006  0.5766  0.9181
14533TIP3    H165014   5.312   6.405   4.019  0.3149  0.6849  0.9274
14533TIP3    H265015   5.214   6.346   4.119 -0.2211 -0.7229 -0.3900
14534TIP3   OH265016   1.579   6.524   3.596  0.0777  0.2351 -0.1699
14534TIP3    H165017   1.645   6.472   3.642 -1.7096 -1.4826  0.6000
14534TIP3    H265018   1.622   6.549   3.514  1.1822 -2.1408 -0.4078
14535TIP3   OH265019   6.460   0.105  11.816 -0.0086  0.1312 -0.4296
14535TIP3    H165020   6.450   0.191  11.856  3.1685 -0.1533  1.3004
14535TIP3    H265021   6.469   0.045  11.890 -1.4424 -1.6378 -1.6047
14536TIP3   OH265022   1.784   2.288   0.831 -0.2979  0.2823  0.3385
14536TIP3    H165023   1.706   2.245   0.866 -1.2896  0.4400 -1.5873
14536TIP3    H265024   1.851   2.273   0.898 -1.5904 -1.0766  1.3977
14537TIP3   OH265025   5.234   6.311  12.630  0.1740 -0.3607 -0.2656
14537TIP3    H165026   5.234   6.336  12.538  2.1499 -2.3200 -0.8853
14537TIP3    H265027   5.326   6.295  12.650 -0.3031 -0.7218  1.8526
14538TIP3   OH265028   1.586   4.105  16.234  0.3666 -0.3692  0.1474
14538TIP3    H165029   1.654   4.140  16.178  0.4632 -0.0810  0.4457
14538TIP3    H265030   1.633   4.051  16.298  0.1633 -1.7579 -0.8118
14539TIP3   OH265031   0.841   0.036   2.492  0.6018  0.4076  0.2595
14539TIP3    H165032   0.847  -0.058   2.509  0.8788  0.3839  0.0247
14539TIP3    H265033   0.930   0.068   2.501  1.1276  0.1172 -2.8004
14540TIP3   OH265034   2.556   4.718  12.811 -0.1150  0.3264  0.0001
14540TIP3    H165035   2.535   4.692  12.721  0.0943 -0.4608  0.1750
14540TIP3    H265036   2.596   4.805  12.802 -1.7230  1.0508 -0.5022
14541TIP3   OH265037   5.932   4.991  14.960  0.5178 -0.1243  0.0766
14541TIP3    H165038   5.968   5.076  14.987 -0.1641  0.6619 -1.3556
14541TIP3    H265039   6.002   4.950  14.910  1.2871 -0.9872  1.7572
14542TIP3   OH265040   2.297   4.047  11.613  0.8708 -0.3685 -0.1641
14542TIP3    H165041   2.359   4.096  11.559  1.4114 -3.0182 -2.1165
14542TIP3    H265042   2.310   3.956  11.589 -2.4312 -1.2478  0.7934
14543TIP3   OH265043   3.621   5.170  11.422  0.1259  0.5526  0.4881
14543TIP3    H165044   3.590   5.111  11.354  1.0754  1.1901 -0.5506
14543TIP3    H265045   3.593   5.130  11.504 -0.3269 -0.6731 -0.2390
14544TIP3   OH265046   6.257   5.120  12.053  0.0924 -0.1965 -0.2103
14544TIP3    H165047   6.285   5.037  12.014  1.5157  0.7849 -1.4158
14544TIP3    H265048   6.227   5.173  11.979  0.4573  0.8233  0.3450
14545TIP3   OH265049   3.393   2.859  11.717  0.0576  0.2309  0.1795
14545TIP3    H165050   3.411   2.943  11.676 -0.6328  0.9485  1.2810
14545TIP3    H265051   3.373   2.800  11.644 -0.5621  1.3159 -0.5591
14546TIP3   OH265052   0.677   1.535  11.547 -0.1290 -0.1653 -0.6112
14546TIP3    H165053   0.750   1.596  11.561  0.6424 -1.0691 -0.5954
14546TIP3    H265054   0.662   1.497  11.634 -0.5877 -0.0251 -0.6275
14547TIP3   OH265055   3.973   3.433   0.838 -0.0172 -0.0191 -0.4397
14547TIP3    H165056   3.920   3.354   0.827  0.7968 -1.1913  3.0132
14547TIP3    H265057   3.924   3.487   0.900  1.7595 -0.2226  1.2461
14548TIP3   OH265058   4.442   0.783  13.366 -0.1679 -0.0186 -0.3171
14548TIP3    H165059   4.480   0.698  13.347  0.1294  0.0162  0.1383
14548TIP3    H265060   4.370   0.765  13.426 -0.5892 -0.0317 -0.8159
14549TIP3   OH265061   5.586   3.832   0.252 -0.5534 -0.3737 -0.3788
14549TIP3    H165062   5.522   3.887   0.206 -1.0999 -0.7914 -0.1242
14549TIP3    H265063   5.658   3.892   0.273  0.8104 -0.6126 -3.7891
14550TIP3   OH265064   1.653   0.196  13.507  0.6563  0.6531  0.1167
14550TIP3    H165065   1.638   0.106  13.534 -0.2478  0.6130 -0.4460
14550TIP3    H265066   1.628   0.249  13.583  0.4090  0.4522  0.1781
14551TIP3   OH265067   3.431   0.748  16.273 -0.6293 -0.0175  0.2708
14551TIP3    H165068   3.461   0.810  16.207  1.2737 -0.6224  0.5267
14551TIP3    H265069   3.395   0.675  16.222 -0.4119  0.1106 -0.0701
14552TIP3   OH265070   1.955   1.176  10.806 -0.5673  0.4498 -0.1306
14552TIP3    H165071   1.995   1.246  10.858 -0.2373  0.7867 -0.8302
14552TIP3    H265072   1.873   1.214  10.774 -1.0338  0.0643  0.5519
14553TIP3   OH265073   3.296   3.161   1.603  0.2994 -0.1828  0.9204
14553TIP3    H165074   3.242   3.237   1.579 -0.9627 -0.8289  1.5936
14553TIP3    H265075   3.307   3.168   1.698 -0.3208 -1.1280  1.0784
14554TIP3   OH265076   5.334   4.059   5.758  0.3608 -0.2146 -0.5727
14554TIP3    H165077   5.396   4.132   5.765 -0.7110  0.6596  0.0080
14554TIP3    H265078   5.388   3.981   5.775  1.1732  0.5892  0.7766
14555TIP3   OH265079   6.519   1.668  16.859 -0.4806 -0.8953 -0.4873
14555TIP3    H165080   6.516   1.654  16.953 -2.8499  1.2358 -0.1457
14555TIP3    H265081   6.536   1.581  16.822  1.5714 -1.6001  1.8641
14556TIP3   OH265082   5.215   6.487   4.885 -0.2093 -0.0181 -0.3458
14556TIP3    H165083   5.122   6.509   4.873 -0.7870  0.1265  3.3160
14556TIP3    H265084   5.214   6.402   4.929  1.5569 -1.1226 -2.2595
14557TIP3   OH265085   0.847   6.759  16.493 -0.3159  0.6709  0.3235
14557TIP3    H165086   0.796   6.836  16.469 -1.6004  0.3172  1.7803
14557TIP3    H265087   0.890   6.783  16.575 -0.9779 -0.2491  0.9628
14558TIP3   OH265088   6.621   2.506   3.467 -0.4084  0.6774  0.0640
14558TIP3    H165089   6.645   2.420   3.500  0.7212 -1.2038 -4.7917
14558TIP3    H265090   6.692   2.563   3.496  1.4206 -1.1862 -0.5023
14559TIP3   OH265091   2.166   4.105   2.367  0.2149  0.3043  0.1575
14559TIP3    H165092   2.229   4.166   2.405 -0.5317  0.3145  1.4252
14559TIP3    H265093   2.210   4.071   2.289  0.8130  2.1368 -0.3619
14560TIP3   OH265094   5.814   3.479  14.478 -0.5123 -0.1962  0.2229
14560TIP3    H165095   5.793   3.491  14.571  1.1267 -1.0481  0.7482
14560TIP3    H265096   5.767   3.400  14.452 -1.7752  0.5936  0.0249
14561TIP3   OH265097   1.617   3.745   4.212 -0.3906 -0.6656  0.6444
14561TIP3    H165098   1.677   3.671   4.220 -1.0395 -1.3285 -0.3242
14561TIP3    H265099   1.554   3.732   4.283 -1.0056 -1.5595 -0.0306
14562TIP3   OH265100   3.331   0.706  13.494 -0.1778  0.0874  0.3992
14562TIP3    H165101   3.311   0.634  13.554 -2.5815 -0.6093 -1.0962
14562TIP3    H265102   3.264   0.771  13.512  0.9716  1.2517  0.5707
14563TIP3   OH265103   2.246   4.469  11.680  0.0012  0.2637  0.5520
14563TIP3    H165104   2.188   4.519  11.738 -2.1563 -0.2505 -1.0275
14563TIP3    H265105   2.233   4.378  11.706  1.6320  0.2685  1.4561
14564TIP3   OH265106   5.221   4.695  14.651 -0.0709 -0.3054  0.4383
14564TIP3    H165107   5.214   4.599  14.656  0.8648 -0.3251  3.7330
14564TIP3    H265108   5.132   4.724  14.632 -0.3505 -1.7862 -0.7598
14565TIP3   OH265109   5.466   6.247  12.233  0.2762 -0.0521 -0.3194
14565TIP3    H165110   5.473   6.153  12.221  1.5914  0.0635 -0.5352
14565TIP3    H265111   5.475   6.284  12.145 -0.8233  0.2659 -0.3214
14566TIP3   OH265112   5.740   4.111  15.396  0.0259  0.2890 -0.5103
14566TIP3    H165113   5.799   4.057  15.449  1.4863  0.5431 -1.7771
14566TIP3    H265114   5.652   4.084  15.422  0.6425  0.4103  2.0033
14567TIP3   OH265115   3.540   1.164   4.609  0.4651  0.5284  0.0132
14567TIP3    H165116   3.492   1.088   4.579  0.8955 -0.4413  1.6633
14567TIP3    H265117   3.631   1.147   4.584  0.3408  1.2566 -1.0045
14568TIP3   OH265118   2.341   2.586   1.034  0.0632  0.0053 -0.4041
14568TIP3    H165119   2.345   2.568   1.127  0.7060 -1.2101 -0.6490
14568TIP3    H265120   2.299   2.672   1.028  0.7855  0.4906  1.0347
14569TIP3   OH265121   3.088   5.843   0.429  0.7787 -0.2895  0.2419
14569TIP3    H165122   3.088   5.930   0.469 -1.1356  0.1438 -0.6039
14569TIP3    H265123   3.005   5.804   0.457  1.1817 -1.4891 -0.1753
14570TIP3   OH265124   2.823   0.904  16.809  0.1994  0.1374 -0.0362
14570TIP3    H165125   2.895   0.963  16.828  1.3066 -0.7530 -1.2526
14570TIP3    H265126   2.864   0.827  16.769 -1.0949 -1.7915  2.0500
14571TIP3   OH265127   2.586   6.648   0.949  0.0601 -0.0928  0.0277
14571TIP3    H165128   2.497   6.623   0.971  0.5259 -1.4900  0.4435
14571TIP3    H265129   2.598   6.618   0.859 -0.6370  2.2632 -0.9053
14572TIP3   OH265130   2.108   5.312  14.316  0.6225 -0.3412  0.0028
14572TIP3    H165131   2.198   5.324  14.284  0.6297  1.4551  0.5997
14572TIP3    H265132   2.081   5.399  14.346 -0.7496 -1.1777  1.3422
14573TIP3   OH265133   1.071   4.460   5.054  0.1886  0.1020  0.0384
14573TIP3    H165134   1.159   4.437   5.083 -0.2881  0.5076  1.9474
14573TIP3    H265135   1.019   4.460   5.135 -1.1685  1.6746 -0.7927
14574TIP3   OH265136   0.621   5.231  14.567  0.0079 -0.0639  0.4007
14574TIP3    H165137   0.533   5.221  14.532 -0.4772  3.3471  0.2915
14574TIP3    H265138   0.612   5.217  14.661 -0.5195 -0.3890  0.2997
14575TIP3   OH265139   0.433   6.454  12.885  0.1378 -0.2892 -0.0401
14575TIP3    H165140   0.505   6.500  12.929  1.6678 -1.2390 -1.4409
14575TIP3    H265141   0.369   6.523  12.866  0.8944  0.6716  0.7862
14576TIP3   OH265142   3.649   6.185  13.964  0.3163 -0.3865  0.1009
14576TIP3    H165143   3.742   6.182  13.988 -0.0321 -0.7751  1.5033
14576TIP3    H265144   3.615   6.100  13.992 -0.4636 -0.2501 -0.4120
14577TIP3   OH265145   5.525   2.143  13.859  0.3589  0.3985 -0.6651
14577TIP3    H165146   5.529   2.129  13.953  1.2268  0.6228 -0.6611
14577TIP3    H265147   5.616   2.157  13.833  0.2139 -0.4080 -1.6586
14578TIP3   OH265148   2.319   5.941   1.163 -0.2388 -0.3176 -0.4037
14578TIP3    H165149   2.358   5.872   1.109  0.5844 -0.5997  0.5215
14578TIP3    H265150   2.229   5.911   1.179  0.1572 -1.2577  0.1163
14579TIP3   OH265151   5.656   2.075   3.046 -0.2396 -0.2694 -0.0944
14579TIP3    H165152   5.730   2.133   3.027 -0.8636  0.4240 -0.4721
14579TIP3    H265153   5.609   2.068   2.963 -0.9956 -0.1111  0.3071
14580TIP3   OH265154   4.079   4.562  16.560  0.0206 -0.3403  0.5964
14580TIP3    H165155   4.017   4.511  16.611  0.6004 -1.8341 -0.1265
14580TIP3    H265156   4.165   4.532  16.590  0.3714 -0.0925 -0.1286
14581TIP3   OH265157   3.592   6.298  12.481 -0.5145 -0.2477 -0.1836
14581TIP3    H165158   3.685   6.311  12.461 -0.9792  0.3478 -2.2146
14581TIP3    H265159   3.561   6.242  12.409 -1.6180 -0.8629  0.7519
14582TIP3   OH265160   4.104   4.753   3.212 -0.0698 -0.3282  0.3075
14582TIP3    H165161   4.105   4.725   3.303 -0.8795 -3.5518 -0.5382
14582TIP3    H265162   4.064   4.680   3.165 -0.8328  1.7270 -2.5028
14583TIP3   OH265163   1.243   0.885  17.088  0.0612  0.6080  0.1086
14583TIP3    H165164   1.337   0.878  17.106  0.2234  0.7147 -0.6808
14583TIP3    H265165   1.220   0.973  17.119 -0.1046  0.0385  1.6887
14584TIP3   OH265166   3.692   2.306   5.914 -0.0394 -1.0927 -0.0064
14584TIP3    H165167   3.732   2.385   5.950 -0.6937 -0.8506  0.2037
14584TIP3    H265168   3.601   2.310   5.941 -0.1553 -1.7678 -0.2577
14585TIP3   OH265169   1.962   0.452   3.884  0.4498 -0.0657  0.4615
14585TIP3    H165170   1.888   0.510   3.905  0.0853 -0.5948  0.6604
14585TIP3    H265171   1.999   0.489   3.804  0.1919  0.4153  0.5590
14586TIP3   OH265172   2.157   3.867   5.557  0.0015 -0.0887  0.2023
14586TIP3    H165173   2.244   3.870   5.598  0.5728  0.7164 -1.0264
14586TIP3    H265174   2.172   3.820   5.475 -0.7940 -0.1653  0.0979
14587TIP3   OH265175   2.729   3.136   3.938 -0.0114 -0.2569 -0.3601
14587TIP3    H165176   2.757   3.218   3.898 -0.7916 -0.4761 -1.4164
14587TIP3    H265177   2.696   3.084   3.864 -0.1532 -1.2516  0.3850
14588TIP3   OH265178   5.681   1.333   0.862 -0.3646 -0.5152  0.2474
14588TIP3    H165179   5.775   1.331   0.876 -0.2294  0.7854 -0.2902
14588TIP3    H265180   5.668   1.399   0.793 -1.7579  0.2120  1.1469
14589TIP3   OH265181   1.771   5.386   3.790  0.0071  0.0052 -0.4457
14589TIP3    H165182   1.687   5.362   3.752 -0.0009 -0.7402  0.0309
14589TIP3    H265183   1.763   5.480   3.810  0.3368  0.6881 -3.1159
14590TIP3   OH265184   0.046   2.265   0.269  0.6721  0.6939 -0.1113
14590TIP3    H165185   0.039   2.299   0.358 -2.1775 -0.7229  0.3370
14590TIP3    H265186   0.022   2.338   0.213 -1.3214  0.6465  0.5853
14591TIP3   OH265187   2.630   4.257   2.244  0.3388 -0.2014 -0.2482
14591TIP3    H165188   2.611   4.234   2.153  0.9034  0.8042 -0.6373
14591TIP3    H265189   2.715   4.217   2.262 -0.0482 -0.9159  0.0503
14592TIP3   OH265190   0.183   5.174   0.657  0.2243 -0.2093  0.2203
14592TIP3    H165191   0.091   5.192   0.677  0.5098  2.1634 -0.2304
14592TIP3    H265192   0.202   5.231   0.583  1.7682 -1.5379 -0.4463
14593TIP3   OH265193   2.981   5.675  16.824 -0.9107 -0.1007 -0.2233
14593TIP3    H165194   2.931   5.609  16.872  0.5529 -1.1399 -0.0400
14593TIP3    H265195   2.972   5.755  16.877 -0.9652 -0.7113  0.7191
14594TIP3   OH265196   2.152   4.251  17.033  0.5042  0.0292 -0.2434
14594TIP3    H165197   2.202   4.333  17.027 -1.8059  1.5182 -0.3886
14594TIP3    H265198   2.219   4.183  17.044  2.4596  2.0735  1.5599
14595TIP3   OH265199   2.101   4.587   3.061 -0.0393  0.2641  0.2460
14595TIP3    H165200   2.073   4.587   2.970  1.0349 -1.2726 -0.1154
14595TIP3    H265201   2.040   4.529   3.106 -0.4598  0.8796  0.4835
14596TIP3   OH265202   0.534   5.097  16.276  0.6322 -0.8469  0.1153
14596TIP3    H165203   0.610   5.041  16.259  1.2026 -1.1223  3.0869
14596TIP3    H265204   0.463   5.037  16.298  0.2521 -0.4943 -0.1241
14597TIP3   OH265205   4.464   3.121   5.983  0.3230  0.6067 -0.2299
14597TIP3    H165206   4.499   3.195   5.935 -0.1829  0.6243 -0.5814
14597TIP3    H265207   4.407   3.160   6.050 -0.5194  0.5244 -0.8805
14598TIP3   OH265208   3.396   2.254  12.737  0.1610  0.1784 -0.0573
14598TIP3    H165209   3.410   2.192  12.809 -0.2777  1.7065  1.4262
14598TIP3    H265210   3.303   2.278  12.744  0.2880  0.8782 -0.6883
14599TIP3   OH265211   3.632   4.348   5.943  0.1152 -0.2796  0.3892
14599TIP3    H165212   3.705   4.385   5.894  1.2886 -1.5970  1.0992
14599TIP3    H265213   3.657   4.358   6.035 -0.0390 -1.7912  0.6226
14600TIP3   OH265214   2.335   6.037   4.831  0.1421 -0.4243  0.2200
14600TIP3    H165215   2.288   5.999   4.906 -0.5914 -0.5399 -0.2863
14600TIP3    H265216   2.418   6.067   4.868 -0.0705 -0.7766  1.0163
14601TIP3   OH265217   0.299   2.589  14.018  0.0722 -0.1018  0.3151
14601TIP3    H165218   0.226   2.529  14.032 -0.3145  0.6340  1.6762
14601TIP3    H265219   0.277   2.637  13.939 -0.3984 -0.6232  0.1238
14602TIP3   OH265220   3.158   0.894   6.649 -0.0532 -0.0455  0.4935
14602TIP3    H165221   3.176   0.863   6.737 -1.6882 -0.9168  0.5628
14602TIP3    H265222   3.210   0.973   6.640  2.8182 -1.7349  0.9933
14603TIP3   OH265223   1.765   2.857   5.027 -0.4192  0.0720 -0.0023
14603TIP3    H165224   1.807   2.815   5.102 -0.1451  0.0822 -0.1482
14603TIP3    H265225   1.798   2.809   4.951 -0.1525  0.5035 -0.1669
14604TIP3   OH265226   3.136   4.471   5.304  0.2880  0.1762 -0.1512
14604TIP3    H165227   3.130   4.524   5.383 -0.9999  0.1951 -0.2398
14604TIP3    H265228   3.206   4.408   5.322  0.8221  0.9545  0.5224
14605TIP3   OH265229   4.641   1.589   4.831  0.8845  0.2278  0.5772
14605TIP3    H165230   4.707   1.587   4.900  1.5294 -0.7524 -0.0329
14605TIP3    H265231   4.628   1.497   4.808  0.1674  0.4928 -0.1121
14606TIP3   OH265232   4.286   6.481   2.849  0.4034  0.3371  0.5646
14606TIP3    H165233   4.196   6.506   2.870  0.1111 -1.0270  1.0479
14606TIP3    H265234   4.277   6.417   2.778  0.9522 -0.1698  0.9450
14607TIP3   OH265235   1.976   0.994  11.816 -0.3127  0.3262  0.4041
14607TIP3    H165236   2.056   1.044  11.834 -1.9685  3.1597  0.5652
14607TIP3    H265237   2.006   0.906  11.797  2.7355  0.9550  1.7358
14608TIP3   OH265238   2.632   4.772  12.044  0.2167  0.4068  0.0645
14608TIP3    H165239   2.548   4.807  12.073  0.5625  1.6208 -0.3415
14608TIP3    H265240   2.623   4.678  12.054 -0.7854  0.5870  1.1159
14609TIP3   OH265241   5.649   5.597  12.567 -0.2609  0.1351 -0.1195
14609TIP3    H165242   5.648   5.642  12.651 -0.8818 -0.3188  0.1244
14609TIP3    H265243   5.740   5.570  12.554 -0.1258  0.4000  0.3028
14610TIP3   OH265244   4.799   3.273   3.732 -0.0650 -0.0031 -0.3374
14610TIP3    H165245   4.847   3.299   3.811 -1.6053 -0.0005  0.6272
14610TIP3    H265246   4.736   3.208   3.762  0.7665 -1.6389 -1.9642
14611TIP3   OH265247   5.257   4.082  15.632 -0.7056 -0.6901 -0.0594
14611TIP3    H165248   5.256   3.986  15.634 -1.6752 -0.6831  1.9947
14611TIP3    H265249   5.164   4.106  15.629 -0.4884  0.1928  0.2451
14612TIP3   OH265250   6.546   4.717  15.818  0.1008 -0.0408  0.4769
14612TIP3    H165251   6.631   4.675  15.829  0.7413  1.4182  1.3803
14612TIP3    H265252   6.528   4.710  15.724  1.8782  0.8233  0.0271
14613TIP3   OH265253   4.604   4.985  11.625  0.2582 -0.6402  0.5895
14613TIP3    H165254   4.569   5.061  11.671  1.7133  0.5362 -0.1517
14613TIP3    H265255   4.600   4.914  11.690 -1.2577 -0.0034  1.2507
14614TIP3   OH265256   6.052   4.596  12.553 -0.8999 -0.3772  0.2019
14614TIP3    H165257   6.025   4.681  12.589 -0.4060 -0.7985  1.6333
14614TIP3    H265258   6.090   4.550  12.627 -0.8345 -1.7243 -0.6419
14615TIP3   OH265259   6.140   4.224  13.215 -0.7237  0.2990 -0.9164
14615TIP3    H165260   6.167   4.294  13.275  0.1714  0.8287 -1.9141
14615TIP3    H265261   6.165   4.143  13.259  2.9397  0.7332 -1.8973
14616TIP3   OH265262   5.668   4.981  11.100 -0.0649  0.3803  0.6268
14616TIP3    H165263   5.577   4.963  11.079 -0.2573 -1.3679  2.6633
14616TIP3    H265264   5.708   4.895  11.110  2.0348  1.0794 -0.9123
14617TIP3   OH265265   0.553   4.442   1.900  0.3590 -0.0434 -0.3288
14617TIP3    H165266   0.577   4.533   1.881 -2.5845  0.9556  0.2524
14617TIP3    H265267   0.581   4.429   1.991 -0.5279  0.8443  0.1005
14618TIP3   OH265268   1.211   3.251   6.286 -0.1814  0.4009  0.1736
14618TIP3    H165269   1.266   3.181   6.321  1.9799  1.3947 -0.9933
14618TIP3    H265270   1.263   3.331   6.299 -1.1876  1.3542 -1.3312
14619TIP3   OH265271   3.414   4.290   3.223  0.1270  0.2326 -0.0777
14619TIP3    H165272   3.473   4.221   3.255 -0.2692  0.0306  0.2139
14619TIP3    H265273   3.426   4.288   3.128  0.8044  0.3845 -0.0016
14620TIP3   OH265274   3.999   1.525  14.232 -0.4092 -0.3119 -0.2047
14620TIP3    H165275   3.968   1.435  14.243 -3.0659  0.4215 -0.9356
14620TIP3    H265276   4.079   1.516  14.181  0.9806 -2.3697  2.0661
14621TIP3   OH265277   1.340   4.571   3.841  0.1848  0.4228  0.0100
14621TIP3    H165278   1.291   4.610   3.913 -3.4428 -1.2485 -1.3200
14621TIP3    H265279   1.381   4.493   3.878  0.0987  0.6937  0.6868
14622TIP3   OH265280   1.141   0.955  13.794  0.0910 -0.3902  0.1481
14622TIP3    H165281   1.110   0.986  13.879 -2.1130 -0.7257 -0.4539
14622TIP3    H265282   1.177   1.033  13.751  0.7026 -0.1066  1.1612
14623TIP3   OH265283   4.600   4.858  12.697 -0.1237 -0.8019 -0.4654
14623TIP3    H165284   4.515   4.897  12.719  0.7364  0.9544 -0.1256
14623TIP3    H265285   4.605   4.864  12.602  0.7421  1.6424 -0.3173
14624TIP3   OH265286   4.142   1.944   1.322 -0.0341 -0.5448 -0.0117
14624TIP3    H165287   4.187   1.860   1.316  1.2856  0.1557 -0.2570
14624TIP3    H265288   4.191   1.993   1.388 -0.4127  0.2425 -0.3009
14625TIP3   OH265289   3.734   0.663  14.007  0.3212  0.0360  0.5305
14625TIP3    H165290   3.719   0.694  13.918 -0.5042 -0.3907  0.5119
14625TIP3    H265291   3.700   0.733  14.063  1.6946  0.7289  0.5390
14626TIP3   OH265292   5.249   3.670   0.058  0.3100  0.0253  0.2779
14626TIP3    H165293   5.173   3.658   0.115 -0.3821 -0.6661 -0.7739
14626TIP3    H265294   5.213   3.673  -0.031  1.4595  0.2307 -0.1979
14627TIP3   OH265295   1.405   0.563  13.959  0.5042  0.3208 -0.1230
14627TIP3    H165296   1.393   0.468  13.968 -1.3852  0.5840  0.4687
14627TIP3    H265297   1.493   0.579  13.994  0.8224 -1.1938 -0.1592
14628TIP3   OH265298   2.290   0.581   4.834  0.0816 -0.1056  0.4168
14628TIP3    H165299   2.240   0.530   4.771  1.3759  1.7299 -2.3189
14628TIP3    H265300   2.310   0.520   4.905 -0.6517 -2.5908 -1.3885
14629TIP3   OH265301   3.764   4.558   2.794  0.0908  0.1276 -0.8607
14629TIP3    H165302   3.700   4.586   2.859  0.2451  0.7911 -0.9886
14629TIP3    H265303   3.741   4.606   2.715  1.0417  0.7657 -0.7689
14630TIP3   OH265304   4.289   6.402   6.191 -0.0183 -0.0689 -0.2999
14630TIP3    H165305   4.227   6.337   6.159  0.7937 -1.9349  1.6987
14630TIP3    H265306   4.300   6.382   6.284 -0.1145  3.3043  0.5784
14631TIP3   OH265307   6.424   3.486  14.578  0.1402  0.0976  0.2446
14631TIP3    H165308   6.341   3.509  14.620 -0.2405  1.7362 -1.2805
14631TIP3    H265309   6.460   3.569  14.549  2.2636 -0.6049  0.7191
14632TIP3   OH265310   4.795   4.125  16.368  0.1155 -0.0222  0.1610
14632TIP3    H165311   4.819   4.065  16.298  1.2231 -0.2639  0.7180
14632TIP3    H265312   4.879   4.147  16.411 -0.5518 -0.1933  1.6305
14633TIP3   OH265313   3.140   4.595  12.622  0.7734  0.3190 -0.3881
14633TIP3    H165314   3.181   4.534  12.561 -0.2647  0.6131 -1.4266
14633TIP3    H265315   3.050   4.562  12.633  0.5069  1.0895 -0.1762
14634TIP3   OH265316   1.667   2.238  13.927  0.0736 -0.1190  0.1217
14634TIP3    H165317   1.606   2.311  13.935  1.4759  1.2953 -1.5993
14634TIP3    H265318   1.614   2.167  13.890 -1.0213  0.3477  0.7332
14635TIP3   OH265319   6.716   2.249   1.143 -0.5387  0.1065  0.0787
14635TIP3    H165320   6.671   2.203   1.214  0.3461 -2.3354 -0.8141
14635TIP3    H265321   6.705   2.192   1.067  3.4126 -0.3934 -0.3591
14636TIP3   OH265322   6.385   4.695   4.822 -0.2743 -0.1816  0.5432
14636TIP3    H165323   6.295   4.664   4.836 -0.3219 -1.3269 -1.8233
14636TIP3    H265324   6.418   4.641   4.751  1.3752  2.0498 -0.5050
14637TIP3   OH265325   2.962   3.974   2.107  0.0817  0.1790 -0.2893
14637TIP3    H165326   3.050   3.945   2.130  1.5164  2.3720 -2.5583
14637TIP3    H265327   2.953   3.950   2.015 -2.9077 -2.5329  0.5158
14638TIP3   OH265328   5.057   2.402  16.069 -0.0735  0.9604  0.3886
14638TIP3    H165329   5.080   2.311  16.085 -0.3260  1.3486  3.6482
14638TIP3    H265330   5.106   2.426  15.990  0.6580 -1.7221 -0.0563
14639TIP3   OH265331   2.869   6.745  14.786 -0.2569 -0.0374 -0.2113
14639TIP3    H165332   2.922   6.823  14.768  0.1865 -0.1385  0.6051
14639TIP3    H265333   2.834   6.759  14.874  0.7351 -1.2391  0.4121
14640TIP3   OH265334   3.200   3.407   1.454 -0.0016 -0.1386  0.3611
14640TIP3    H165335   3.170   3.358   1.378 -0.0648 -0.0383  0.3213
14640TIP3    H265336   3.145   3.485   1.456 -1.7815 -1.3678  2.0196
14641TIP3   OH265337   1.423   4.326  16.201 -0.9688  0.3880  0.5844
14641TIP3    H165338   1.477   4.246  16.199 -1.3857  0.0563  1.7581
14641TIP3    H265339   1.487   4.397  16.198 -0.5486  0.0061  0.2711
14642TIP3   OH265340   4.806   4.619   5.524  0.5402 -0.4278  0.0540
14642TIP3    H165341   4.830   4.693   5.579  2.6997 -0.6549 -0.5044
14642TIP3    H265342   4.773   4.554   5.585  0.7309  0.1676  0.8127
14643TIP3   OH265343   0.555   1.765  11.210  0.2034 -0.2004  0.1371
14643TIP3    H165344   0.575   1.700  11.142 -0.5718 -0.1798 -0.1221
14643TIP3    H265345   0.484   1.725  11.261 -0.7321  0.6959 -0.4191
14644TIP3   OH265346   1.880   0.478   6.416  0.7920 -0.1772 -0.2427
14644TIP3    H165347   1.806   0.418   6.411  0.3801  0.1401  1.5338
14644TIP3    H265348   1.847   0.561   6.383  1.0910 -0.6339 -1.7854
14645TIP3   OH265349   2.617   1.955   3.509  0.7465  0.1922  0.0700
14645TIP3    H165350   2.670   1.967   3.430  1.4159  4.7244  0.9522
14645TIP3    H265351   2.681   1.935   3.577  0.4490 -1.0196  0.0308
14646TIP3   OH265352   6.605   0.006  14.566 -0.4195  0.3316 -0.3682
14646TIP3    H165353   6.616   0.100  14.577  3.3267 -0.2768  3.8288
14646TIP3    H265354   6.686  -0.023  14.524 -0.2952 -1.2413  0.8839
14647TIP3   OH265355   2.898   2.421   5.218 -0.4425  0.0107  0.1859
14647TIP3    H165356   2.870   2.330   5.221 -1.1880  0.2245  3.5203
14647TIP3    H265357   2.824   2.468   5.179 -0.3024 -0.6877 -0.9684
14648TIP3   OH265358   2.390   4.596   5.402  0.1434  0.2998 -0.1609
14648TIP3    H165359   2.337   4.558   5.331  3.2004 -0.7802 -2.0627
14648TIP3    H265360   2.364   4.547   5.479  0.3071 -2.2111 -1.5858
14649TIP3   OH265361   5.807   6.401  16.442  0.2362 -0.5762 -0.0175
14649TIP3    H165362   5.780   6.417  16.351  1.9354 -1.6495 -0.7481
14649TIP3    H265363   5.873   6.332  16.436  0.9800 -0.0978  1.9710
14650TIP3   OH265364   5.723   4.062   4.105  0.2002 -0.6656  0.3892
14650TIP3    H165365   5.700   4.129   4.041  1.7362 -0.9101 -0.4562
14650TIP3    H265366   5.676   4.088   4.185 -2.0372 -0.5414 -0.8783
14651TIP3   OH265367   0.732   2.322   4.433 -0.0299  0.1616 -0.0947
14651TIP3    H165368   0.744   2.288   4.522  0.2152  2.8183  0.9996
14651TIP3    H265369   0.819   2.323   4.395 -0.1544 -1.1125 -0.4519
14652TIP3   OH265370   5.096   0.031  13.333 -0.1301  0.2413 -0.1806
14652TIP3    H165371   5.007   0.020  13.298 -0.1080  3.2434 -1.5213
14652TIP3    H265372   5.141  -0.051  13.312 -2.4843 -1.2822  0.3827
14653TIP3   OH265373   1.076   1.513  12.592  0.0216 -0.0683 -0.3294
14653TIP3    H165374   1.133   1.512  12.669 -1.2589  3.1285  0.8508
14653TIP3    H265375   1.000   1.460  12.617 -0.3542  0.8955  0.6690
14654TIP3   OH265376   0.864   3.878  15.906  0.6945 -0.3344  0.0005
14654TIP3    H165377   0.820   3.899  15.988 -0.3366  0.9119 -0.8335
14654TIP3    H265378   0.950   3.921  15.912  0.9145 -0.8589  0.7025
14655TIP3   OH265379   4.679   3.817   0.514 -0.4634  0.1250 -0.0254
14655TIP3    H165380   4.713   3.820   0.603 -1.7797 -0.9825  0.5700
14655TIP3    H265381   4.605   3.878   0.514  0.2767  1.0574 -0.7410
14656TIP3   OH265382   4.950   6.138   3.992 -0.0577 -0.5620 -0.1682
14656TIP3    H165383   4.886   6.173   3.930  0.4182  0.2167 -0.2320
14656TIP3    H265384   5.015   6.093   3.937 -0.6555 -1.5440 -0.0879
14657TIP3   OH265385   5.121   6.294  12.908  0.1502  0.1651 -0.1168
14657TIP3    H165386   5.174   6.334  12.838 -0.0798  1.6736  0.5293
14657TIP3    H265387   5.177   6.299  12.986 -0.4029  0.4703  0.2655
14658TIP3   OH265388   6.206   3.264   1.428 -0.0421  0.0932  0.6260
14658TIP3    H165389   6.155   3.307   1.498  0.0881  0.2870  0.6027
14658TIP3    H265390   6.216   3.332   1.361 -0.1328 -0.0806  0.4345
14659TIP3   OH265391   1.634   5.249   6.398 -0.2272 -0.0789  0.2622
14659TIP3    H165392   1.553   5.300   6.387 -0.4352 -0.6491 -1.0194
14659TIP3    H265393   1.609   5.176   6.455 -0.0612  0.9022  1.6545
14660TIP3   OH265394   1.061   6.164   2.759 -0.3271  0.1811 -0.2049
14660TIP3    H165395   1.035   6.079   2.722  0.1501 -0.1358  0.1750
14660TIP3    H265396   0.985   6.220   2.745 -0.3528 -0.0832 -1.1772
14661TIP3   OH265397   5.675   6.593   1.634 -0.0592 -0.2033  0.0027
14661TIP3    H165398   5.674   6.612   1.728  0.0900 -0.6180  0.0893
14661TIP3    H265399   5.583   6.599   1.607 -0.0289  0.5152  0.0497
14662TIP3   OH265400   0.675   2.801   1.389 -0.0430 -0.1958  0.0595
14662TIP3    H165401   0.607   2.733   1.392  0.1302 -0.4733 -1.7231
14662TIP3    H265402   0.757   2.753   1.394  0.3271  0.2412  6.0071
14663TIP3   OH265403   3.843   5.831  16.764 -0.4624 -0.2699  0.3178
14663TIP3    H165404   3.903   5.808  16.693 -0.1636  0.5553  0.2916
14663TIP3    H265405   3.898   5.833  16.842 -0.2428  1.4041  0.1525
14664TIP3   OH265406   5.663   5.163   0.489 -0.1654 -0.6226  0.2588
14664TIP3    H165407   5.595   5.228   0.471  0.9230  0.5804  0.3492
14664TIP3    H265408   5.668   5.159   0.585  0.3611 -0.1822  0.2548
14665TIP3   OH265409   0.516   3.839   6.530  0.4002  0.6646  0.3614
14665TIP3    H165410   0.512   3.744   6.522 -1.6038  0.7116  0.4298
14665TIP3    H265411   0.557   3.868   6.449  0.7313 -0.2315  0.1998
14666TIP3   OH265412   3.084   5.209  16.080  0.4363  0.2579  0.4388
14666TIP3    H165413   3.173   5.243  16.085  0.3474  0.4504  0.7676
14666TIP3    H265414   3.071   5.188  15.988  0.7578  0.3988  0.3605
14667TIP3   OH265415   1.131   0.106   0.637  0.1009 -0.1377 -0.2050
14667TIP3    H165416   1.122   0.057   0.556  0.3144 -0.2608 -0.1533
14667TIP3    H265417   1.060   0.074   0.692 -0.0238 -0.0781 -0.3306
14668TIP3   OH265418   0.441   6.442   5.029 -0.0865  0.0252  0.1052
14668TIP3    H165419   0.371   6.424   5.092 -0.9361  0.6347 -0.6516
14668TIP3    H265420   0.455   6.537   5.035 -1.1799  0.3282 -1.6328
14669TIP3   OH265421   5.723   4.227   6.374 -0.4828  0.7049 -0.4609
14669TIP3    H165422   5.639   4.250   6.334  0.1902 -0.9819 -3.1015
14669TIP3    H265423   5.789   4.269   6.318  0.4702  0.6736  0.6084
14670TIP3   OH265424   3.949   3.236  12.623  0.0752 -0.1734 -0.2807
14670TIP3    H165425   3.879   3.259  12.684 -0.2372 -0.4712 -0.5231
14670TIP3    H265426   3.925   3.149  12.591  0.3349 -0.0963 -0.6880
14671TIP3   OH265427   5.089   0.705  13.275  0.0504  0.4630 -0.1898
14671TIP3    H165428   5.036   0.632  13.241  3.1194 -0.9151 -2.4984
14671TIP3    H265429   5.136   0.667  13.349 -1.3508  1.3984  1.2366
14672TIP3   OH265430   4.449   5.153   3.164 -0.0558  0.1643 -0.3348
14672TIP3    H165431   4.490   5.239   3.156 -0.4023  0.5677  1.5904
14672TIP3    H265432   4.367   5.161   3.116  0.4586  0.5106 -1.1746
14673TIP3   OH265433   0.562   4.631  13.273 -0.2300  0.2172  0.0510
14673TIP3    H165434   0.517   4.654  13.355 -1.6152  1.0634 -0.9047
14673TIP3    H265435   0.630   4.698  13.263  0.7179 -0.5501  1.0494
14674TIP3   OH265436   2.664   6.227  15.439 -0.0541 -0.3276  0.0278
14674TIP3    H165437   2.664   6.271  15.524 -0.9543  1.2731 -0.7558
14674TIP3    H265438   2.699   6.140  15.457  1.7823  0.6756  1.6573
14675TIP3   OH265439   4.153   0.736   4.381 -0.7151 -0.6013  0.4433
14675TIP3    H165440   4.190   0.766   4.298 -1.4771 -2.9428 -0.8442
14675TIP3    H265441   4.191   0.649   4.394 -2.3061 -1.2108  1.3780
14676TIP3   OH265442   5.116   6.084  13.262 -0.6899 -0.0155  0.1129
14676TIP3    H165443   5.196   6.040  13.234 -1.0139 -1.4991  1.3959
14676TIP3    H265444   5.082   6.030  13.333 -2.5071  0.9111  0.0146
14677TIP3   OH265445   1.562   3.646  15.541  0.0213  0.7141 -0.5397
14677TIP3    H165446   1.624   3.716  15.564  0.5774  0.3226 -0.8141
14677TIP3    H265447   1.502   3.642  15.615  1.9111 -0.6867  1.0311
14678TIP3   OH265448   6.518   1.945   0.111  0.2297  0.5966  0.0920
14678TIP3    H165449   6.563   1.964   0.193 -1.1051  0.7720  0.8147
14678TIP3    H265450   6.497   1.851   0.116 -0.4206  0.7411  0.2704
14679TIP3   OH265451   3.576   6.253   5.812  0.4769  0.1561 -0.5368
14679TIP3    H165452   3.648   6.297   5.855  0.0012  0.7881 -0.3759
14679TIP3    H265453   3.509   6.244   5.880 -0.0163  0.5513 -0.9672
14680TIP3   OH265454   5.646   2.466  16.346 -0.3525 -0.3125 -0.2543
14680TIP3    H165455   5.712   2.531  16.323 -0.7737  0.0550 -0.4496
14680TIP3    H265456   5.643   2.467  16.442 -1.9941  1.6873 -0.2356
14681TIP3   OH265457   2.937   3.117   5.486 -0.4115  0.2191 -0.0681
14681TIP3    H165458   2.901   3.046   5.433 -1.3333  0.2976  0.4185
14681TIP3    H265459   2.954   3.187   5.424  0.2470 -0.3282 -0.5156
14682TIP3   OH265460   1.145   2.146  15.014  0.1726  0.7554  0.2152
14682TIP3    H165461   1.130   2.131  15.108 -0.0295  2.7656  0.5664
14682TIP3    H265462   1.062   2.122  14.973 -0.0166  0.6233  0.6660
14683TIP3   OH265463   5.903   5.956  12.939  0.3022  0.2717 -0.7504
14683TIP3    H165464   5.895   5.871  12.896  0.5268 -0.5066  0.7161
14683TIP3    H265465   5.872   5.942  13.028 -1.4531  2.1906 -0.9979
14684TIP3   OH265466   6.355   0.691   1.926 -0.5096 -0.5470  0.0828
14684TIP3    H165467   6.332   0.610   1.973 -1.0945  0.0524  0.8466
14684TIP3    H265468   6.272   0.721   1.888 -0.3711 -0.0667  0.1652
14685TIP3   OH265469   0.343   2.632   1.492  0.1809 -0.2663 -0.5230
14685TIP3    H165470   0.259   2.588   1.480  0.1858 -0.3336 -0.3158
14685TIP3    H265471   0.397   2.602   1.418  0.5366 -1.4404  0.1914
14686TIP3   OH265472   2.122   3.481  12.060 -0.0060  0.3124 -0.0577
14686TIP3    H165473   2.072   3.446  11.987  1.0604  0.9354 -1.1418
14686TIP3    H265474   2.059   3.532  12.111 -1.3858 -2.3965  1.0822
14687TIP3   OH265475   0.814   6.771  17.208  0.2122  0.1315 -0.5524
14687TIP3    H165476   0.910   6.763  17.205  0.1692 -1.0037  0.2610
14687TIP3    H265477   0.795   6.793  17.299 -0.2726  0.9184 -0.8389
14688TIP3   OH265478   4.728   5.125   2.963 -0.0076  0.0449 -0.3389
14688TIP3    H165479   4.654   5.144   3.020  0.0156 -0.4589 -0.1319
14688TIP3    H265480   4.728   5.029   2.955  0.6030  0.0408 -0.3545
14689TIP3   OH265481   4.740   2.741   5.173 -0.2933 -0.0756  1.1125
14689TIP3    H165482   4.708   2.691   5.098  1.0641 -0.0650  0.4868
14689TIP3    H265483   4.813   2.689   5.207  1.5043  1.6439  0.1254
14690TIP3   OH265484   6.256   6.694  12.193  0.0390 -0.4271 -0.3633
14690TIP3    H165485   6.326   6.704  12.129  0.0518 -0.7517 -0.4008
14690TIP3    H265486   6.282   6.619  12.247  0.0178 -0.1751  0.0073
14691TIP3   OH265487   4.240   0.588   4.694  0.5918 -0.3068  0.3893
14691TIP3    H165488   4.172   0.521   4.700  0.6204 -0.3780 -0.0580
14691TIP3    H265489   4.269   0.600   4.784  1.1828 -1.5173  0.3832
14692TIP3   OH265490   3.661   5.406   2.245 -0.1527  0.7151 -0.4263
14692TIP3    H165491   3.573   5.373   2.264 -0.6307  2.7284  1.2473
14692TIP3    H265492   3.699   5.341   2.185 -2.6143 -0.4030 -0.8903
14693TIP3   OH265493   0.657   2.754  13.025  0.0698  0.2280  0.1002
14693TIP3    H165494   0.751   2.774  13.025  0.2753 -0.5808  1.4174
14693TIP3    H265495   0.616   2.835  13.056  0.0429  1.4723 -2.8862
14694TIP3   OH265496   4.240   0.931   1.975 -0.0340  0.1124  0.2570
14694TIP3    H165497   4.216   1.022   1.958  1.7423  0.5794  0.0833
14694TIP3    H265498   4.291   0.905   1.898 -1.9678 -1.6400 -0.5499
14695TIP3   OH265499   6.760   2.284   3.630  0.1265 -0.2299 -0.6005
14695TIP3    H165500   6.777   2.193   3.654  2.2910  0.8926  2.6894
14695TIP3    H265501   6.728   2.325   3.711  0.5642  2.2521 -1.5956
14696TIP3   OH265502   3.283   1.530  16.239 -0.1401 -0.1237 -0.6654
14696TIP3    H165503   3.233   1.528  16.320  2.6828 -0.7127  1.1919
14696TIP3    H265504   3.318   1.619  16.234  1.2462 -0.6145 -0.1601
14697TIP3   OH265505   2.590   2.672  14.874 -0.0130 -0.4693 -0.4306
14697TIP3    H165506   2.672   2.646  14.915  0.4639 -0.0339 -1.0873
14697TIP3    H265507   2.524   2.656  14.941  0.5495 -1.2080 -0.0293
14698TIP3   OH265508   4.743   4.923  12.061 -0.5306  1.0390 -0.1511
14698TIP3    H165509   4.809   4.993  12.056 -1.1163  1.8119  1.9150
14698TIP3    H265510   4.793   4.842  12.049  0.5744  1.6815 -0.0298
14699TIP3   OH265511   2.997   6.315  11.169 -0.2831  0.3098  0.2568
14699TIP3    H165512   3.077   6.359  11.144  1.1404 -2.0409  0.3967
14699TIP3    H265513   2.960   6.283  11.087 -0.9712  1.1586  0.2209
14700TIP3   OH265514   1.522   0.908  12.532 -0.0158  0.6019 -0.2604
14700TIP3    H165515   1.493   0.887  12.443  0.5044  1.6283 -0.6911
14700TIP3    H265516   1.558   0.997  12.525 -0.5482  0.9448  1.1129
14701TIP3   OH265517   2.136   1.928  16.339  0.2071 -0.1289  0.0387
14701TIP3    H165518   2.089   1.933  16.256  2.0860 -0.5568 -1.1194
14701TIP3    H265519   2.189   2.008  16.342  1.4179 -0.9041 -0.0062
14702TIP3   OH265520   5.829   1.786  15.346 -0.0762 -0.1290 -0.2746
14702TIP3    H165521   5.831   1.825  15.433  1.0421 -0.9739  0.0883
14702TIP3    H265522   5.907   1.820  15.302  1.5091 -2.6250  0.3888
14703TIP3   OH265523   6.296   1.507  17.100  0.3232 -0.1617  0.0034
14703TIP3    H165524   6.257   1.534  17.182  1.2687 -0.9193  0.7367
14703TIP3    H265525   6.386   1.541  17.104  0.5052 -0.5680 -0.5164
14704TIP3   OH265526   2.455   3.295  11.618  0.2684  0.2586  0.5767
14704TIP3    H165527   2.409   3.342  11.688  0.2057  2.2765 -0.7071
14704TIP3    H265528   2.471   3.363  11.552 -0.6743 -1.7585 -1.8631
14705TIP3   OH265529   5.721   5.781  11.670 -0.5862  0.3130 -0.4467
14705TIP3    H165530   5.762   5.866  11.652 -0.4315  0.1695 -0.7916
14705TIP3    H265531   5.767   5.720  11.612  0.5782 -0.3488  1.1124
14706TIP3   OH265532   4.114   4.568  14.830  0.3537  0.5478 -0.3469
14706TIP3    H165533   4.143   4.478  14.846 -0.8524  0.1400 -0.3928
14706TIP3    H265534   4.196   4.617  14.818  1.0185 -0.7120 -1.2334
14707TIP3   OH265535   0.470   6.105  12.422  0.2091  0.2464 -0.3393
14707TIP3    H165536   0.466   6.086  12.515 -0.3868 -0.1841 -0.4430
14707TIP3    H265537   0.547   6.161  12.411  0.4087  0.1135  0.3743
14708TIP3   OH265538   6.497   4.688  17.025  0.8069 -0.6555 -0.0753
14708TIP3    H165539   6.408   4.662  17.050 -0.9987  1.1560 -3.8051
14708TIP3    H265540   6.517   4.762  17.082  0.3105 -1.5825  1.3549
14709TIP3   OH265541   4.390   0.157  12.414  0.0270 -0.2462  0.2058
14709TIP3    H165542   4.401   0.130  12.505  0.3202  0.8113  0.4941
14709TIP3    H265543   4.417   0.080  12.363 -0.4254 -0.9440  1.0052
14710TIP3   OH265544   6.365   3.290   5.475 -0.3881  0.5921  0.9598
14710TIP3    H165545   6.424   3.320   5.406 -0.0947  0.7113  1.2608
14710TIP3    H265546   6.399   3.329   5.555 -0.1169 -0.3774  1.3334
14711TIP3   OH265547   4.980   5.652   2.194  0.2076 -0.2101 -0.3469
14711TIP3    H165548   5.043   5.594   2.238  0.3632 -0.8585 -1.4072
14711TIP3    H265549   4.986   5.734   2.243  0.6000 -0.8124  0.6533
14712TIP3   OH265550   1.419   4.440   1.081  0.1701 -0.0679 -0.2415
14712TIP3    H165551   1.452   4.517   1.127 -0.6647 -0.6442  1.3636
14712TIP3    H265552   1.498   4.400   1.043  0.7050  1.1147 -0.4384
14713TIP3   OH265553   4.755   3.317   0.260  0.0598 -0.6773 -0.0785
14713TIP3    H165554   4.664   3.287   0.261  0.6661 -2.6314  0.7045
14713TIP3    H265555   4.790   3.286   0.177  0.1852 -0.4519 -0.1110
14714TIP3   OH265556   0.570   5.319   3.118 -0.1481  0.1493 -0.1536
14714TIP3    H165557   0.478   5.311   3.146  0.2416 -1.6040  0.8046
14714TIP3    H265558   0.616   5.350   3.196  0.3850 -1.1276  0.0663
14715TIP3   OH265559   4.283   6.243  14.044  0.2796  0.0104  0.4625
14715TIP3    H165560   4.225   6.317  14.028 -0.2080 -0.4774 -0.0689
14715TIP3    H265561   4.288   6.236  14.139 -0.3844  0.1662  0.5102
14716TIP3   OH265562   3.781   3.997   0.439 -0.4610 -0.3361 -0.0528
14716TIP3    H165563   3.809   4.027   0.525 -0.5606 -0.5796  0.0650
14716TIP3    H265564   3.840   4.040   0.378 -1.8184  1.6835 -0.0411
14717TIP3   OH265565   3.187   4.910  13.029  0.4356 -0.5318  0.9334
14717TIP3    H165566   3.183   4.914  12.934 -0.6412  2.5335  0.9906
14717TIP3    H265567   3.194   4.817  13.049  0.4946 -1.2907 -2.1061
14718TIP3   OH265568   0.301   2.184  12.852  0.2823 -0.3539  0.2107
14718TIP3    H165569   0.236   2.253  12.837  1.0255  0.0276 -1.3635
14718TIP3    H265570   0.376   2.230  12.890  0.7358 -0.2875 -0.7352
14719TIP3   OH265571   6.682   2.456  14.713  0.3382  0.0737 -0.1650
14719TIP3    H165572   6.614   2.520  14.731 -0.4214 -0.2587 -1.6623
14719TIP3    H265573   6.741   2.500  14.651  0.7881 -0.0664  0.1612
14720TIP3   OH265574   3.294   1.215   2.933 -0.1580  0.1561  0.1174
14720TIP3    H165575   3.388   1.209   2.916  0.4934  1.6114  2.7434
14720TIP3    H265576   3.279   1.158   3.009 -0.7410  2.2279  1.6596
14721TIP3   OH265577   4.227   0.531  12.225  0.2904  0.3045 -0.2058
14721TIP3    H165578   4.298   0.481  12.184  0.1708 -0.6521  0.7371
14721TIP3    H265579   4.147   0.497  12.185  0.3097  0.9746 -0.8371
14722TIP3   OH265580   5.561   4.042  14.134  0.5572  0.1699 -0.3787
14722TIP3    H165581   5.543   4.119  14.081 -0.2365  1.2342  1.3277
14722TIP3    H265582   5.595   4.077  14.216  0.1526 -1.2832  0.4497
14723TIP3   OH265583   0.675   1.379   4.646 -0.2329  0.2112  0.3246
14723TIP3    H165584   0.708   1.418   4.727  0.5124 -0.0386  0.1450
14723TIP3    H265585   0.733   1.414   4.577  0.7990 -1.5996  0.2134
14724TIP3   OH265586   1.776   5.017   3.725  0.0478  0.9341  0.2930
14724TIP3    H165587   1.708   4.951   3.739 -1.0594  2.0801  0.5706
14724TIP3    H265588   1.776   5.032   3.631  2.2960 -1.4351 -0.1956
14725TIP3   OH265589   0.005   2.316   0.805 -0.4965 -0.0523 -0.1624
14725TIP3    H165590  -0.014   2.254   0.734 -1.4424  0.3028 -0.2228
14725TIP3    H265591  -0.052   2.289   0.877  1.1303 -1.0170  0.8592
14726TIP3   OH265592   0.091   3.558   0.012 -0.3543  0.4615  0.7434
14726TIP3    H165593   0.186   3.568   0.006 -0.5622  1.9669 -1.3112
14726TIP3    H265594   0.056   3.621  -0.051 -2.5349 -3.0219 -1.9490
14727TIP3   OH265595   3.182   3.416   0.443  0.9520 -0.4110  0.2291
14727TIP3    H165596   3.170   3.510   0.431  0.2672 -0.1338  2.6408
14727TIP3    H265597   3.221   3.407   0.530  0.4892 -2.3944  0.2882
14728TIP3   OH265598   0.793   1.527   2.043  0.0546 -0.3651  0.1119
14728TIP3    H165599   0.767   1.601   2.097 -2.6940  0.6036 -2.2570
14728TIP3    H265600   0.748   1.452   2.081  0.6462 -0.3064  0.9360
14729TIP3   OH265601   3.208   0.266  15.617 -0.3380 -0.1558 -0.0181
14729TIP3    H165602   3.212   0.336  15.552 -1.3889 -0.6769 -0.6787
14729TIP3    H265603   3.114   0.254  15.633 -0.0950  0.7544  2.5016
14730TIP3   OH265604   0.832   5.244   4.652 -0.7097 -0.2847 -0.8620
14730TIP3    H165605   0.903   5.239   4.716 -1.1143  1.1344 -0.2781
14730TIP3    H265606   0.860   5.185   4.582  0.0412 -1.3790  0.3058
14731TIP3   OH265607   5.005   6.072   0.660  0.0146 -0.0585 -0.5384
14731TIP3    H165608   5.040   6.147   0.707 -0.8706 -0.0952  0.2199
14731TIP3    H265609   4.945   6.030   0.723  0.1548 -1.1387 -1.0944
14732TIP3   OH265610   1.682   0.736   4.821 -0.3606 -0.0751 -0.2034
14732TIP3    H165611   1.658   0.764   4.733  0.5333  1.2179 -0.0572
14732TIP3    H265612   1.747   0.799   4.850 -1.1564 -0.0400  1.6745
14733TIP3   OH265613   3.396   5.610  13.298 -0.6907  0.1586 -0.6551
14733TIP3    H165614   3.386   5.638  13.389  2.1416  2.7829 -0.9867
14733TIP3    H265615   3.469   5.548  13.300 -1.1281 -0.3864 -1.0857
14734TIP3   OH265616   5.609   5.547  15.539 -0.2020 -0.3911  0.1605
14734TIP3    H165617   5.531   5.514  15.493  0.0118 -1.5550  0.5955
14734TIP3    H265618   5.576   5.620  15.591 -0.4314  0.9884 -1.8505
14735TIP3   OH265619   4.313   2.188  11.794 -0.0162  0.1230  0.0637
14735TIP3    H165620   4.276   2.141  11.868 -1.6410 -0.1874 -0.8896
14735TIP3    H265621   4.292   2.280  11.812 -0.0528  0.0925  0.1797
14736TIP3   OH265622   5.662   6.642   4.230 -0.0686  0.2437  0.0414
14736TIP3    H165623   5.584   6.637   4.175 -0.1509  0.1234  0.1687
14736TIP3    H265624   5.734   6.622   4.171 -0.0771  0.9065 -0.2092
14737TIP3   OH265625   1.682   5.855   0.308 -0.1203 -0.1278 -0.2607
14737TIP3    H165626   1.589   5.832   0.309 -0.1796  0.0295 -1.3212
14737TIP3    H265627   1.709   5.849   0.400 -1.3373  0.4960  0.1572
14738TIP3   OH265628   0.944   3.638   1.441 -0.3605 -0.2171  0.2154
14738TIP3    H165629   1.019   3.584   1.416  0.2867  0.1903  1.2470
14738TIP3    H265630   0.978   3.699   1.505 -1.6111 -0.1101  0.8110
14739TIP3   OH265631   0.971   1.143  14.998 -0.2066  0.3386 -0.3352
14739TIP3    H165632   0.921   1.078  14.948 -1.2522  1.9705 -1.5176
14739TIP3    H265633   0.936   1.137  15.087 -1.0148 -0.0043 -0.6698
14740TIP3   OH265634   6.329   3.965   2.651  0.4028  0.4419 -0.3932
14740TIP3    H165635   6.284   3.944   2.569  1.1522 -1.1504 -0.4367
14740TIP3    H265636   6.421   3.944   2.634  0.7618  1.2049  0.5006
14741TIP3   OH265637   5.290   5.343   4.350  0.1255 -0.4946 -0.1335
14741TIP3    H165638   5.201   5.376   4.356  1.3154  2.9354  0.8338
14741TIP3    H265639   5.313   5.353   4.258  0.0786  0.3844 -0.0593
14742TIP3   OH265640   2.830   5.272   1.699 -0.3726 -0.1108 -0.4524
14742TIP3    H165641   2.885   5.338   1.656 -1.2489  0.9934  0.0605
14742TIP3    H265642   2.746   5.279   1.654 -0.9286  0.1914  0.6158
14743TIP3   OH265643   0.789   5.952  16.084  0.0724  0.7330  0.0239
14743TIP3    H165644   0.860   5.995  16.132 -1.0720  1.9764  0.6780
14743TIP3    H265645   0.825   5.936  15.997  1.3461  0.7785  0.5139
14744TIP3   OH265646   2.961   6.118   2.262 -0.0556  0.0485 -0.2019
14744TIP3    H165647   3.028   6.162   2.315 -2.1768 -0.3477  3.0358
14744TIP3    H265648   2.905   6.074   2.325 -2.6615 -0.7237 -2.8470
14745TIP3   OH265649   2.450   0.741   4.640  0.2774 -0.1388  0.8000
14745TIP3    H165650   2.402   0.674   4.687 -0.0793 -2.1042 -2.1163
14745TIP3    H265651   2.541   0.711   4.639 -0.0293 -1.2109 -1.3020
14746TIP3   OH265652   2.688   3.897   0.502 -0.7492  0.1403  0.2898
14746TIP3    H165653   2.728   3.821   0.544 -0.6605  0.0238 -0.0083
14746TIP3    H265654   2.648   3.864   0.422  0.8232  0.6881 -0.7678
14747TIP3   OH265655   1.352   2.109  13.721  0.3274 -0.3357 -0.1971
14747TIP3    H165656   1.371   2.016  13.708 -0.6518 -0.9250  2.0198
14747TIP3    H265657   1.266   2.110  13.764  0.3515  1.5994 -0.0813
14748TIP3   OH265658   1.049   3.411   5.499 -0.2853  0.4750  0.6798
14748TIP3    H165659   1.058   3.323   5.462 -1.0266 -0.0648  1.7643
14748TIP3    H265660   1.109   3.464   5.447 -0.6474 -0.4341 -0.7326
14749TIP3   OH265661   4.462   0.417  17.001  0.4870  0.6472  0.3036
14749TIP3    H165662   4.475   0.322  16.998  0.3796  0.5907  1.3758
14749TIP3    H265663   4.501   0.449  16.919 -0.9601 -0.4783 -0.8997
14750TIP3   OH265664   5.935   5.558  12.471 -0.7784  0.2100 -0.1188
14750TIP3    H165665   5.904   5.604  12.393  0.4255  0.5845 -0.3962
14750TIP3    H265666   5.967   5.474  12.438  2.1852  1.3636 -0.5140
14751TIP3   OH265667   5.582   4.674  11.310 -0.0722  0.5387 -0.0255
14751TIP3    H165668   5.493   4.677  11.273  0.1581 -1.7090 -0.8942
14751TIP3    H265669   5.639   4.695  11.236  0.2144 -0.2631 -0.0394
14752TIP3   OH265670   0.141   3.744  16.402  0.6078 -0.5546 -0.1517
14752TIP3    H165671   0.088   3.814  16.441  0.8448 -0.5437  0.1540
14752TIP3    H265672   0.089   3.665  16.413  0.3350 -0.4243 -0.5051
14753TIP3   OH265673   4.824   1.456  11.714  0.7860 -0.1088 -0.4266
14753TIP3    H165674   4.855   1.506  11.639 -1.4503  0.8811 -0.7782
14753TIP3    H265675   4.754   1.401  11.679  0.6132 -0.6223  0.6789
14754TIP3   OH265676   5.815   0.289   0.525 -0.5675  0.2874  0.5945
14754TIP3    H165677   5.733   0.281   0.476 -0.9087  0.0303  1.1942
14754TIP3    H265678   5.883   0.295   0.457 -0.8007 -2.3068  0.0138
14755TIP3   OH265679   2.453   3.469  12.397  0.1236 -0.4164 -0.7108
14755TIP3    H165680   2.471   3.555  12.437  0.1385 -0.2968 -0.9712
14755TIP3    H265681   2.399   3.423  12.461  0.0544 -0.1829 -0.6007
14756TIP3   OH265682   0.291   5.239  15.179  0.1897 -0.0790 -0.0058
14756TIP3    H165683   0.261   5.267  15.092 -1.4445 -1.6585 -0.0262
14756TIP3    H265684   0.386   5.231  15.170  0.2537  1.4491 -1.1172
14757TIP3   OH265685   4.870   2.198  17.178 -0.1830  0.4541 -0.3527
14757TIP3    H165686   4.899   2.137  17.110 -2.1808 -2.0017  0.8835
14757TIP3    H265687   4.798   2.246  17.138  0.2734  0.8050 -0.7644
14758TIP3   OH265688   0.909   5.501   1.995  0.4124 -0.1697 -0.3608
14758TIP3    H165689   0.930   5.464   1.908 -0.3211 -1.6391  0.0565
14758TIP3    H265690   0.953   5.586   1.995  0.3123 -0.0604 -2.2323
14759TIP3   OH265691   4.532   1.517  14.237 -0.0075 -0.3677 -0.3502
14759TIP3    H165692   4.465   1.514  14.306 -1.5793 -0.3477 -1.8068
14759TIP3    H265693   4.555   1.425  14.224 -0.0370 -0.4121 -0.1072
14760TIP3   OH265694   3.919   5.659   1.365 -0.0796  0.2452  0.0633
14760TIP3    H165695   3.958   5.579   1.330 -2.6922 -1.1389  0.0438
14760TIP3    H265696   3.830   5.659   1.330 -0.5354  2.5363  1.0702
14761TIP3   OH265697   5.028   5.251  15.945  0.0711 -0.2116 -0.0787
14761TIP3    H165698   5.037   5.278  16.037 -2.1685  0.6002 -0.0323
14761TIP3    H265699   5.116   5.261  15.909  0.5078  1.8612  1.3626
14762TIP3   OH265700   1.064   4.530   3.985 -0.3407  0.6972  0.6965
14762TIP3    H165701   1.094   4.612   4.023 -0.6975  1.4006 -0.5060
14762TIP3    H265702   1.028   4.554   3.900 -0.6272 -0.6796  0.4019
14763TIP3   OH265703   0.093   3.123  14.865  0.5331  0.2329  0.0179
14763TIP3    H165704   0.059   3.132  14.776 -0.2404  0.0009  0.2811
14763TIP3    H265705   0.061   3.201  14.911 -1.8200 -1.1633  0.9343
14764TIP3   OH265706   0.747   4.592  15.219 -0.0113  0.3603 -0.1147
14764TIP3    H165707   0.737   4.498  15.208  0.5313  0.1457  1.0876
14764TIP3    H265708   0.674   4.617  15.277 -0.3913  0.7531 -0.7542
14765TIP3   OH265709   4.543   4.534  15.283  0.1818 -0.4279 -0.1148
14765TIP3    H165710   4.606   4.578  15.226  1.2054 -2.8803 -1.0014
14765TIP3    H265711   4.577   4.547  15.371  0.0907  1.0628 -0.2761
14766TIP3   OH265712   0.199   6.347   5.695 -0.2551 -0.1552 -0.2562
14766TIP3    H165713   0.150   6.268   5.670 -1.6320  0.5532  0.1228
14766TIP3    H265714   0.255   6.364   5.620 -1.8639 -0.0178 -1.4933
14767TIP3   OH265715   5.764   2.196  12.426 -0.3958  0.0657  0.1190
14767TIP3    H165716   5.856   2.213  12.409  0.0986 -1.7255  0.7185
14767TIP3    H265717   5.720   2.209  12.342 -0.0805  3.3912  0.3333
14768TIP3   OH265718   1.676   2.179  13.619 -0.1003 -0.0622  0.2899
14768TIP3    H165719   1.636   2.128  13.690  1.3954 -0.3200  0.9872
14768TIP3    H265720   1.732   2.242  13.663 -0.1259  0.6297 -0.6375
14769TIP3   OH265721   1.714   4.218  13.627  0.9925  0.6107  0.2155
14769TIP3    H165722   1.629   4.211  13.584  0.9860  0.7559  0.2062
14769TIP3    H265723   1.773   4.169  13.570  0.8443  0.2018  0.4118
14770TIP3   OH265724   1.318   1.964  16.189 -0.7733  0.3816 -0.2444
14770TIP3    H165725   1.348   2.013  16.266 -0.7069  1.8815 -1.1723
14770TIP3    H265726   1.236   2.007  16.164 -0.5367  0.2458 -1.2997
14771TIP3   OH265727   6.480   4.049  13.586  0.3941 -0.1440 -0.1904
14771TIP3    H165728   6.451   3.984  13.522 -1.4644 -1.0128  1.4131
14771TIP3    H265729   6.412   4.048  13.653  1.9341  1.1733  1.4907
14772TIP3   OH265730   0.352   6.613  14.832  0.2566 -0.5753 -0.0862
14772TIP3    H165731   0.256   6.609  14.824  0.3176 -0.9818 -0.7360
14772TIP3    H265732   0.383   6.542  14.775  0.8871 -1.7396  1.6385
14773TIP3   OH265733   3.774   0.828   0.494 -0.2443  0.1444 -0.0410
14773TIP3    H165734   3.781   0.837   0.589  1.7709 -0.2170 -0.1238
14773TIP3    H265735   3.752   0.916   0.463  1.8219  0.9253  0.5638
14774TIP3   OH265736   5.681   6.548  16.905  0.2674  0.2651 -0.3221
14774TIP3    H165737   5.673   6.588  16.819  0.8726  1.3373  0.0986
14774TIP3    H265738   5.605   6.582  16.954  0.4504  0.4323 -0.1502
14775TIP3   OH265739   3.402   0.075  15.528 -0.7599 -0.0168 -0.2698
14775TIP3    H165740   3.344   0.147  15.552 -1.1132  0.0116 -1.1984
14775TIP3    H265741   3.366   0.041  15.447  0.4176 -0.1229 -0.7650
14776TIP3   OH265742   1.440   1.574   0.460  0.4832 -0.1870 -0.3637
14776TIP3    H165743   1.352   1.542   0.440  0.4742 -0.3906 -0.0070
14776TIP3    H265744   1.496   1.496   0.454  0.6170 -0.0839 -0.4558
14777TIP3   OH265745   4.489   2.998   0.362 -0.0075 -0.3976 -0.4997
14777TIP3    H165746   4.556   2.995   0.294  0.6297  1.1078  0.0170
14777TIP3    H265747   4.537   2.985   0.443 -0.2676  1.0698 -0.0970
14778TIP3   OH265748   2.176   3.834  12.859  0.0635  0.1725  0.1621
14778TIP3    H165749   2.088   3.814  12.891 -0.2114  0.8056 -0.1755
14778TIP3    H265750   2.232   3.765  12.895 -0.5242 -0.0685  0.6150
14779TIP3   OH265751   3.297   3.673  12.789  0.4743  0.2374 -0.6090
14779TIP3    H165752   3.334   3.613  12.853 -1.0808  0.8564  0.9293
14779TIP3    H265753   3.330   3.759  12.815  1.1176  0.3314 -1.6374
14780TIP3   OH265754   2.366   4.637   5.839  0.1667  0.0181  0.3989
14780TIP3    H165755   2.444   4.692   5.843 -0.4658  1.1367 -1.3712
14780TIP3    H265756   2.365   4.591   5.922  3.8783 -1.6912 -0.2722
14781TIP3   OH265757   4.480   1.888  10.447 -0.2690 -0.6079 -0.2182
14781TIP3    H165758   4.478   1.903  10.542  1.7904 -1.5269  0.0238
14781TIP3    H265759   4.559   1.933  10.417 -0.8978 -0.3235 -1.5150
14782TIP3   OH265760   3.883   3.488  15.100 -0.8352 -0.2565  0.4862
14782TIP3    H165761   3.965   3.451  15.069  1.3434  3.5799  0.9695
14782TIP3    H265762   3.840   3.521  15.021  0.1634  1.2990  0.5500
14783TIP3   OH265763   3.674   0.303  12.157 -0.6298  0.1335  0.6422
14783TIP3    H165764   3.617   0.283  12.231 -0.5853  0.8898  0.8824
14783TIP3    H265765   3.732   0.372  12.189 -0.6225  0.4784 -0.1049
14784TIP3   OH265766   1.796   3.190  15.409 -0.3355 -0.4387 -0.1195
14784TIP3    H165767   1.823   3.259  15.350 -1.5779  0.4333  0.2741
14784TIP3    H265768   1.775   3.116  15.352 -0.3810 -0.0054 -0.6731
14785TIP3   OH265769   0.186   3.921  12.984  0.1537  0.1126  0.2212
14785TIP3    H165770   0.132   3.957  12.913  1.4842  2.2004  0.2089
14785TIP3    H265771   0.123   3.874  13.039 -1.5237  1.5050 -0.3873
14786TIP3   OH265772   5.696   0.408  14.247  0.1763 -0.2138 -0.1604
14786TIP3    H165773   5.723   0.426  14.337  2.2330  0.9236 -0.9397
14786TIP3    H265774   5.754   0.462  14.194 -2.5560  1.0611 -2.1090
14787TIP3   OH265775   6.117   5.683  14.891  0.0252  0.0143  0.2200
14787TIP3    H165776   6.117   5.589  14.909 -2.5348 -0.1574 -0.2747
14787TIP3    H265777   6.025   5.709  14.902  0.1137  1.8584 -2.5608
14788TIP3   OH265778   0.515   4.029   1.960 -0.4348 -0.2109  0.3188
14788TIP3    H165779   0.582   4.072   2.013  1.2436 -0.3950 -1.5718
14788TIP3    H265780   0.526   4.064   1.872 -2.3321 -0.8359 -0.2328
14789TIP3   OH265781   6.006   4.968  16.504  0.1646 -0.6543 -0.2198
14789TIP3    H165782   6.053   4.980  16.586  2.2725  0.0204 -1.4482
14789TIP3    H265783   5.914   4.977  16.527  0.7156 -0.2053  2.0010
14790TIP3   OH265784   4.499   4.676   1.604 -0.1112 -0.3786 -0.3403
14790TIP3    H165785   4.421   4.728   1.583 -0.1033 -0.8792 -1.6499
14790TIP3    H265786   4.556   4.737   1.651 -1.2667  0.0023  0.6540
14791TIP3   OH265787   5.314   1.514  12.795 -0.5419  0.3015  0.1720
14791TIP3    H165788   5.381   1.577  12.823  0.8532 -1.2481  0.4674
14791TIP3    H265789   5.287   1.544  12.709  0.6314  0.9080 -0.0040
14792TIP3   OH265790   6.712   1.348   6.217  0.0279 -0.6678  0.1043
14792TIP3    H165791   6.623   1.319   6.241 -0.5533  0.7901 -0.1991
14792TIP3    H265792   6.747   1.386   6.297 -0.3838  0.5233 -0.2555
14793TIP3   OH265793   5.861   0.561  13.266  0.4075  0.8949  0.1912
14793TIP3    H165794   5.818   0.485  13.226 -1.0444  1.1171  1.2206
14793TIP3    H265795   5.799   0.590  13.333  1.7882  1.8373  1.1115
14794TIP3   OH265796   6.244   4.663  13.096 -0.9583 -0.0183  0.9009
14794TIP3    H165797   6.321   4.608  13.110 -1.1928 -0.5205  0.2459
14794TIP3    H265798   6.279   4.750  13.079 -0.5718 -0.0347  1.5486
14795TIP3   OH265799   4.519   6.366  12.525 -0.0397 -0.4035  0.2431
14795TIP3    H165800   4.600   6.414  12.506 -0.2777 -0.1052 -0.0286
14795TIP3    H265801   4.461   6.432  12.563 -0.3300 -0.4984 -0.0289
14796TIP3   OH265802   6.616   2.946  15.585 -0.1401  0.8529 -0.8683
14796TIP3    H165803   6.671   2.958  15.508 -0.3983 -0.1802 -1.2386
14796TIP3    H265804   6.551   3.016  15.581 -0.0176  0.9327 -1.4737
14797TIP3   OH265805   0.393   2.897  17.216 -0.1761 -0.0036  0.0373
14797TIP3    H165806   0.468   2.955  17.228 -0.8831  1.0483 -0.3738
14797TIP3    H265807   0.378   2.858  17.302  1.7251 -1.3840 -0.2126
14798TIP3   OH265808   5.503   0.417  12.576  0.0345  0.2739  0.0165
14798TIP3    H165809   5.536   0.382  12.493 -0.7496 -0.2589 -0.0801
14798TIP3    H265810   5.463   0.341  12.619 -0.2017  0.7078  0.5608
14799TIP3   OH265811   5.602   2.850  11.643 -0.7882  0.0706  0.8027
14799TIP3    H165812   5.567   2.928  11.600 -1.7040 -1.4566 -1.3900
14799TIP3    H265813   5.532   2.785  11.635  1.8137 -2.6444 -2.3322
14800TIP3   OH265814   4.673   0.243  13.661  0.0112 -0.0478 -0.3966
14800TIP3    H165815   4.617   0.198  13.724 -1.8954  0.1917 -1.8605
14800TIP3    H265816   4.737   0.289  13.716 -0.6019 -1.0863  1.2863
14801TIP3   OH265817   0.891   4.315  13.842 -0.1277  0.5678 -0.4895
14801TIP3    H165818   0.848   4.392  13.879 -0.6566  0.5468 -1.0371
14801TIP3    H265819   0.843   4.298  13.761 -0.3409 -0.6383 -0.1254
14802TIP3   OH265820   5.490   4.272   4.575 -0.6764 -0.4960 -0.6620
14802TIP3    H165821   5.533   4.302   4.655  1.0125 -2.1784 -0.8617
14802TIP3    H265822   5.408   4.233   4.606  0.2208 -1.6628  0.3571
14803TIP3   OH265823   6.367   1.362  15.513 -0.5138 -0.2368 -0.4897
14803TIP3    H165824   6.433   1.401  15.456 -0.0870  1.1676  0.9118
14803TIP3    H265825   6.289   1.416  15.500 -0.5917 -0.2718 -0.1642
14804TIP3   OH265826   2.750   5.956   1.206 -0.4311  0.3128 -0.0421
14804TIP3    H165827   2.834   5.930   1.244 -0.5612  1.7993  1.3607
14804TIP3    H265828   2.691   5.884   1.227  0.4749 -0.7766 -1.0943
14805TIP3   OH265829   0.214   2.045  13.962  0.3868 -0.3551  0.1246
14805TIP3    H165830   0.157   2.117  13.934  0.2777 -1.1225 -1.8004
14805TIP3    H265831   0.156   1.986  14.011 -0.0982 -0.3176 -0.3943
14806TIP3   OH265832   5.258   3.824  15.726  0.5579  0.5594 -0.4414
14806TIP3    H165833   5.282   3.739  15.691  0.1161 -0.8260  2.3720
14806TIP3    H265834   5.304   3.830  15.810 -2.3770  1.3636  1.2400
14807TIP3   OH265835   3.246   6.416  16.764  0.1246 -0.0346  0.2083
14807TIP3    H165836   3.248   6.355  16.691  3.0776 -0.7601  0.7881
14807TIP3    H265837   3.165   6.394  16.811  0.2855 -2.3804 -0.5111
14808TIP3   OH265838   2.327   3.979   0.928 -0.4585  0.6032  0.3665
14808TIP3    H165839   2.286   3.898   0.961  2.6048 -0.0832  3.0076
14808TIP3    H265840   2.388   3.949   0.860 -1.7218  1.1945 -1.0824
14809TIP3   OH265841   1.110   2.015   5.757 -0.6108  0.6490 -0.4346
14809TIP3    H165842   1.051   1.958   5.708 -0.0433 -1.3854  1.0982
14809TIP3    H265843   1.092   1.994   5.849  0.3550  2.2324  0.1465
14810TIP3   OH265844   4.734   1.329  12.544 -0.1272  0.0535  0.2047
14810TIP3    H165845   4.783   1.315  12.625  0.3139  1.0106  0.1191
14810TIP3    H265846   4.669   1.395  12.566  0.0227  0.3514 -0.2231
14811TIP3   OH265847   2.625   2.097   5.888 -0.4014  0.0847  0.6540
14811TIP3    H165848   2.615   2.085   5.982 -0.2773  0.3827  0.7072
14811TIP3    H265849   2.591   2.185   5.871 -0.9149 -0.1657  0.3391
14812TIP3   OH265850   0.466   1.486  15.001  0.1635 -0.1456  0.0926
14812TIP3    H165851   0.418   1.568  14.986 -0.5406 -0.6358 -0.4150
14812TIP3    H265852   0.557   1.513  15.008  0.1322  0.5300 -1.6309
14813TIP3   OH265853   3.381   3.422   2.100  0.6836 -0.7274 -0.3320
14813TIP3    H165854   3.455   3.456   2.049  0.9716  0.2239  0.6660
14813TIP3    H265855   3.418   3.406   2.187 -0.1382 -0.8736 -0.0022
14814TIP3   OH265856   1.585   4.925   4.777 -0.1092 -0.2771 -0.5429
14814TIP3    H165857   1.637   4.954   4.702 -0.1807  0.7465 -0.2060
14814TIP3    H265858   1.510   4.880   4.738 -1.1133  1.8100 -1.1847
14815TIP3   OH265859   5.226   3.362   4.224 -0.1798 -0.2918  0.4908
14815TIP3    H165860   5.271   3.435   4.182 -2.4216  1.9837  1.7053
14815TIP3    H265861   5.271   3.349   4.307  1.1938 -1.4428 -0.3884
14816TIP3   OH265862   6.183   1.888  11.236 -0.5489 -0.2551 -0.3408
14816TIP3    H165863   6.146   1.815  11.187 -0.0795 -1.5226  1.0940
14816TIP3    H265864   6.114   1.954  11.237 -0.8348 -0.4843 -2.0110
14817TIP3   OH265865   4.680   0.807   0.898  0.4185 -0.0099 -0.0547
14817TIP3    H165866   4.736   0.778   0.971  0.1061  1.1384  0.6688
14817TIP3    H265867   4.591   0.800   0.932  0.3454  2.1401  0.3236
14818TIP3   OH265868   1.108   4.355  16.970 -0.3282 -0.5567  0.1023
14818TIP3    H165869   1.095   4.389  17.059  1.8049 -1.0444  0.6669
14818TIP3    H265870   1.158   4.423  16.925  1.4410 -1.6086  0.3468
14819TIP3   OH265871   1.293   3.749  13.022 -0.2797  0.3754  0.0610
14819TIP3    H165872   1.387   3.759  13.035 -0.1897 -0.0430 -0.2602
14819TIP3    H265873   1.263   3.836  12.994  0.4877 -0.1692 -2.6566
14820TIP3   OH265874   2.996   6.430   5.369 -0.0517 -0.2019  0.2105
14820TIP3    H165875   2.937   6.377   5.315 -0.7184  0.9213 -0.2101
14820TIP3    H265876   3.047   6.481   5.306  0.2839 -0.0428  0.6051
14821TIP3   OH265877   1.656   2.449   3.218 -0.1487  0.5960 -0.5274
14821TIP3    H165878   1.732   2.459   3.162  0.0533 -0.4154 -0.4607
14821TIP3    H265879   1.675   2.501   3.296  0.8774 -0.3576 -0.1215
14822TIP3   OH265880   0.447   0.309   3.631  0.4553  0.0627 -0.1446
14822TIP3    H165881   0.408   0.304   3.544 -1.8106 -1.1965  0.8697
14822TIP3    H265882   0.430   0.399   3.659  0.1468  0.1325 -0.5352
14823TIP3   OH265883   6.062   2.744   1.009  0.7055 -0.1443 -0.2772
14823TIP3    H165884   6.154   2.772   1.004  0.7072  0.0094  0.4815
14823TIP3    H265885   6.027   2.790   1.086 -1.0943  2.8926 -2.6667
14824TIP3   OH265886   5.389   5.786  15.255  0.1901 -0.1436  0.0534
14824TIP3    H165887   5.398   5.718  15.189 -0.2127  0.7775 -0.9761
14824TIP3    H265888   5.306   5.766  15.299 -0.0081 -0.2341 -0.3555
14825TIP3   OH265889   1.047   0.855  12.106 -0.1956 -0.6440  0.7687
14825TIP3    H165890   1.102   0.860  12.184  0.4540  1.0455  0.2525
14825TIP3    H265891   1.012   0.766  12.107 -0.1440 -0.6880  2.9318
14826TIP3   OH265892   2.300   1.144  13.710 -0.1912 -0.1869  0.1261
14826TIP3    H165893   2.328   1.194  13.787 -1.0213  1.9577 -0.8770
14826TIP3    H265894   2.356   1.066  13.710  0.8065  0.4597  2.0748
14827TIP3   OH265895   0.251   5.809  16.246  0.0995 -0.2181 -0.8722
14827TIP3    H165896   0.169   5.820  16.294  1.1118  2.3794  0.4965
14827TIP3    H265897   0.225   5.805  16.154 -1.5491  2.2738 -0.6265
14828TIP3   OH265898   4.154   6.084   3.165  0.4334 -0.2054 -0.2292
14828TIP3    H165899   4.213   6.011   3.180 -1.0118 -1.2173  0.7601
14828TIP3    H265900   4.106   6.061   3.085  0.0935 -0.2740 -0.0090
14829TIP3   OH265901   3.903   6.667  16.409  0.0718  0.0315  0.4472
14829TIP3    H165902   3.969   6.650  16.342 -0.2545  0.6973 -0.0523
14829TIP3    H265903   3.915   6.596  16.472  0.0078 -0.9236 -0.5896
14830TIP3   OH265904   4.497   5.966  14.986  0.2348  0.0643 -0.4086
14830TIP3    H165905   4.411   6.006  14.979  0.3646  0.4385  0.0838
14830TIP3    H265906   4.493   5.912  15.065  0.1033 -0.8019 -0.9964
14831TIP3   OH265907   5.070   5.701   4.810 -0.4357 -0.1980 -0.1269
14831TIP3    H165908   5.119   5.756   4.871 -0.0533 -0.3531 -0.2893
14831TIP3    H265909   5.135   5.637   4.779 -0.9904 -1.0804  0.4620
14832TIP3   OH265910   0.864   1.437  13.520  0.2677 -0.1409 -0.0445
14832TIP3    H165911   0.855   1.526  13.553  0.3619 -0.3627  0.5868
14832TIP3    H265912   0.779   1.417  13.482  0.2430  0.2138 -0.1793
14833TIP3   OH265913   2.109   1.443  15.075 -0.1851  0.6482 -0.1180
14833TIP3    H165914   2.017   1.466  15.061 -0.0949  0.9525 -0.2114
14833TIP3    H265915   2.148   1.448  14.989 -0.1561  0.1680 -0.1354
14834TIP3   OH265916   0.233   5.406  12.448 -0.0712 -0.0337 -0.2167
14834TIP3    H165917   0.219   5.313  12.469 -0.3757  0.3283  1.2830
14834TIP3    H265918   0.272   5.405  12.361 -0.0221 -1.5760 -0.2055
14835TIP3   OH265919   3.083   3.621   1.765 -0.0946  0.1319 -0.4199
14835TIP3    H165920   3.166   3.594   1.727 -1.4162 -2.8776 -1.4728
14835TIP3    H265921   3.072   3.565   1.842 -1.2621  0.2289 -0.4930
14836TIP3   OH265922   3.491   1.448   4.702 -0.0407  0.2824  0.5485
14836TIP3    H165923   3.470   1.427   4.611  0.9003 -2.6096  0.8805
14836TIP3    H265924   3.551   1.522   4.697 -0.9358  0.9392 -1.0703
14837TIP3   OH265925   1.331   0.420   3.365 -0.2358 -0.2356 -0.7599
14837TIP3    H165926   1.326   0.501   3.415  0.0408 -0.4902 -0.3187
14837TIP3    H265927   1.313   0.351   3.428  0.0480 -0.5532 -1.0219
14838TIP3   OH265928   0.223   5.576  14.670 -0.8788 -0.9064  0.6818
14838TIP3    H165929   0.193   5.550  14.583 -0.6093 -0.5147  0.4696
14838TIP3    H265930   0.149   5.558  14.728 -1.6221  0.3175  0.1258
14839TIP3   OH265931   1.974   2.642   0.191  0.4589 -0.1282  0.4819
14839TIP3    H165932   1.990   2.609   0.279  1.6696  0.4030  0.4869
14839TIP3    H265933   2.061   2.657   0.155 -0.0294  1.5397 -0.0864
14840TIP3   OH265934   3.596   0.680   1.925 -0.4298  0.3879  0.6983
14840TIP3    H165935   3.515   0.675   1.874 -1.0984  1.4698  1.6029
14840TIP3    H265936   3.635   0.764   1.900  0.5918 -0.2652  0.0392
14841TIP3   OH265937   3.161   2.388   5.022  0.4157 -0.3430  0.4295
14841TIP3    H165938   3.069   2.363   5.027  1.1036 -2.9755  1.6154
14841TIP3    H265939   3.180   2.426   5.108  0.5298 -0.0995  0.2983
14842TIP3   OH265940   4.359   6.439   5.363 -0.2650  0.5940  0.7921
14842TIP3    H165941   4.328   6.409   5.278 -0.7001 -1.2744  1.5604
14842TIP3    H265942   4.290   6.497   5.395 -1.2334 -0.5681  0.8680
14843TIP3   OH265943   4.236   6.564  16.703 -0.7134  0.0241 -0.3722
14843TIP3    H165944   4.268   6.499  16.766 -0.6803 -0.5899 -1.0085
14843TIP3    H265945   4.188   6.627  16.756  0.2184  0.1056  0.4074
14844TIP3   OH265946   5.398   6.711  14.205 -0.6120  0.1813 -0.2270
14844TIP3    H165947   5.442   6.698  14.121  0.5195  3.0144 -0.1801
14844TIP3    H265948   5.466   6.693  14.270  0.5437  3.9853 -0.1445
14845TIP3   OH265949   1.358   6.137  15.103 -0.0266 -0.0733 -0.5932
14845TIP3    H165950   1.405   6.220  15.098  1.2312 -0.7663 -0.3912
14845TIP3    H265951   1.269   6.162  15.129  1.2665  0.9479  3.6598
14846TIP3   OH265952   4.183   0.950  14.592 -0.2265 -0.9694  0.0082
14846TIP3    H165953   4.092   0.950  14.622  0.4092 -1.5965  2.1532
14846TIP3    H265954   4.196   0.862  14.555 -0.5571 -0.7956 -0.5192
14847TIP3   OH265955   0.457   6.151   2.027  0.7192 -0.5533 -0.4697
14847TIP3    H165956   0.419   6.128   2.112  0.8232  1.0119  0.0251
14847TIP3    H265957   0.382   6.177   1.974  0.7206 -0.9289 -0.6548
14848TIP3   OH265958   6.452   6.194   3.083  0.2816 -0.2724 -0.4280
14848TIP3    H165959   6.418   6.195   2.993 -1.2178  1.6418  0.0858
14848TIP3    H265960   6.542   6.225   3.074  0.8162 -1.9814 -1.4439
14849TIP3   OH265961   5.523   5.924  14.349  0.4591  0.7225  0.2169
14849TIP3    H165962   5.467   5.969  14.412  0.5270  1.8693 -0.5011
14849TIP3    H265963   5.612   5.937  14.382  0.5437  1.8375 -0.3866
14850TIP3   OH265964   1.722   5.076  14.548 -0.2308  0.3750 -0.8821
14850TIP3    H165965   1.646   5.132  14.529 -0.3612  1.5024  2.3503
14850TIP3    H265966   1.797   5.136  14.544  0.1001 -0.0471 -1.0380
14851TIP3   OH265967   1.551   6.104  15.477  0.2034  0.1567 -0.4030
14851TIP3    H165968   1.595   6.102  15.562 -1.7984 -0.7553  0.6843
14851TIP3    H265969   1.510   6.190  15.474 -1.4231 -0.5484  0.5241
14852TIP3   OH265970   6.269   2.683  13.440 -0.2058 -0.2565 -0.7163
14852TIP3    H165971   6.328   2.625  13.393 -1.1659 -0.8918 -1.1895
14852TIP3    H265972   6.222   2.626  13.501  0.4976  0.4354  0.5062
14853TIP3   OH265973   3.505   3.144   4.655 -0.7699 -0.4087  0.2603
14853TIP3    H165974   3.494   3.058   4.696 -1.0167  0.3539  1.8758
14853TIP3    H265975   3.421   3.187   4.667 -0.1669  0.6342  0.9415
14854TIP3   OH265976   2.193   0.663   3.975 -0.3789 -0.2058 -0.0374
14854TIP3    H165977   2.193   0.610   3.895  1.5233  0.4195 -0.5207
14854TIP3    H265978   2.269   0.632   4.024 -1.0058  0.0320  1.1229
14855TIP3   OH265979   5.075   4.946  16.170  0.4051  0.2845 -0.1289
14855TIP3    H165980   5.139   4.965  16.101 -1.1696  0.2673 -1.6718
14855TIP3    H265981   5.050   5.033  16.203  0.0613  0.4050 -0.6753
14856TIP3   OH265982   4.890   3.838  13.809 -0.5691  0.3600  0.6238
14856TIP3    H165983   4.820   3.898  13.784  0.7632  1.2419 -1.1371
14856TIP3    H265984   4.899   3.850  13.904 -2.4745  0.5343  0.8236
14857TIP3   OH265985   4.088   2.626   1.138 -0.0354  0.2911 -0.0667
14857TIP3    H165986   4.053   2.638   1.226  0.5106  0.4945  0.1221
14857TIP3    H265987   4.179   2.654   1.144  0.4099 -1.0169 -0.3535
14858TIP3   OH265988   2.335   3.423   5.165  0.0000 -0.0301 -0.3214
14858TIP3    H165989   2.282   3.367   5.108 -0.4149  0.9831 -0.9695
14858TIP3    H265990   2.423   3.417   5.129 -0.0725 -0.1370 -0.4859
14859TIP3   OH265991   0.220   1.862   4.255  0.2211  0.6803  0.3236
14859TIP3    H165992   0.287   1.869   4.324  0.0511  1.4648  0.4235
14859TIP3    H265993   0.269   1.874   4.173  0.4945 -0.7049  0.2599
14860TIP3   OH265994   5.131   4.058  15.881  0.4115 -0.6014  0.1990
14860TIP3    H165995   5.182   4.073  15.802  0.0334  3.2807  0.4890
14860TIP3    H265996   5.194   4.021  15.943  2.0497  0.9361 -0.4659
14861TIP3   OH265997   3.396   4.215  12.775 -0.5434  0.3931 -0.2480
14861TIP3    H165998   3.406   4.216  12.680  3.8519  0.5276  0.0022
14861TIP3    H265999   3.433   4.299  12.804  0.7437 -0.7179  1.6231
14862TIP3   OH266000   3.199   0.241  15.929 -0.3222  0.4308  0.1135
14862TIP3    H166001   3.209   0.210  15.838  2.3100  0.8078  0.2114
14862TIP3    H266002   3.192   0.160  15.980  2.5137 -0.0423 -0.0549
14863TIP3   OH266003   2.970   4.809   0.352 -0.3585 -0.1849 -0.5498
14863TIP3    H166004   2.892   4.845   0.394  0.6079 -1.6520  2.8939
14863TIP3    H266005   3.016   4.886   0.318 -0.6750  1.4277  2.2963
14864TIP3   OH266006   6.520   1.864  12.709 -0.0227 -0.6412  0.1273
14864TIP3    H166007   6.553   1.868  12.799 -0.7793 -0.5825  0.4090
14864TIP3    H266008   6.563   1.787  12.671  0.6901 -0.3715  0.3738
14865TIP3   OH266009   1.018   0.175  13.959 -0.7508  0.2348  0.1874
14865TIP3    H166010   0.941   0.119  13.962 -1.9869  1.8347 -0.0989
14865TIP3    H266011   1.019   0.209  13.870 -0.1782  0.8453  0.4197
14866TIP3   OH266012   5.785   6.587  12.031  0.5596 -0.1473 -0.1000
14866TIP3    H166013   5.787   6.505  11.981  0.8650  0.0364 -0.3943
14866TIP3    H266014   5.744   6.563  12.114 -1.2137 -0.1675 -0.9321
14867TIP3   OH266015   3.559   0.851  10.646  0.0182  0.2557  0.4120
14867TIP3    H166016   3.477   0.901  10.642 -0.0825  0.0666 -3.4253
14867TIP3    H266017   3.531   0.761  10.662 -0.9052 -0.1779 -2.8883
14868TIP3   OH266018   6.333   5.997  16.498  0.0753  0.2149 -1.2598
14868TIP3    H166019   6.288   5.925  16.542  0.4331 -0.3196 -1.7533
14868TIP3    H266020   6.381   6.042  16.569  1.9941 -1.6416 -1.2800
14869TIP3   OH266021   4.696   6.064  16.108  0.1910 -0.2810 -0.2265
14869TIP3    H166022   4.760   6.112  16.056  0.5576 -2.4597 -1.9092
14869TIP3    H266023   4.627   6.041  16.046 -1.5104  0.6444  1.2174
14870TIP3   OH266024   5.484   2.641   1.397  0.0187 -0.3583  0.3877
14870TIP3    H166025   5.534   2.617   1.475  1.9771  0.3116 -0.5924
14870TIP3    H266026   5.499   2.735   1.386  1.0821 -0.6884 -1.5987
14871TIP3   OH266027   3.938   6.575   4.186 -0.5161 -0.8995  0.0940
14871TIP3    H166028   3.904   6.509   4.246 -0.4837 -1.4766 -0.5100
14871TIP3    H266029   4.002   6.624   4.238  0.0932 -1.9013  0.3028
14872TIP3   OH266030   3.713   4.815   1.150  0.2951 -0.0923  0.3949
14872TIP3    H166031   3.787   4.769   1.189  1.1930  0.6484 -0.3697
14872TIP3    H266032   3.732   4.814   1.056  1.2243  3.1899  0.4203
14873TIP3   OH266033   6.457   3.042  11.944  0.4746 -0.0643 -0.5028
14873TIP3    H166034   6.527   3.100  11.915  0.6820  0.4412  0.9473
14873TIP3    H266035   6.408   3.023  11.864  0.6114  1.8213 -1.0937
14874TIP3   OH266036   5.014   3.206  14.279  0.1945 -0.5802 -0.0061
14874TIP3    H166037   4.972   3.188  14.194  1.1897 -0.2494 -0.5800
14874TIP3    H266038   4.942   3.200  14.342 -0.8153  0.3914 -1.0073
14875TIP3   OH266039   5.517   1.061  13.180  0.3001  0.2957 -0.0220
14875TIP3    H166040   5.522   0.991  13.115 -1.1311 -1.2335  1.3775
14875TIP3    H266041   5.425   1.088  13.178  0.7437  1.8618 -0.2291
14876TIP3   OH266042   2.342   0.085   0.237 -0.0637 -0.3525  0.7957
14876TIP3    H166043   2.290   0.163   0.255 -2.5252 -0.7950 -3.2360
14876TIP3    H266044   2.433   0.116   0.235 -0.4735  1.3677  3.6488
14877TIP3   OH266045   1.560   3.669  13.634 -0.3727 -0.1473  0.0948
14877TIP3    H166046   1.617   3.620  13.576  1.5112 -0.4796  2.0877
14877TIP3    H266047   1.555   3.757  13.596 -0.4330 -0.7322 -1.3061
14878TIP3   OH266048   0.100   1.629  11.036 -0.2992  0.0161  0.4264
14878TIP3    H166049   0.097   1.719  11.002 -1.1518  0.3705  1.3871
14878TIP3    H266050   0.009   1.599  11.033  0.1777 -1.4290 -1.3923
14879TIP3   OH266051   5.091   3.909  12.966 -0.0228  0.3242  0.1869
14879TIP3    H166052   5.156   3.849  12.929  0.7378  1.1838  0.0858
14879TIP3    H266053   5.098   3.897  13.061  0.2533  0.3831  0.1747
14880TIP3   OH266054   6.586   6.391  11.007  0.2416  0.0363 -0.2971
14880TIP3    H166055   6.644   6.446  11.060 -1.2827  1.0156  0.4012
14880TIP3    H266056   6.603   6.302  11.038  3.0413 -0.0625 -1.7175
14881TIP3   OH266057   5.564   2.944  13.263  0.7106 -0.0604  0.1516
14881TIP3    H166058   5.648   2.903  13.284  1.5266  1.8708  0.8256
14881TIP3    H266059   5.578   3.037  13.279 -1.9935  0.1669  1.7549
14882TIP3   OH266060   4.515   3.364   2.039  0.2344  0.1461  0.0247
14882TIP3    H166061   4.538   3.303   2.109  0.7677  1.7911  1.3579
14882TIP3    H266062   4.435   3.328   2.001 -0.0447 -0.8214  1.4447
14883TIP3   OH266063   4.996   5.610  14.378 -0.0834 -1.2412  0.3348
14883TIP3    H166064   4.906   5.640  14.391 -0.1986 -1.1731 -0.5480
14883TIP3    H266065   5.043   5.688  14.348 -0.0796 -1.6237 -0.6776
14884TIP3   OH266066   2.337   5.708  11.598 -0.4650 -0.4493 -0.0469
14884TIP3    H166067   2.273   5.704  11.527 -0.9624 -1.8637  0.4450
14884TIP3    H266068   2.385   5.625  11.592  0.4980  0.0566  0.3621
14885TIP3   OH266069   1.444   6.315   0.412  0.0234  0.5794  0.0523
14885TIP3    H166070   1.480   6.269   0.336  0.2624 -0.1800  0.6082
14885TIP3    H266071   1.521   6.346   0.460 -0.1182  0.8505  0.1049
14886TIP3   OH266072   1.454   5.931  11.709 -0.4803  0.3046  0.2332
14886TIP3    H166073   1.541   5.967  11.695 -0.9860  1.1640 -0.8580
14886TIP3    H266074   1.397   5.985  11.655 -1.6571 -0.4113  0.7230
14887TIP3   OH266075   6.505   2.299   2.840 -0.3665  0.7761 -0.8400
14887TIP3    H166076   6.410   2.314   2.845 -0.4565  0.1246 -0.3526
14887TIP3    H266077   6.514   2.228   2.777 -0.1500  1.2424 -1.3345
14888TIP3   OH266078   5.977   5.305  12.184 -0.8722  0.5970 -0.1180
14888TIP3    H166079   5.925   5.249  12.126 -0.0944 -1.1618  0.8276
14888TIP3    H266080   5.975   5.261  12.269  0.1476  1.7803  0.5514
14889TIP3   OH266081   4.256   2.431  11.867 -0.0847 -0.3097 -0.3875
14889TIP3    H166082   4.200   2.503  11.897 -1.6536 -1.4169 -0.5497
14889TIP3    H266083   4.318   2.473  11.806 -2.6628  0.5745 -2.5968
14890TIP3   OH266084   4.195   5.417  16.431  0.8613 -0.2979 -0.1724
14890TIP3    H166085   4.127   5.413  16.365  1.1321  0.2361 -0.4962
14890TIP3    H266086   4.165   5.359  16.501 -0.6951  1.0960  0.3919
14891TIP3   OH266087   4.670   2.152  15.629 -0.0941 -0.2793  0.1180
14891TIP3    H166088   4.642   2.080  15.573 -0.1874 -0.9075  0.9648
14891TIP3    H266089   4.627   2.229  15.591 -0.3666 -0.7325 -0.5159
14892TIP3   OH266090   1.884   6.723   5.202  0.1050 -0.3763  0.2066
14892TIP3    H166091   1.925   6.740   5.118  0.1432 -2.5809 -0.2805
14892TIP3    H266092   1.946   6.759   5.267  0.2506  0.9954 -0.6474
14893TIP3   OH266093   0.583   0.278   5.795  0.1597  0.2460  0.1335
14893TIP3    H166094   0.557   0.263   5.886  0.3148 -2.0519 -0.1232
14893TIP3    H266095   0.654   0.215   5.781 -1.5218 -1.2662 -2.2599
14894TIP3   OH266096   6.738   4.678   0.546 -0.1649  0.2619  0.0635
14894TIP3    H166097   6.643   4.672   0.537 -0.4984 -3.1804  3.2867
14894TIP3    H266098   6.752   4.714   0.633  1.5615  1.2005 -0.5506
14895TIP3   OH266099   0.603   0.759  13.837 -0.2418 -0.4058 -0.2608
14895TIP3    H166100   0.699   0.753  13.833 -0.3234 -1.8657 -0.6292
14895TIP3    H266101   0.576   0.676  13.875 -1.3220  0.4629  0.9514
14896TIP3   OH266102   5.877   3.454  16.403 -0.2068  0.3921 -0.0512
14896TIP3    H166103   5.871   3.391  16.332 -0.8818  0.3856  0.0045
14896TIP3    H266104   5.962   3.497  16.390  0.3542 -0.6626  0.0366
14897TIP3   OH266105   4.272   6.355   3.391 -0.6319 -0.2278 -0.6915
14897TIP3    H166106   4.209   6.317   3.452  0.4619 -0.9659  0.0259
14897TIP3    H266107   4.251   6.448   3.389  1.3362  0.5650  3.5406
14898TIP3   OH266108   2.802   3.075   5.877  0.5127 -0.4215 -0.1239
14898TIP3    H166109   2.817   3.148   5.936  0.7469  0.3394 -1.0854
14898TIP3    H266110   2.878   3.018   5.889  1.7162  0.8495 -1.2639
14899TIP3   OH266111   4.376   0.538   4.395 -0.3599 -0.4121  0.0079
14899TIP3    H166112   4.306   0.473   4.404 -0.4908 -0.1465  1.0507
14899TIP3    H266113   4.425   0.532   4.477 -0.3146  0.7317  0.0735
14900TIP3   OH266114   2.160   2.562  13.648  0.5552  0.3036 -0.6914
14900TIP3    H166115   2.182   2.606  13.566  1.7502  1.2991  0.1330
14900TIP3    H266116   2.143   2.471  13.623  3.5127 -0.0560 -1.7255
14901TIP3   OH266117   6.235   6.011   4.217 -0.4085 -0.4554  0.3756
14901TIP3    H166118   6.219   6.082   4.279  0.7999 -0.1581  0.3754
14901TIP3    H266119   6.208   5.932   4.263  0.1150 -0.1962  1.1575
14902TIP3   OH266120   6.301   0.734  16.240  0.6672  0.1136 -0.4475
14902TIP3    H166121   6.339   0.771  16.319  0.9789  2.5234 -1.6180
14902TIP3    H266122   6.372   0.737  16.175 -0.7490  2.6487 -2.0574
14903TIP3   OH266123   5.375   5.343   2.867 -0.3533  0.1788 -0.8853
14903TIP3    H166124   5.407   5.433   2.874 -0.1640  0.0629 -0.1800
14903TIP3    H266125   5.443   5.298   2.817  0.6728 -0.0838  0.6810
14904TIP3   OH266126   0.314   5.161   0.222  0.3638  0.3130  0.1173
14904TIP3    H166127   0.246   5.146   0.288 -0.1278  0.3556 -0.3726
14904TIP3    H266128   0.392   5.181   0.273 -0.2357  1.3390  0.6826
14905TIP3   OH266129   5.201   4.029  12.125 -0.1913 -0.4400  0.2895
14905TIP3    H166130   5.126   3.983  12.164 -0.0522 -0.7136  0.2339
14905TIP3    H266131   5.271   4.020  12.190 -0.6014  0.9925  0.9607
14906TIP3   OH266132   3.848   3.639   1.275  0.6378  0.7138 -0.5600
14906TIP3    H166133   3.779   3.705   1.269  1.4250  1.5216 -0.9372
14906TIP3    H266134   3.913   3.666   1.210  1.7656  0.5026  0.4391
14907TIP3   OH266135   0.996   3.715  12.368  1.0205 -0.0217  0.2237
14907TIP3    H166136   0.991   3.786  12.305  0.8910 -0.0921  0.1558
14907TIP3    H266137   1.078   3.732  12.416  0.8555  0.3213  0.3886
14908TIP3   OH266138   0.704   5.322  14.037 -0.2529 -0.7207 -0.3527
14908TIP3    H166139   0.700   5.317  14.133  0.9095 -2.4084 -0.3441
14908TIP3    H266140   0.796   5.338  14.017  0.5147 -4.9993 -1.1942
14909TIP3   OH266141   1.213   3.042  13.437 -0.0817 -0.0510 -0.2539
14909TIP3    H166142   1.232   3.045  13.531  0.3134 -4.7499  0.0281
14909TIP3    H266143   1.298   3.055  13.396  0.3918 -1.4202  0.2384
14910TIP3   OH266144   5.581   5.138   0.033  0.0918 -0.5149  0.5441
14910TIP3    H166145   5.545   5.223   0.056  1.8615  0.3363  0.3153
14910TIP3    H266146   5.628   5.110   0.112  0.5416 -0.7167  0.2029
14911TIP3   OH266147   0.184   0.743  14.346 -0.4891 -0.2842  0.2092
14911TIP3    H166148   0.170   0.747  14.440  0.0334 -1.8319  0.3800
14911TIP3    H266149   0.210   0.832  14.322  2.1653 -0.4651  2.0089
14912TIP3   OH266150   0.070   4.666  15.618 -0.0608  0.0550  0.7446
14912TIP3    H166151   0.070   4.711  15.533  1.7622 -0.7774  0.2555
14912TIP3    H266152   0.126   4.720  15.674  0.0445 -0.2524  0.9382
14913TIP3   OH266153   4.861   5.732   5.897  0.9168 -0.0035  0.9443
14913TIP3    H166154   4.895   5.648   5.866  2.2708 -0.0514  2.4054
14913TIP3    H266155   4.934   5.793   5.885 -0.5924  1.4272 -1.6832
14914TIP3   OH266156   2.730   4.391  13.273  0.3012  0.2478  0.6030
14914TIP3    H166157   2.723   4.346  13.357 -1.8331 -0.9900 -0.1692
14914TIP3    H266158   2.801   4.454  13.285  2.6217 -2.4559  2.1314
14915TIP3   OH266159   2.209   1.583   3.312 -0.2962 -0.7019 -0.3526
14915TIP3    H166160   2.200   1.672   3.347 -0.1600 -1.5331  1.9903
14915TIP3    H266161   2.123   1.543   3.324 -0.5376 -0.7403 -1.9759
14916TIP3   OH266162   2.420   6.181  11.670  0.4315 -0.3678  0.2544
14916TIP3    H166163   2.470   6.216  11.744  1.6992  3.3957 -2.1152
14916TIP3    H266164   2.484   6.133  11.618 -0.0560 -1.5083  0.6921
14917TIP3   OH266165   0.767   0.019   4.018 -0.1636 -0.3450 -0.2938
14917TIP3    H166166   0.689   0.041   4.071  0.3718 -0.7503  0.6946
14917TIP3    H266167   0.822  -0.032   4.078 -0.1519 -2.0527 -1.6847
14918TIP3   OH266168   6.532   1.765  14.009  0.1834 -0.1775  0.3673
14918TIP3    H166169   6.595   1.722  14.067 -0.3861  0.7219  1.6963
14918TIP3    H266170   6.448   1.756  14.053  0.0267  2.2416  0.7438
14919TIP3   OH266171   3.934   4.857   0.206 -0.6094  0.3344  0.4270
14919TIP3    H166172   3.867   4.913   0.245 -2.1093 -0.5231 -0.8199
14919TIP3    H266173   3.885   4.797   0.150  1.3669  1.2698 -2.5109
14920TIP3   OH266174   1.873   3.690  12.462  0.2986 -0.3467 -0.0666
14920TIP3    H166175   1.903   3.696  12.372 -0.8012 -0.0897 -0.4330
14920TIP3    H266176   1.826   3.607  12.467 -1.0503  0.3833 -0.1895
14921TIP3   OH266177   1.140   3.047  13.734 -0.1039 -0.0640  0.4082
14921TIP3    H166178   1.067   2.988  13.756  0.1672 -0.3173  0.6379
14921TIP3    H266179   1.159   3.092  13.816  1.3406 -1.4763  0.9085
14922TIP3   OH266180   5.474   5.510   6.078  0.2623  0.4022  0.2780
14922TIP3    H166181   5.537   5.576   6.049  2.3216 -1.4073  0.3536
14922TIP3    H266182   5.512   5.475   6.159 -1.2580 -0.2282  0.7496
14923TIP3   OH266183   3.854   5.481  14.121 -0.2505  0.3978  0.2528
14923TIP3    H166184   3.837   5.398  14.077 -0.6308  1.1651 -1.0811
14923TIP3    H266185   3.847   5.460  14.214 -3.1838 -0.4999 -0.0727
14924TIP3   OH266186   4.089   0.388   3.535  0.3119  0.4648 -0.8261
14924TIP3    H166187   4.127   0.421   3.617 -0.1689 -0.3808 -0.2555
14924TIP3    H266188   4.033   0.460   3.505 -1.1260  0.0379  0.6757
14925TIP3   OH266189   4.748   6.736   2.059  0.1444 -0.4824 -0.0859
14925TIP3    H166190   4.798   6.738   2.141 -0.3483  0.7646  0.1983
14925TIP3    H266191   4.685   6.807   2.067  0.1500 -0.2726 -1.5936
14926TIP3   OH266192   2.256   2.401  14.295  0.6635 -0.0715  0.2846
14926TIP3    H166193   2.204   2.479  14.315 -0.6404 -0.2154 -2.0855
14926TIP3    H266194   2.302   2.423  14.214  0.4829 -1.6343 -0.2838
14927TIP3   OH266195   2.619   4.501   4.820  0.5509 -0.2878  0.4147
14927TIP3    H166196   2.609   4.590   4.854  1.0318 -0.6010  1.4158
14927TIP3    H266197   2.615   4.511   4.725 -0.3339  0.6814  0.5313
14928TIP3   OH266198   3.657   2.330  16.355  0.2235 -0.1894 -0.0547
14928TIP3    H166199   3.615   2.406  16.314  0.3297 -0.5464 -0.8571
14928TIP3    H266200   3.744   2.327  16.314  1.4594  1.1145  2.2555
14929TIP3   OH266201   0.582   5.239   2.513  0.0754 -0.2167  0.3750
14929TIP3    H166202   0.573   5.149   2.482 -0.9547  0.1604 -0.4976
14929TIP3    H266203   0.508   5.252   2.572 -0.6913  0.5121 -0.7056
14930TIP3   OH266204   6.751   3.662  12.618  0.3151  0.9821  0.2178
14930TIP3    H166205   6.659   3.645  12.595  0.4378  0.7813 -0.1396
14930TIP3    H266206   6.761   3.756  12.609 -0.6715  1.5028  3.3078
14931TIP3   OH266207   4.711   6.482  14.671  0.0895 -0.3048 -0.6004
14931TIP3    H166208   4.696   6.496  14.764 -0.1702  0.0300 -0.6865
14931TIP3    H266209   4.795   6.437  14.666 -0.3539 -1.2150 -0.1563
14932TIP3   OH266210   0.842   2.202   0.725 -0.4460  0.5792  0.0212
14932TIP3    H166211   0.784   2.200   0.800 -1.2689 -1.0512 -0.6051
14932TIP3    H266212   0.798   2.149   0.658  1.2447  0.1627 -0.8493
14933TIP3   OH266213   1.881   5.165  14.276  0.0619  0.2580  0.0972
14933TIP3    H166214   1.880   5.089  14.335  1.4376 -0.0516 -0.2543
14933TIP3    H266215   1.968   5.203  14.286  0.7477 -0.4484 -2.5172
14934TIP3   OH266216   4.609   6.086  14.026  0.2470  0.1724 -0.8958
14934TIP3    H166217   4.650   6.172  14.029  1.4597 -0.3769 -0.8291
14934TIP3    H266218   4.624   6.056  13.936 -0.2747  0.0882 -0.9541
14935TIP3   OH266219   5.694   1.630  12.486  0.2530 -0.1040  0.0992
14935TIP3    H166220   5.681   1.723  12.507 -1.9654 -0.5062  0.7854
14935TIP3    H266221   5.608   1.591  12.499  0.7967 -2.0174 -1.6128
14936TIP3   OH266222   5.566   5.528   3.872  0.1327  0.1695 -0.3227
14936TIP3    H166223   5.556   5.616   3.837 -1.1975  0.3410  0.4356
14936TIP3    H266224   5.626   5.484   3.810 -0.2467  1.1827 -1.4445
14937TIP3   OH266225   6.408   5.992  14.260 -0.6089  0.0636  0.1164
14937TIP3    H166226   6.474   5.947  14.312  0.3572  0.4774 -0.7096
14937TIP3    H266227   6.419   6.085  14.280 -0.6362  0.1756 -0.3685
14938TIP3   OH266228   6.143   0.720   4.204 -0.5771 -0.7768 -0.2967
14938TIP3    H166229   6.205   0.658   4.244  0.3066 -0.7468 -1.5482
14938TIP3    H266230   6.199   0.787   4.165 -1.4764  0.0542 -0.1959
14939TIP3   OH266231   2.784   5.024  12.796 -0.1875 -0.2390 -0.4431
14939TIP3    H166232   2.825   4.980  12.722 -1.1974 -1.2373 -0.4203
14939TIP3    H266233   2.851   5.087  12.825  0.1874  0.2841 -2.2586
14940TIP3   OH266234   1.443   2.838   1.660  0.3942  0.4976 -0.0120
14940TIP3    H166235   1.482   2.816   1.575 -0.7885 -0.0307 -0.4349
14940TIP3    H266236   1.352   2.810   1.652  0.2785  0.4274  1.4474
14941TIP3   OH266237   1.390   6.131  14.697  0.1215  0.3561  0.1391
14941TIP3    H166238   1.443   6.141  14.619  1.0510 -1.3870  0.4908
14941TIP3    H266239   1.392   6.216  14.740  1.2725  0.7638 -0.7053
14942TIP3   OH266240   4.008   4.181  16.290 -0.3331 -0.6073  0.2742
14942TIP3    H166241   3.994   4.180  16.195  1.6600  2.5988 -0.1895
14942TIP3    H266242   3.930   4.224  16.325  0.1726  0.7818 -0.2593
14943TIP3   OH266243   0.194   6.149  11.158 -0.2560 -0.4669 -0.1976
14943TIP3    H166244   0.211   6.106  11.241 -0.7376 -0.7920 -0.2614
14943TIP3    H266245   0.118   6.103  11.122  0.7412 -1.2019 -1.4406
14944TIP3   OH266246   4.955   6.331  15.287 -0.2547  0.3566  0.1698
14944TIP3    H166247   5.000   6.409  15.257  0.2231  0.7635  1.8620
14944TIP3    H266248   5.021   6.262  15.284 -0.0957  0.4849  0.6360
14945TIP3   OH266249   0.131   6.081   4.341  0.0907 -0.4398 -0.3865
14945TIP3    H166250   0.145   6.036   4.424 -1.3118  2.5030  1.6392
14945TIP3    H266251   0.037   6.098   4.338  0.2597  0.4694 -2.0296
14946TIP3   OH266252   3.475   4.470   1.164  0.0965 -0.6894 -0.3803
14946TIP3    H166253   3.559   4.480   1.208 -0.7730 -1.5869  1.6384
14946TIP3    H266254   3.436   4.557   1.167 -0.7426 -1.0336  2.5628
14947TIP3   OH266255   5.196   0.255  16.834 -0.7203  0.4711 -0.4049
14947TIP3    H166256   5.142   0.282  16.760  1.8171  0.2778 -2.4850
14947TIP3    H266257   5.272   0.314  16.831  0.3933 -0.8316  0.8082
14948TIP3   OH266258   5.233   2.633  11.378 -0.0581 -0.5432 -0.7009
14948TIP3    H166259   5.143   2.611  11.404  0.5192  0.0839  2.1642
14948TIP3    H266260   5.283   2.554  11.395  0.5204  0.2015  1.3085
14949TIP3   OH266261   1.164   0.158   5.253 -0.2364  0.5572 -0.0748
14949TIP3    H166262   1.160   0.064   5.270  0.4211  0.4333 -0.5791
14949TIP3    H266263   1.157   0.199   5.339  0.4012  0.0149  0.2404
14950TIP3   OH266264   1.532   4.013   4.456  0.1804 -0.3145  0.2381
14950TIP3    H166265   1.459   4.069   4.429  1.5775  2.0652  1.0592
14950TIP3    H266266   1.499   3.924   4.445 -2.6706  0.6353  0.1463
14951TIP3   OH266267   3.322   3.176   3.951  0.2693  0.5709  0.7597
14951TIP3    H166268   3.358   3.105   3.897 -0.7796 -0.1831  1.0142
14951TIP3    H266269   3.397   3.234   3.967  0.3281  1.7594 -2.8586
14952TIP3   OH266270   4.873   3.152  14.680  0.5513 -0.0316  0.2394
14952TIP3    H166271   4.958   3.109  14.672  0.5019  0.0498 -0.8485
14952TIP3    H266272   4.810   3.082  14.664  0.4676  0.3560 -1.2684
14953TIP3   OH266273   2.600   5.966  16.444 -0.0134 -0.6877 -0.7239
14953TIP3    H166274   2.567   6.048  16.482 -0.8229 -1.7637  1.0337
14953TIP3    H266275   2.693   5.984  16.427 -0.2304  0.6726 -0.6420
14954TIP3   OH266276   1.807   0.449   0.320  0.2965  0.4287 -0.8127
14954TIP3    H166277   1.737   0.384   0.322  0.3593  0.3151 -1.6947
14954TIP3    H266278   1.764   0.529   0.290  0.2894  0.7082 -0.0716
14955TIP3   OH266279   3.886   0.841  15.173  0.4107  0.0257 -0.1783
14955TIP3    H166280   3.976   0.855  15.201  0.7997  0.3582 -1.4980
14955TIP3    H266281   3.891   0.767  15.112 -0.2999 -0.3280  0.1796
14956TIP3   OH266282   2.896   1.590  14.707  0.0090 -0.5208 -0.0474
14956TIP3    H166283   2.962   1.637  14.656  1.1819 -0.0686  1.8115
14956TIP3    H266284   2.909   1.498  14.685 -0.4733 -0.2494 -1.6147
14957TIP3   OH266285   1.512   2.319  14.994  0.9039 -0.6798  0.1783
14957TIP3    H166286   1.449   2.329  15.065  0.2830 -1.2187 -0.2796
14957TIP3    H266287   1.596   2.340  15.033  0.5458 -0.7820  1.0215
14958TIP3   OH266288   5.072   0.531  16.973  0.2047 -0.2985 -0.3418
14958TIP3    H166289   5.084   0.528  17.068  1.6768 -1.2662 -0.5317
14958TIP3    H266290   5.156   0.503  16.937 -0.2028  0.4433 -1.9486
14959TIP3   OH266291   2.794   3.305  15.851  0.0870  0.3393  0.1051
14959TIP3    H166292   2.804   3.390  15.807  0.3165 -0.1533 -0.8217
14959TIP3    H266293   2.884   3.275  15.867  0.0332 -0.2548 -0.6370
14960TIP3   OH266294   1.046   0.362   0.962  0.6310  0.1760  0.0610
14960TIP3    H166295   0.969   0.352   0.905 -0.5714 -0.0718  1.6480
14960TIP3    H266296   1.074   0.453   0.949  0.0950  0.2615 -0.5643
14961TIP3   OH266297   3.038   2.092   1.642 -0.2063  0.4854  0.2124
14961TIP3    H166298   2.985   2.016   1.665 -0.7391  0.3322 -1.3846
14961TIP3    H266299   3.039   2.146   1.721 -1.1794 -0.3993  0.8531
14962TIP3   OH266300   0.926   2.725   1.290  0.8489  0.2096  0.0612
14962TIP3    H166301   0.936   2.633   1.266  0.2585 -0.4848  2.2357
14962TIP3    H266302   0.926   2.772   1.207 -1.9567 -2.0205 -1.3566
14963TIP3   OH266303   5.480   6.258  12.720 -0.1837  0.0287  0.3052
14963TIP3    H166304   5.473   6.166  12.747  0.6715 -0.5879 -1.4393
14963TIP3    H266305   5.519   6.254  12.633  1.7729  2.1499  0.9900
14964TIP3   OH266306   0.554   5.341   6.130 -0.3756 -0.0163  0.1518
14964TIP3    H166307   0.547   5.396   6.052 -2.2166  0.5769  0.6714
14964TIP3    H266308   0.536   5.402   6.203 -0.6527 -0.9443  0.8757
14965TIP3   OH266309   4.764   2.968  16.063 -0.2302 -0.0290  0.1453
14965TIP3    H166310   4.706   2.913  16.011  0.8993  0.1584 -1.3936
14965TIP3    H266311   4.758   3.054  16.023  1.0042  0.0146  0.0057
14966TIP3   OH266312   2.947   2.982   4.799  0.0059  0.1603 -0.4065
14966TIP3    H166313   2.966   3.074   4.780 -0.5558  0.4401  0.3332
14966TIP3    H266314   2.995   2.964   4.880 -1.6108  0.4448  0.6621
14967TIP3   OH266315   1.960   2.900   0.848 -0.2770  0.1468  0.4900
14967TIP3    H166316   2.027   2.846   0.806  0.7731  0.9925  1.0370
14967TIP3    H266317   1.900   2.836   0.888  1.3271 -0.6440  1.7313
14968TIP3   OH266318   2.734   1.103  11.434  0.2996 -0.2956  0.4408
14968TIP3    H166319   2.791   1.174  11.466  2.6011  0.0845 -3.6874
14968TIP3    H266320   2.669   1.148  11.380 -0.1264 -1.1061  0.2696
14969TIP3   OH266321   1.692   5.824  17.091  0.5016  0.8346 -0.2445
14969TIP3    H166322   1.680   5.738  17.051  1.5810  0.5676 -0.0116
14969TIP3    H266323   1.716   5.806  17.181 -1.1399  1.4273  0.3584
14970TIP3   OH266324   5.404   5.114   3.307 -0.4792 -0.3536  0.2339
14970TIP3    H166325   5.313   5.085   3.317 -1.2388  2.1440  1.2802
14970TIP3    H266326   5.409   5.196   3.356  1.7381  0.8325 -1.7580
14971TIP3   OH266327   3.184   2.136   4.349 -0.4371 -0.1066  0.1603
14971TIP3    H166328   3.150   2.172   4.267 -3.4443 -2.2001  0.3452
14971TIP3    H266329   3.272   2.106   4.327 -0.6684  0.5966 -1.9336
14972TIP3   OH266330   4.196   2.118  13.067 -0.4235  0.5342 -0.3577
14972TIP3    H166331   4.174   2.125  12.974 -1.5943 -0.5672 -0.1855
14972TIP3    H266332   4.157   2.035  13.095 -2.1515  1.9563  1.6837
14973TIP3   OH266333   1.355   3.982  15.050  0.3913 -0.5368 -0.3893
14973TIP3    H166334   1.360   3.892  15.018  2.0764 -0.4832 -0.3551
14973TIP3    H266335   1.319   3.974  15.138  0.3888 -1.1637 -0.4457
14974TIP3   OH266336   2.296   1.445   0.419 -0.7004  0.2949 -0.0286
14974TIP3    H166337   2.252   1.474   0.339 -0.2578  1.1769  0.0368
14974TIP3    H266338   2.386   1.476   0.409  0.7821 -3.8258 -1.4359
14975TIP3   OH266339   3.494   0.077   0.745 -0.1807 -0.2100  0.2241
14975TIP3    H166340   3.512   0.135   0.819 -0.9292 -1.0447  1.0973
14975TIP3    H266341   3.539   0.117   0.671  0.8478  0.4831  1.1977
14976TIP3   OH266342   0.131   6.662   2.296  0.1289  0.2627  0.3367
14976TIP3    H166343   0.153   6.755   2.283  1.3271  0.1683  1.4013
14976TIP3    H266344   0.211   6.616   2.270  0.3964 -0.2911  2.0252
14977TIP3   OH266345   0.142   1.356   3.478  0.0844  0.4942  0.4276
14977TIP3    H166346   0.060   1.307   3.471  0.8885 -0.7860 -0.6353
14977TIP3    H266347   0.210   1.288   3.485  1.2435  1.4348 -0.9956
14978TIP3   OH266348   2.166   6.366   5.678  0.0915 -0.5985  0.1381
14978TIP3    H166349   2.154   6.427   5.606 -0.3034 -2.0716 -1.0898
14978TIP3    H266350   2.146   6.417   5.757  0.7822  1.1071 -0.7507
14979TIP3   OH266351   3.611   3.855  14.754 -0.3829  0.1373 -0.1006
14979TIP3    H166352   3.524   3.879  14.721  0.1131  1.1114 -0.7545
14979TIP3    H266353   3.650   3.804  14.684 -0.3066 -0.0150  0.0559
14980TIP3   OH266354   2.337   5.907  16.142  0.3720 -0.2309  0.2084
14980TIP3    H166355   2.371   5.996  16.145 -1.3163  0.6984 -3.0979
14980TIP3    H266356   2.280   5.901  16.219  2.2078  0.6936  1.7155
14981TIP3   OH266357   0.246   5.722  12.565 -0.5866  0.2315  0.1266
14981TIP3    H166358   0.230   5.630  12.546 -1.1064 -0.2203  2.4795
14981TIP3    H266359   0.332   5.723  12.608 -1.3407  0.5677  1.6933
14982TIP3   OH266360   4.956   0.939   5.180  0.1730  0.6285 -0.2753
14982TIP3    H166361   4.931   1.019   5.228  0.0808  0.3051  0.2262
14982TIP3    H266362   5.013   0.970   5.110 -0.3499  1.2050 -0.4569
14983TIP3   OH266363   5.576   1.084   0.931 -0.7317  0.0366 -0.7068
14983TIP3    H166364   5.582   1.162   0.876  1.6880  1.5183  1.4124
14983TIP3    H266365   5.541   1.116   1.015 -2.0589 -1.6786 -0.5371
14984TIP3   OH266366   3.868   4.507   6.082  0.0901 -0.0267  0.3772
14984TIP3    H166367   3.794   4.566   6.096 -0.9602 -1.5651  1.5546
14984TIP3    H266368   3.841   4.424   6.120  2.0544 -0.9198 -0.0377
14985TIP3   OH266369   1.603   4.075   0.475 -0.2590  0.7565  0.1305
14985TIP3    H166370   1.605   4.168   0.453  0.0112  0.7500  0.1292
14985TIP3    H266371   1.526   4.066   0.531  0.7870  1.3447  1.7325
14986TIP3   OH266372   3.493   3.089  13.400  0.0098 -0.2246 -0.3980
14986TIP3    H166373   3.512   3.179  13.428 -0.3926  0.0127 -0.8834
14986TIP3    H266374   3.580   3.050  13.389  0.1930 -0.2854  1.0082
14987TIP3   OH266375   5.143   6.013  14.369  0.5360 -0.3439  0.3040
14987TIP3    H166376   5.100   6.084  14.322 -1.7895  0.1087  2.8634
14987TIP3    H266377   5.212   6.055  14.420  0.9311 -0.3419 -0.2321
14988TIP3   OH266378   1.749   6.326   6.556  0.2759 -0.1741 -0.3907
14988TIP3    H166379   1.815   6.371   6.503 -0.8016  0.4847 -1.2229
14988TIP3    H266380   1.796   6.252   6.595  1.4343  0.1109 -1.1729
14989TIP3   OH266381   5.377   5.546  13.741  0.1720 -0.7206  0.5537
14989TIP3    H166382   5.445   5.545  13.809  1.7264 -0.6872 -0.9135
14989TIP3    H266383   5.416   5.498  13.668 -1.3439 -0.5470 -0.4158
14990TIP3   OH266384   2.105   5.674   2.058  0.1022 -0.0235  0.5118
14990TIP3    H166385   2.166   5.735   2.017 -0.3057  0.6241  0.8524
14990TIP3    H266386   2.029   5.674   2.000 -1.2868  2.3682  2.1535
14991TIP3   OH266387   0.511   4.762   2.112  0.0589  0.0668  0.7529
14991TIP3    H166388   0.576   4.776   2.043 -0.1110  0.8639  0.7435
14991TIP3    H266389   0.444   4.707   2.072 -0.4079  1.1200  0.0352
14992TIP3   OH266390   6.532   4.367   1.646  0.2902  0.1251  0.1170
14992TIP3    H166391   6.568   4.456   1.654  0.4481 -0.0106  1.0938
14992TIP3    H266392   6.569   4.334   1.564 -0.9611  1.4819 -1.0491
14993TIP3   OH266393   0.676   4.263  14.754  0.9627  1.0052 -0.2226
14993TIP3    H166394   0.748   4.318  14.723  2.2205 -0.7162 -0.5213
14993TIP3    H266395   0.719   4.187  14.794 -0.6457 -0.6853 -1.5214
14994TIP3   OH266396   4.393   1.058  11.029  0.1187  0.0498 -0.2758
14994TIP3    H166397   4.423   1.115  10.957  0.1823 -0.5199 -0.7085
14994TIP3    H266398   4.473   1.037  11.077  0.3790 -1.0835 -1.1518
14995TIP3   OH266399   5.827   4.313  11.546 -0.6680 -0.4158 -0.0942
14995TIP3    H166400   5.809   4.233  11.596  0.3891 -0.4932  0.1908
14995TIP3    H266401   5.893   4.359  11.597  0.1451 -0.3015 -1.2015
14996TIP3   OH266402   4.026   6.180  16.841 -1.0353  0.2413  0.1315
14996TIP3    H166403   4.058   6.246  16.903 -0.6114 -0.8195  1.0870
14996TIP3    H266404   3.968   6.228  16.782  1.2989  2.0054 -0.8668
14997TIP3   OH266405   6.648   0.537   1.704 -0.8040  0.2025 -0.2103
14997TIP3    H166406   6.634   0.589   1.783 -0.6029  0.7095 -0.5023
14997TIP3    H266407   6.727   0.574   1.664 -0.6037 -0.3892 -0.3733
14998TIP3   OH266408   2.839   6.633   3.157 -0.6461 -0.1546  0.2807
14998TIP3    H166409   2.814   6.671   3.241 -2.7889  0.4837 -0.5821
14998TIP3    H266410   2.756   6.610   3.115  0.4102 -1.3065 -1.2914
14999TIP3   OH266411   0.780   3.878  11.631  0.3226  0.0283 -0.1935
14999TIP3    H166412   0.871   3.876  11.663  0.2674 -0.7419 -0.0596
14999TIP3    H266413   0.754   3.786  11.630 -1.3113  0.3722  2.2282
15000TIP3   OH266414   4.472   2.411  16.954 -0.4623 -0.3556  0.2694
15000TIP3    H166415   4.455   2.470  16.880 -0.1543 -0.2935  0.2452
15000TIP3    H266416   4.471   2.469  17.030 -0.4969 -0.3729  0.2813
15001TIP3   OH266417   1.410   4.397   1.557 -0.3289  0.1036 -0.0438
15001TIP3    H166418   1.497   4.390   1.595 -0.4724 -0.3374  0.2170
15001TIP3    H266419   1.415   4.351   1.474 -0.3341 -0.0028  0.0142
15002TIP3   OH266420   2.238   6.560  16.365 -0.3500 -0.0985 -0.5365
15002TIP3    H166421   2.152   6.594  16.339 -0.6541 -0.8017 -0.4825
15002TIP3    H266422   2.276   6.629  16.419  0.5428  1.6671 -3.2222
15003TIP3   OH266423   3.369   4.312  11.933 -0.5796 -0.6647 -0.6412
15003TIP3    H166424   3.331   4.224  11.933 -0.1174 -0.8715 -1.4555
15003TIP3    H266425   3.359   4.342  11.843 -0.2669 -0.0897 -0.4857
15004TIP3   OH266426   3.124   3.627   0.714  0.2826 -0.6253  0.0284
15004TIP3    H166427   3.195   3.569   0.745  0.7228 -0.1595 -0.0915
15004TIP3    H266428   3.169   3.690   0.658  0.1427  1.1061  1.7642
15005TIP3   OH266429   1.475   5.171   3.711  0.3425 -0.7487  0.6318
15005TIP3    H166430   1.391   5.139   3.745 -1.2252  0.8539 -1.3704
15005TIP3    H266431   1.520   5.093   3.680 -0.9515 -1.5570  0.6942
15006TIP3   OH266432   5.452   6.222   3.475  0.1936 -0.5532  0.5222
15006TIP3    H166433   5.401   6.228   3.555  0.0065  1.1546  0.3181
15006TIP3    H266434   5.406   6.158   3.421 -1.4175  0.5001  0.5791
15007TIP3   OH266435   6.024   3.196  13.772 -0.6784  0.0609  0.3176
15007TIP3    H166436   6.111   3.210  13.736 -1.0070 -0.0705 -0.5570
15007TIP3    H266437   6.038   3.184  13.866  0.6998 -3.6091 -0.1944
15008TIP3   OH266438   2.181   2.482   4.977  0.2406  0.4358 -1.0827
15008TIP3    H166439   2.222   2.400   5.006  0.1695 -0.4118 -3.1810
15008TIP3    H266440   2.105   2.493   5.035 -0.1874 -1.4100 -1.2408
15009TIP3   OH266441   6.712   2.532  14.396  0.5217 -0.0627 -0.6634
15009TIP3    H166442   6.649   2.469  14.430  0.6993 -0.6275 -1.3513
15009TIP3    H266443   6.797   2.501  14.426  0.4125  1.3079  1.1967
15010TIP3   OH266444   3.856   1.460   3.558  0.3362 -0.3813  0.5069
15010TIP3    H166445   3.814   1.488   3.639 -0.7412 -0.2387 -0.0821
15010TIP3    H266446   3.895   1.539   3.521  0.3300 -0.3362  0.5990
15011TIP3   OH266447   1.259   1.196  13.704  0.0074 -0.6463  0.3109
15011TIP3    H166448   1.324   1.261  13.731 -0.8505  1.5441 -2.3651
15011TIP3    H266449   1.176   1.244  13.708 -0.9622 -2.2790  0.2849
15012TIP3   OH266450   0.362   3.792   2.234 -0.4085 -0.0768  0.4195
15012TIP3    H166451   0.372   3.786   2.139  1.8471  0.4011  0.5657
15012TIP3    H266452   0.435   3.740   2.269 -2.0399 -1.4859  1.9445
15013TIP3   OH266453   3.892   2.981  12.522  0.0762 -0.0795  0.3483
15013TIP3    H166454   3.914   2.893  12.550  0.3545 -0.6030 -1.4071
15013TIP3    H266455   3.944   2.995  12.443 -0.3029  1.4882  0.3422
15014TIP3   OH266456   6.192   0.219  14.854  0.6241 -0.0160 -0.3311
15014TIP3    H166457   6.116   0.173  14.820  0.7286 -0.6170  0.2152
15014TIP3    H266458   6.194   0.196  14.947  0.6208  1.1870 -0.0118
15015TIP3   OH266459   0.859   5.684   6.563 -0.2185 -0.8761  0.0687
15015TIP3    H166460   0.829   5.704   6.474 -0.2755  0.4690  0.3639
15015TIP3    H266461   0.836   5.593   6.576  0.5260 -1.3428 -1.5963
15016TIP3   OH266462   4.722   3.083   3.298 -0.0026 -0.4249  0.1668
15016TIP3    H166463   4.680   3.003   3.329 -0.3919 -0.1375  0.3902
15016TIP3    H266464   4.782   3.107   3.369 -0.3467 -0.1754  0.3744
15017TIP3   OH266465   5.287   1.088   0.449 -0.3082 -0.5152  0.6407
15017TIP3    H166466   5.287   1.123   0.538 -2.4701 -2.3334  1.4455
15017TIP3    H266467   5.339   1.007   0.456 -0.5420 -0.6965  0.2589
15018TIP3   OH266468   5.729   1.136   2.421 -0.1423 -0.6640  0.0851
15018TIP3    H166469   5.714   1.077   2.348  2.7989 -2.7158  0.9772
15018TIP3    H266470   5.767   1.214   2.381 -1.3335 -0.5039 -0.8044
15019TIP3   OH266471   5.690   6.224   3.599 -0.8422 -0.0027 -0.3762
15019TIP3    H166472   5.609   6.222   3.548 -1.7869  1.8764  0.9346
15019TIP3    H266473   5.744   6.291   3.555 -0.9933  0.4538  0.1238
15020TIP3   OH266474   0.778   5.871  15.030 -0.1313  0.3690 -0.2702
15020TIP3    H166475   0.726   5.907  15.103 -0.0815  0.3879 -0.2435
15020TIP3    H266476   0.849   5.935  15.018  0.1257  0.1371 -0.0306
15021TIP3   OH266477   3.912   5.971   2.550 -0.0091 -0.2585  0.2078
15021TIP3    H166478   3.848   5.931   2.491 -1.3395 -0.4146  1.6801
15021TIP3    H266479   3.975   6.012   2.492 -0.8567 -1.0025 -1.3260
15022TIP3   OH266480   2.512   0.702  14.605 -0.1052  0.7601 -0.5574
15022TIP3    H166481   2.574   0.696  14.678 -1.4589  2.3322  0.7977
15022TIP3    H266482   2.559   0.665  14.530  1.0616 -1.7101  1.2491
15023TIP3   OH266483   4.439   4.418  11.722  0.6323 -0.2937  0.0683
15023TIP3    H166484   4.352   4.456  11.738  0.2239 -1.5520  1.0087
15023TIP3    H266485   4.423   4.324  11.715  1.4021 -0.3032 -3.7166
15024TIP3   OH266486   0.667   4.790   6.543 -0.1718  0.3577  0.0336
15024TIP3    H166487   0.757   4.770   6.517 -0.8864 -0.4177 -2.0707
15024TIP3    H266488   0.637   4.711   6.589 -0.6764 -0.6093 -1.8755
15025TIP3   OH266489   0.408   6.252   6.656  0.3043 -0.5470 -0.5379
15025TIP3    H166490   0.442   6.326   6.706  1.3148 -1.7055  0.5673
15025TIP3    H266491   0.479   6.228   6.597  0.1451 -0.8913 -0.5913
15026TIP3   OH266492   5.564   0.570  14.901 -0.8734  0.3540  0.1672
15026TIP3    H166493   5.523   0.578  14.814  0.1725  0.7627 -0.3146
15026TIP3    H266494   5.649   0.529  14.883 -0.6409  0.4580  1.0073
15027TIP3   OH266495   2.739   5.811   0.968 -0.2131 -0.3563  0.6024
15027TIP3    H166496   2.742   5.880   1.035 -0.9848 -0.0522  0.3328
15027TIP3    H266497   2.751   5.729   1.018  0.5431 -0.0549  0.9417
15028TIP3   OH266498   5.612   4.659  12.455  0.0358 -0.2492 -0.2098
15028TIP3    H166499   5.520   4.648  12.476  0.6006 -1.5630  1.9073
15028TIP3    H266500   5.625   4.609  12.374 -0.7380 -1.7772  0.5736
15029TIP3   OH266501   3.382   3.327  14.627  0.4438  0.7682  0.4910
15029TIP3    H166502   3.440   3.403  14.635 -0.2014  1.2802  0.3633
15029TIP3    H266503   3.428   3.268  14.566  1.5127  0.5020  1.5176
15030TIP3   OH266504   5.877   5.929  16.154 -0.4691  0.1712 -0.0693
15030TIP3    H166505   5.971   5.943  16.146 -0.5313  0.3345 -0.5430
15030TIP3    H266506   5.867   5.878  16.234  0.1241 -0.8267 -0.6132
15031TIP3   OH266507   1.358   4.649  13.060  0.2881  0.0170 -1.0905
15031TIP3    H166508   1.326   4.560  13.077  2.4780 -0.5108  0.7667
15031TIP3    H266509   1.411   4.640  12.981  0.6017 -0.3651 -0.8396
15032TIP3   OH266510   4.428   3.186   4.973  0.0467  0.1035  0.2988
15032TIP3    H166511   4.477   3.256   4.928  0.9563 -0.3565  0.5560
15032TIP3    H266512   4.491   3.149   5.035 -1.0123  0.3297  1.5508
15033TIP3   OH266513   2.552   1.563   0.341  0.0719  0.1894 -0.3482
15033TIP3    H166514   2.615   1.499   0.376  0.1008  1.6078  2.4806
15033TIP3    H266515   2.604   1.643   0.330 -0.9584  1.1182  1.1473
15034TIP3   OH266516   0.167   0.912   3.116 -0.0681 -0.0203  1.0026
15034TIP3    H166517   0.194   0.855   3.188 -0.0361  0.7175  1.5889
15034TIP3    H266518   0.108   0.858   3.063  1.5257 -1.2424  0.4086
15035TIP3   OH266519   3.875   1.907   4.397 -0.1023 -0.2381 -0.1232
15035TIP3    H166520   3.929   1.875   4.325  0.1695  0.4537 -0.2424
15035TIP3    H266521   3.790   1.866   4.384  0.0936 -0.5153 -0.5504
15036TIP3   OH266522   0.085   0.566  12.511  0.1360 -0.0497 -0.2962
15036TIP3    H166523   0.035   0.493  12.473 -0.9456  0.3224  0.3595
15036TIP3    H266524   0.018   0.626  12.545  1.0174 -0.1365  1.7663
15037TIP3   OH266525   2.373   2.895  15.141  0.1340  0.6741 -0.3423
15037TIP3    H166526   2.306   2.832  15.169  0.5058 -0.0779 -1.1079
15037TIP3    H266527   2.431   2.845  15.084  2.1039  0.9788  1.2971
15038TIP3   OH266528   1.132   2.135  14.661 -0.3985  0.0764 -0.3494
15038TIP3    H166529   1.147   2.045  14.634 -0.4115 -0.2075  0.5305
15038TIP3    H266530   1.204   2.154  14.722 -0.9533  0.3037  0.2520
15039TIP3   OH266531   3.667   3.317  12.576 -0.6741 -0.2467  0.5632
15039TIP3    H166532   3.587   3.269  12.555 -0.1384 -1.0880  0.4287
15039TIP3    H266533   3.665   3.393  12.518 -1.1259 -0.5215  0.2163
15040TIP3   OH266534   0.809   6.426   6.044 -0.2163 -0.7728  0.8126
15040TIP3    H166535   0.885   6.372   6.024  0.5054  0.2933  0.6012
15040TIP3    H266536   0.763   6.379   6.113  0.3047 -1.7290  0.5235
15041TIP3   OH266537   6.421   3.679   0.899  0.1312 -0.3128 -0.1900
15041TIP3    H166538   6.487   3.617   0.930  0.1643 -0.6967 -0.9880
15041TIP3    H266539   6.352   3.624   0.862 -0.6167  0.0911  0.5892
15042TIP3   OH266540   4.096   0.847  16.491 -0.5211 -0.3864  0.5483
15042TIP3    H166541   4.186   0.838  16.458 -1.0461 -0.6328 -0.8653
15042TIP3    H266542   4.104   0.831  16.585  1.0987  0.7668  0.6506
15043TIP3   OH266543   6.596   1.236   5.235  0.5227  0.2183  0.3890
15043TIP3    H166544   6.556   1.150   5.230 -2.3194  1.4408 -0.1298
15043TIP3    H266545   6.547   1.281   5.305 -0.9477  2.6447 -1.9816
15044TIP3   OH266546   5.221   1.903   4.679 -0.4745  0.1556  0.6950
15044TIP3    H166547   5.215   1.998   4.695  2.0790  0.9135 -2.0513
15044TIP3    H266548   5.297   1.875   4.730  0.0394  0.0271 -0.1349
15045TIP3   OH266549   5.258   4.464   3.028 -0.5186 -0.2860  0.2593
15045TIP3    H166550   5.312   4.402   3.077 -0.0612 -0.1087 -0.0102
15045TIP3    H266551   5.188   4.412   2.991  0.0917 -0.7222 -0.3085
15046TIP3   OH266552   1.976   3.066   6.117 -0.0278 -0.1299 -0.2411
15046TIP3    H166553   1.908   3.090   6.180  1.1020 -0.9256  1.3742
15046TIP3    H266554   2.052   3.117   6.144  0.1086  0.6085 -1.9060
15047TIP3   OH266555   4.314   4.326   6.450  0.2415 -0.3946  0.0700
15047TIP3    H166556   4.371   4.303   6.376  1.4110  1.0450  0.4659
15047TIP3    H266557   4.312   4.247   6.504 -0.6766 -1.4908 -1.4861
15048TIP3   OH266558   0.984   4.190  16.792  0.0235 -0.1833  0.1656
15048TIP3    H166559   1.044   4.239  16.849 -0.7997  1.5985 -0.4256
15048TIP3    H266560   0.965   4.250  16.720 -0.2589 -1.7752 -1.1408
15049TIP3   OH266561   0.148   6.071  14.231  0.3024 -0.4371  0.0394
15049TIP3    H166562   0.062   6.048  14.197  0.4699 -0.9769 -0.0315
15049TIP3    H266563   0.147   6.040  14.322 -0.7569  2.4923  1.1641
15050TIP3   OH266564   4.297   0.841  10.897 -0.1447 -0.3926  0.0316
15050TIP3    H166565   4.368   0.834  10.834 -1.5370  1.6046 -1.9068
15050TIP3    H266566   4.325   0.910  10.957  0.1351 -0.5938  0.1350
15051TIP3   OH266567   1.707   5.624  16.252 -0.4007 -0.4831 -1.2683
15051TIP3    H166568   1.667   5.711  16.240 -0.5443 -0.3921 -0.2792
15051TIP3    H266569   1.796   5.643  16.282 -0.7562 -0.6517 -0.0539
15052TIP3   OH266570   3.628   4.064   1.296 -0.0204 -0.3179 -0.3612
15052TIP3    H166571   3.555   4.011   1.263 -0.0011 -1.4581  1.2704
15052TIP3    H266572   3.630   4.045   1.390  1.2019  1.1592 -0.0475
15053TIP3   OH266573   5.060   1.685  11.957 -0.0674  0.0051  0.0422
15053TIP3    H166574   5.073   1.596  11.990 -2.2726 -0.7402 -0.9175
15053TIP3    H266575   5.039   1.736  12.035  0.4201 -0.4736  0.4966
15054TIP3   OH266576   2.460   4.807  16.890  0.4461  0.1590 -0.0128
15054TIP3    H166577   2.366   4.789  16.887  0.4742  0.1468 -1.1246
15054TIP3    H266578   2.465   4.900  16.915  0.1567  0.0559  0.4429
15055TIP3   OH266579   0.356   4.756   4.790 -0.3920  0.0338  0.4978
15055TIP3    H166580   0.321   4.771   4.703 -1.0341  1.6484  1.0073
15055TIP3    H266581   0.280   4.751   4.847  0.0486 -0.3511  1.0749
15056TIP3   OH266582   4.899   4.443  13.645  0.4909  0.5689  0.5691
15056TIP3    H166583   4.939   4.529  13.659  0.6798  0.6656 -0.4844
15056TIP3    H266584   4.973   4.386  13.626  0.3367  0.2379  0.9636
15057TIP3   OH266585   5.157   6.387  17.226  0.1041 -0.5760 -0.2226
15057TIP3    H166586   5.188   6.300  17.250 -0.7677 -0.9315 -0.3320
15057TIP3    H266587   5.115   6.420  17.305  0.4081 -0.2623 -0.1891
15058TIP3   OH266588   5.029   0.684  14.147  0.3037 -0.5780  0.5275
15058TIP3    H166589   5.104   0.623  14.145  0.1785 -0.7215  0.2260
15058TIP3    H266590   5.001   0.691  14.056  0.5690  0.2510  0.5047
15059TIP3   OH266591   3.550   5.216  13.900  0.1758 -0.4642  0.3999
15059TIP3    H166592   3.567   5.156  13.828 -0.3982 -1.2425  0.8964
15059TIP3    H266593   3.521   5.297  13.858 -1.8845 -1.4571 -0.2316
15060TIP3   OH266594   4.458   2.216   1.385  0.6394  0.1321  0.0325
15060TIP3    H166595   4.452   2.311   1.374  1.2984  0.6079  2.9380
15060TIP3    H266596   4.542   2.202   1.429  1.9098 -2.1493 -2.7584
15061TIP3   OH266597   2.513   4.526  13.175 -0.2855  0.1666  0.0466
15061TIP3    H166598   2.567   4.480  13.239 -0.6099  0.1903  0.3355
15061TIP3    H266599   2.559   4.513  13.092 -0.0510 -0.1586  0.2255
15062TIP3   OH266600   2.960   6.755  10.659 -0.3633  0.4991 -0.1419
15062TIP3    H166601   2.998   6.839  10.633  0.3074  0.0689 -0.5896
15062TIP3    H266602   2.877   6.750  10.612 -0.4823  0.9798  0.0109
15063TIP3   OH266603   3.886   5.249   3.533 -0.3849 -0.4727 -0.3616
15063TIP3    H166604   3.979   5.239   3.552  0.2430  4.1005  0.0918
15063TIP3    H266605   3.875   5.205   3.449  2.2528 -0.9829 -0.5477
15064TIP3   OH266606   3.088   3.147   6.391 -0.4124  0.2817 -0.0222
15064TIP3    H166607   3.034   3.093   6.449 -1.5196  0.6401 -0.7012
15064TIP3    H266608   3.027   3.183   6.327  0.3765  1.9260  0.0883
15065TIP3   OH266609   1.314   4.122   2.624 -0.0073  0.0798 -0.0727
15065TIP3    H166610   1.398   4.101   2.583 -0.3380 -0.5051 -0.4592
15065TIP3    H266611   1.310   4.067   2.702  0.1160  0.3619  0.1368
15066TIP3   OH266612   3.240   5.770   1.718  0.0062 -0.8119 -0.3894
15066TIP3    H166613   3.150   5.751   1.741 -0.1277 -0.1340 -0.3403
15066TIP3    H266614   3.272   5.828   1.787 -0.3230  1.0287 -1.7018
15067TIP3   OH266615   0.207   2.056   2.050 -0.1234  0.8306  0.2404
15067TIP3    H166616   0.192   1.997   1.977  0.8946  1.1689 -0.2501
15067TIP3    H266617   0.165   2.138   2.024  0.0340  0.8792  0.1424
15068TIP3   OH266618   4.157   0.851  15.106 -0.6560 -0.5395 -0.3769
15068TIP3    H166619   4.232   0.827  15.161 -0.9540 -0.8375 -0.0998
15068TIP3    H266620   4.185   0.827  15.017  0.3252  1.0964 -0.5574
15069TIP3   OH266621   2.241   0.506  10.955  0.1610 -0.6634  0.2818
15069TIP3    H166622   2.215   0.596  10.938 -0.4085 -1.0216 -0.8233
15069TIP3    H266623   2.168   0.468  11.004 -0.8349 -1.2620 -1.5825
15070TIP3   OH266624   1.972   2.426   0.668  0.2131 -0.0187 -0.2234
15070TIP3    H166625   2.039   2.409   0.735 -0.4569 -4.7128 -0.4315
15070TIP3    H266626   1.891   2.436   0.717 -0.2868 -3.5029 -0.0683
15071TIP3   OH266627   1.900   5.852   0.870  0.4744  0.2401 -0.3691
15071TIP3    H166628   1.942   5.771   0.840  1.3062  0.3936  0.3363
15071TIP3    H266629   1.826   5.864   0.810  0.8144 -0.6041 -0.9853
15072TIP3   OH266630   2.841   3.349  11.400  0.3270 -0.0837 -0.0711
15072TIP3    H166631   2.772   3.282  11.397  0.9053 -0.6995 -0.0418
15072TIP3    H266632   2.918   3.304  11.366  0.6332  0.6996 -0.4148
15073TIP3   OH266633   2.463   2.581   4.853  0.0025  0.0145  0.2209
15073TIP3    H166634   2.423   2.495   4.842  2.0322 -0.9210 -0.2237
15073TIP3    H266635   2.500   2.580   4.941  1.2580 -0.1350 -0.2843
15074TIP3   OH266636   0.055   3.030  12.911  0.5343 -0.0812  0.1374
15074TIP3    H166637   0.008   3.097  12.961  0.8445  0.0359  0.2705
15074TIP3    H266638   0.114   3.079  12.854  0.6688 -0.2369  0.1415
15075TIP3   OH266639   1.957   5.108   4.222  0.0266 -0.1627 -0.0407
15075TIP3    H166640   1.913   5.173   4.168 -2.5468 -1.2468  0.5837
15075TIP3    H266641   1.932   5.131   4.312  1.1977 -0.5358  0.4005
15076TIP3   OH266642   2.621   4.520  16.720  0.1143 -0.0195 -0.9839
15076TIP3    H166643   2.612   4.459  16.793  0.0022 -2.7019 -3.0515
15076TIP3    H266644   2.670   4.594  16.756  2.7733 -2.5462  1.1173
15077TIP3   OH266645   4.816   2.118   5.911 -0.8602  0.0482  0.4299
15077TIP3    H166646   4.771   2.098   5.829 -0.7310  0.8873  0.1415
15077TIP3    H266647   4.761   2.185   5.952  0.1115  1.1196  0.0538
15078TIP3   OH266648   5.270   5.762  16.517  0.1439  0.6410 -0.4419
15078TIP3    H166649   5.262   5.702  16.591  0.2717  0.8506 -0.2570
15078TIP3    H266650   5.279   5.704  16.441  0.7016  0.4211 -0.2175
15079TIP3   OH266651   3.722   0.602  16.582  0.3547  0.8206  0.0682
15079TIP3    H166652   3.707   0.567  16.494 -0.3625  1.2803 -0.0064
15079TIP3    H266653   3.755   0.691  16.567  0.7204  0.7168  0.2596
15080TIP3   OH266654   5.683   4.685  14.334 -0.1179  0.0140  0.1539
15080TIP3    H166655   5.616   4.741  14.372 -1.1583 -0.8904 -0.3062
15080TIP3    H266656   5.716   4.733  14.258 -1.4187 -0.2240 -0.5878
15081TIP3   OH266657   2.778   6.123  11.257  0.0107  0.1251 -0.0118
15081TIP3    H166658   2.825   6.196  11.217  3.4441 -2.1560 -0.5848
15081TIP3    H266659   2.754   6.066  11.184 -2.4703  0.5081  0.4300
15082TIP3   OH266660   1.645   1.645   1.129  0.0201 -0.2895  0.3525
15082TIP3    H166661   1.628   1.737   1.146  1.2265 -0.2195  1.2928
15082TIP3    H266662   1.564   1.601   1.153 -0.6872  0.5363 -0.4285
15083TIP3   OH266663   1.348   4.495  15.667  0.0191 -0.4617  0.0897
15083TIP3    H166664   1.399   4.519  15.745 -0.2018 -0.5257  0.2540
15083TIP3    H266665   1.407   4.438  15.617  0.1587 -0.4279  0.2153
15084TIP3   OH266666   5.220   2.844  14.195 -0.3637 -0.0496 -0.2163
15084TIP3    H166667   5.210   2.847  14.100 -0.0068 -1.0371 -0.2915
15084TIP3    H266668   5.297   2.898  14.213  0.1509 -0.6536 -0.5861
15085TIP3   OH266669   4.706   0.984   1.155  0.1342  0.4057 -0.3928
15085TIP3    H166670   4.675   0.914   1.211  3.4600 -0.8225  0.1527
15085TIP3    H266671   4.639   1.052   1.161 -1.5785 -1.3524  1.7654
15086TIP3   OH266672   4.988   3.250   4.827  0.1357 -0.4826  0.5113
15086TIP3    H166673   4.967   3.339   4.799  2.5278  0.8335  2.4677
15086TIP3    H266674   4.903   3.210   4.845 -1.0338  1.1740 -0.9494
15087TIP3   OH266675   3.524   2.880   5.177 -0.1886 -0.2367  0.2857
15087TIP3    H166676   3.579   2.892   5.254  0.5203 -1.8867  0.0739
15087TIP3    H266677   3.436   2.869   5.212 -0.0258  0.0090  0.7882
15088TIP3   OH266678   5.229   2.384  13.476  0.7532 -0.1799  0.3251
15088TIP3    H166679   5.202   2.408  13.387  2.4650  1.5360  0.2055
15088TIP3    H266680   5.265   2.296  13.467  1.2108  0.0970 -0.7900
15089TIP3   OH266681   2.948   6.256  10.527  0.7781  0.3560  0.0290
15089TIP3    H166682   2.951   6.241  10.433  0.9796  0.2735  0.0489
15089TIP3    H266683   2.876   6.201  10.558  1.3138 -0.3463  0.0565
15090TIP3   OH266684   2.685   5.586   2.112  0.1047  0.3033 -0.7011
15090TIP3    H166685   2.747   5.642   2.159 -0.4080  0.7197 -0.5173
15090TIP3    H266686   2.733   5.504   2.100 -0.2615 -0.3915  1.9173
15091TIP3   OH266687   1.854   0.487   5.106 -0.2906  0.3165 -0.5056
15091TIP3    H166688   1.840   0.414   5.045  1.0309 -0.6305  0.2615
15091TIP3    H266689   1.779   0.483   5.165  0.1187 -0.9322 -0.0244
15092TIP3   OH266690   2.104   3.562  13.653  0.5605 -0.0556  0.3915
15092TIP3    H166691   2.033   3.582  13.714  0.4245  0.2421  0.1416
15092TIP3    H266692   2.149   3.645  13.640 -0.7712  0.4308 -1.6235
15093TIP3   OH266693   3.400   1.395   4.439  0.4973  0.2073  0.5620
15093TIP3    H166694   3.334   1.410   4.371  1.2115  2.0738  0.2210
15093TIP3    H266695   3.464   1.337   4.397  0.8895  1.2703 -0.3651
15094TIP3   OH266696   5.927   3.926  15.880  0.0522 -0.1306  0.3520
15094TIP3    H166697   5.978   3.983  15.937  0.1316  1.6765 -1.4169
15094TIP3    H266698   5.836   3.951  15.897  0.1148  1.0497 -0.8689
15095TIP3   OH266699   3.215   4.786  16.327  0.2697 -0.7029  0.1008
15095TIP3    H166700   3.216   4.693  16.350 -1.0849 -1.2525 -1.8338
15095TIP3    H266701   3.144   4.795  16.263  0.0753  1.7568  0.5393
15096TIP3   OH266702   0.465   0.643   6.338 -0.2562 -0.4085  0.1717
15096TIP3    H166703   0.506   0.563   6.304  1.1376 -0.3333  1.5746
15096TIP3    H266704   0.537   0.707   6.343 -0.9779  0.3873  0.7188
15097TIP3   OH266705   5.472   1.828  15.010 -0.7018  0.1636  0.7485
15097TIP3    H166706   5.529   1.762  15.050 -2.2537 -0.3730  2.2175
15097TIP3    H266707   5.438   1.785  14.931  0.9195  0.5148 -0.1779
15098TIP3   OH266708   6.160   2.515  13.617  0.5509  0.0512 -0.2192
15098TIP3    H166709   6.085   2.539  13.671 -0.5010 -0.4944 -1.4064
15098TIP3    H266710   6.223   2.478  13.679 -0.0750  0.6657  0.8101
15099TIP3   OH266711   4.654   0.044   2.864  0.6631  0.6268  0.3541
15099TIP3    H166712   4.564   0.075   2.868  0.2944 -0.2338 -0.7943
15099TIP3    H266713   4.651  -0.045   2.899  1.0769  0.6016  0.3361
15100TIP3   OH266714   4.668   2.387  13.178  0.0247 -0.1858  0.2978
15100TIP3    H166715   4.595   2.329  13.199  0.2608 -0.1315  1.3191
15100TIP3    H266716   4.634   2.447  13.112 -0.5499 -0.7840  0.0406
15101TIP3   OH266717   4.597   5.141  16.918 -0.5147 -0.1897 -0.6532
15101TIP3    H166718   4.581   5.054  16.954 -1.5642  0.4078  0.4183
15101TIP3    H266719   4.660   5.127  16.848  0.8564 -1.5494  0.7683
15102TIP3   OH266720   4.275   2.267   4.600 -0.3237  0.3088  0.4806
15102TIP3    H166721   4.333   2.226   4.664 -0.8013 -1.4114 -0.1332
15102TIP3    H266722   4.310   2.242   4.515 -0.4634  1.4562  0.0738
15103TIP3   OH266723   1.004   2.452   5.348  0.5853 -0.3575 -0.6515
15103TIP3    H166724   1.048   2.537   5.355  2.7081 -1.3244 -1.2214
15103TIP3    H266725   0.912   2.470   5.368  1.2500  1.7772  0.8614
15104TIP3   OH266726   3.636   6.020   1.876  0.0053 -0.0006  0.3696
15104TIP3    H166727   3.651   5.981   1.791 -0.1893 -2.2224  1.2799
15104TIP3    H266728   3.681   6.104   1.873 -0.1659  0.0686 -1.9528
15105TIP3   OH266729   1.865   5.283  12.997  0.0953 -0.0785  0.0585
15105TIP3    H166730   1.920   5.309  12.922 -1.0742 -0.4157 -0.9531
15105TIP3    H266731   1.819   5.363  13.022  2.0127  0.5670  1.8369
15106TIP3   OH266732   5.294   0.953  16.551 -0.7435  0.0023  0.0347
15106TIP3    H166733   5.263   0.882  16.607 -2.1386  0.3277 -0.2975
15106TIP3    H266734   5.327   0.910  16.473  1.2161 -0.4595  1.0528
15107TIP3   OH266735   6.766   2.194  15.328 -0.2114  0.2458  0.0385
15107TIP3    H166736   6.740   2.251  15.400 -4.1531  0.2454 -1.1909
15107TIP3    H266737   6.788   2.254  15.257 -1.2027  0.2489 -0.2691
15108TIP3   OH266738   3.073   4.827  12.785 -0.0103  0.0496 -0.3111
15108TIP3    H166739   3.109   4.743  12.754 -1.2968 -0.4942 -0.3846
15108TIP3    H266740   3.007   4.803  12.849  1.8571  1.1426  2.1724
15109TIP3   OH266741   4.914   0.495   2.849  0.0223  0.1599 -0.3924
15109TIP3    H166742   4.906   0.418   2.905  2.4717  0.3558  0.3376
15109TIP3    H266743   4.922   0.568   2.911 -0.4622  0.7866 -1.0535
15110TIP3   OH266744   1.052   2.246  12.700  0.2092  0.4312 -0.9578
15110TIP3    H166745   1.133   2.258  12.649  1.2518  0.5655  0.6519
15110TIP3    H266746   1.006   2.174  12.657  0.7735  0.9003 -2.3958
15111TIP3   OH266747   4.327   5.559  14.228 -0.0146  0.5227 -0.2316
15111TIP3    H166748   4.406   5.566  14.281 -0.1370  0.8925 -0.0956
15111TIP3    H266749   4.315   5.646  14.191 -0.1058  0.3490 -0.6161
15112TIP3   OH266750   1.663   1.286  15.463  0.1922  0.3672  0.1914
15112TIP3    H166751   1.596   1.306  15.527 -0.4443  0.3048 -0.4419
15112TIP3    H266752   1.710   1.368  15.450  0.4640  0.3250  0.8871
15113TIP3   OH266753   5.096   5.103  11.286  0.3346  0.3572  0.1043
15113TIP3    H166754   5.113   5.026  11.341  1.4925 -0.3689 -1.2076
15113TIP3    H266755   5.001   5.111  11.284  0.1658 -1.4258 -0.2266
15114TIP3   OH266756   5.337   3.881  10.986 -0.1461 -0.2781  0.0675
15114TIP3    H166757   5.373   3.949  11.042 -0.3886  0.5124 -0.7109
15114TIP3    H266758   5.247   3.869  11.016  0.3326 -1.3147  1.1541
15115TIP3   OH266759   3.226   2.170  17.158 -0.4039 -0.5595 -0.0351
15115TIP3    H166760   3.153   2.215  17.116 -1.7268  0.5586  3.1282
15115TIP3    H266761   3.185   2.107  17.217  1.0831  0.3570  2.1106
15116TIP3   OH266762   0.726   4.038  12.850 -0.1434 -0.2991  0.0561
15116TIP3    H166763   0.672   4.018  12.927  0.0359 -0.5423  0.1212
15116TIP3    H266764   0.663   4.067  12.783 -0.3920 -0.8491  0.0423
15117TIP3   OH266765   5.687   6.635  17.258 -0.4921  0.0494 -0.4288
15117TIP3    H166766   5.746   6.561  17.272 -2.6235 -2.1858 -2.3528
15117TIP3    H266767   5.617   6.600  17.202 -2.4412  3.1382 -0.1596
15118TIP3   OH266768   4.990   0.487   5.683 -0.0564  0.1875  0.1447
15118TIP3    H166769   4.989   0.478   5.588 -0.6783  0.4501  0.1219
15118TIP3    H266770   5.081   0.507   5.705  0.2654 -0.7463 -0.3112
15119TIP3   OH266771   3.309   6.323  12.188  0.4219  0.1609 -0.2705
15119TIP3    H166772   3.250   6.396  12.206 -1.4366 -1.3654  0.0990
15119TIP3    H266773   3.391   6.365  12.160 -0.0304  2.3998  1.4603
15120TIP3   OH266774   1.493   1.188   4.260 -0.6179  0.3607 -0.7282
15120TIP3    H166775   1.465   1.169   4.350 -1.3107 -0.3587 -1.0822
15120TIP3    H266776   1.455   1.273   4.241  0.2558  0.9250 -0.0519
15121TIP3   OH266777   5.580   3.662   0.748  0.4167 -0.4369  0.0111
15121TIP3    H166778   5.487   3.685   0.740  0.0829 -0.8300  2.1320
15121TIP3    H266779   5.607   3.642   0.658 -1.2440  0.7779 -0.8199
15122TIP3   OH266780   4.138   3.734   6.430 -0.1946 -0.6722 -0.1599
15122TIP3    H166781   4.071   3.711   6.365 -0.5838  0.1026 -0.0452
15122TIP3    H266782   4.102   3.810   6.475  2.0098  1.6932 -2.0923
15123TIP3   OH266783   2.576   3.741  16.208 -0.3125  0.3634 -0.2595
15123TIP3    H166784   2.617   3.819  16.245  0.4356  0.6190 -1.5518
15123TIP3    H266785   2.544   3.769  16.123 -0.9508 -0.4881 -0.3081
15124TIP3   OH266786   6.149   5.770  14.478 -0.1579 -0.6113 -0.4215
15124TIP3    H166787   6.148   5.838  14.411  0.3822 -0.7595 -0.5935
15124TIP3    H266788   6.081   5.708  14.450 -0.8892  0.0310 -0.0713
15125TIP3   OH266789   2.870   1.185  15.456 -0.0139 -0.2557 -0.2506
15125TIP3    H166790   2.819   1.105  15.441 -0.4541 -0.0668  0.1877
15125TIP3    H266791   2.805   1.249  15.485  0.7546 -0.7520  3.0354
15126TIP3   OH266792   4.551   0.080  13.270 -0.1363 -0.3599  0.6194
15126TIP3    H166793   4.557   0.113  13.180  1.5182 -1.1345  0.4021
15126TIP3    H266794   4.516   0.153  13.320 -2.4499 -0.3609 -0.8568
15127TIP3   OH266795   2.621   5.129   0.320 -0.2104 -0.2492  0.1037
15127TIP3    H166796   2.557   5.190   0.355 -0.3658 -1.7020  2.5646
15127TIP3    H266797   2.573   5.081   0.252 -1.8549 -1.3107  1.8928
15128TIP3   OH266798   2.960   4.733   3.021  0.7407 -0.2801  0.2163
15128TIP3    H166799   2.903   4.658   3.038 -0.2178  0.5938  0.9094
15128TIP3    H266800   2.907   4.810   3.040  1.9880  0.5754  0.3858
15129TIP3   OH266801   2.367   0.154  13.435  0.4561 -0.2261 -0.3653
15129TIP3    H166802   2.369   0.232  13.379  1.1044 -0.1621 -0.2563
15129TIP3    H266803   2.372   0.080  13.374 -0.6541 -0.2050 -0.5014
15130TIP3   OH266804   4.852   1.986  12.839  0.2888 -0.4258  0.4324
15130TIP3    H166805   4.932   2.030  12.810 -0.0398  0.1720  0.4175
15130TIP3    H266806   4.814   1.949  12.760 -1.1301  2.0438 -0.1458
15131TIP3   OH266807   2.090   6.638   5.559 -0.0122  0.2125  0.1551
15131TIP3    H166808   2.013   6.695   5.555 -0.5992 -0.5130  0.9245
15131TIP3    H266809   2.124   6.650   5.648  0.7148  0.4487 -0.1432
15132TIP3   OH266810   5.751   0.153   5.006 -0.1650  0.1152 -0.0585
15132TIP3    H166811   5.781   0.134   4.918  1.0124  0.2068  0.3054
15132TIP3    H266812   5.819   0.209   5.043 -0.0892 -0.8077  1.2710
15133TIP3   OH266813   5.240   1.919  15.161 -0.2726 -0.0934 -0.0170
15133TIP3    H166814   5.326   1.903  15.122 -1.2364 -0.0452 -2.3068
15133TIP3    H266815   5.229   2.014  15.157  0.8654  0.3142  3.3738
15134TIP3   OH266816   3.390   5.027  11.568  0.5714 -0.3900  0.0686
15134TIP3    H166817   3.344   4.951  11.605  0.0596  1.0976  2.6998
15134TIP3    H266818   3.357   5.034  11.479 -2.5524 -0.8360  1.0744
15135TIP3   OH266819   1.176   0.900  10.771 -0.5000  0.2110  0.1265
15135TIP3    H166820   1.252   0.849  10.742  0.3087  0.7382  1.2390
15135TIP3    H266821   1.101   0.850  10.740  0.2867 -0.5945 -0.5557
15136TIP3   OH266822   0.004   3.105  11.550  0.0320 -0.8613 -0.2433
15136TIP3    H166823   0.058   3.168  11.596  1.6683  0.6101 -3.7802
15136TIP3    H266824   0.060   3.027  11.542 -0.5410 -1.4034  0.8287
15137TIP3   OH266825   5.732   5.879  15.333  0.1808  0.3980 -0.5550
15137TIP3    H166826   5.812   5.904  15.286 -0.0103 -1.1666 -1.8186
15137TIP3    H266827   5.685   5.823  15.271  0.1045 -2.1709  1.6406
15138TIP3   OH266828   4.671   6.625  16.695 -0.5176 -0.2117  0.0764
15138TIP3    H166829   4.643   6.564  16.627  0.7388 -0.5759 -0.1397
15138TIP3    H266830   4.731   6.685  16.651  0.3376 -0.4703  0.8340
15139TIP3   OH266831   1.529   3.918  13.494  0.4508  0.4766  0.0499
15139TIP3    H166832   1.465   3.939  13.426  0.3615 -1.0487 -0.3587
15139TIP3    H266833   1.612   3.907  13.447  0.9427  1.8945  0.5141
15140TIP3   OH266834   5.749   4.836  14.104 -0.2133  0.4944  0.0118
15140TIP3    H166835   5.760   4.837  14.009 -1.1413  0.3736 -0.0976
15140TIP3    H266836   5.748   4.929  14.129  2.1015  0.5336  0.1678
15141TIP3   OH266837   0.565   1.059  12.192  0.0135 -0.3236  0.3999
15141TIP3    H166838   0.569   1.013  12.108 -0.3482 -2.0377  1.3005
15141TIP3    H266839   0.637   1.123  12.187 -0.3176 -0.0243 -1.4006
15142TIP3   OH266840   2.945   2.505  15.234 -0.2843 -0.1597  0.0129
15142TIP3    H166841   3.020   2.450  15.210  1.8033  1.5671  2.1825
15142TIP3    H266842   2.907   2.462  15.311  0.5485  0.6747  0.9145
15143TIP3   OH266843   2.175   1.024   0.965 -0.0429  0.6378  0.1270
15143TIP3    H166844   2.207   0.968   0.895 -0.1175  0.9527 -0.1609
15143TIP3    H266845   2.253   1.046   1.016  0.1987  1.3183 -0.5124
15144TIP3   OH266846   5.547   3.000   4.564  0.6185  0.0998 -0.0199
15144TIP3    H166847   5.476   2.935   4.570  0.0073  0.7570 -0.0057
15144TIP3    H266848   5.602   2.982   4.640  1.1338 -1.1737 -0.6596
15145TIP3   OH266849   6.479   6.172   3.480 -0.0962  0.1758  0.1397
15145TIP3    H166850   6.516   6.153   3.394 -0.6058  0.4485 -0.1441
15145TIP3    H266851   6.538   6.237   3.518 -0.3433  0.6999 -0.3586
15146TIP3   OH266852   6.759   2.233  10.863 -0.6330  0.0762 -0.1070
15146TIP3    H166853   6.692   2.204  10.802  0.6654 -1.4010 -0.9092
15146TIP3    H266854   6.804   2.153  10.890 -0.1851  0.8460  1.6422
15147TIP3   OH266855   2.048   2.458   4.392  0.0075  0.7252  0.3952
15147TIP3    H166856   1.987   2.402   4.344 -2.2225  3.3514 -0.1130
15147TIP3    H266857   2.123   2.468   4.333  0.3020 -1.3491  0.3632
15148TIP3   OH266858   0.240   2.421  15.425 -0.1038 -0.5191  0.0196
15148TIP3    H166859   0.147   2.420  15.404  0.0436 -0.3221 -0.7062
15148TIP3    H266860   0.256   2.506  15.465  0.1718  0.4198 -1.9705
15149TIP3   OH266861   6.630   6.189  16.935  0.2252 -0.0964  0.2997
15149TIP3    H166862   6.619   6.210  17.028 -0.2043  3.8065 -0.4877
15149TIP3    H266863   6.586   6.104  16.925  0.2121 -0.6053  3.5931
15150TIP3   OH266864   5.906   6.159  12.766  0.6182 -0.7317  0.0544
15150TIP3    H166865   5.819   6.194  12.779  0.2876 -1.2327 -0.7329
15150TIP3    H266866   5.904   6.073  12.809  0.3319 -1.2672 -0.9982
15151TIP3   OH266867   5.554   0.968  14.105  0.0249 -0.6990 -0.2528
15151TIP3    H166868   5.624   1.006  14.053 -0.7920  1.7708  0.2918
15151TIP3    H266869   5.597   0.937  14.185  0.4795  1.8045  0.5879
15152TIP3   OH266870   3.168   4.963  16.637  0.2782 -0.2093  0.3860
15152TIP3    H166871   3.220   5.036  16.668 -0.5270 -0.1596  1.6682
15152TIP3    H266872   3.229   4.889  16.636  0.6921  0.1246  0.5939
15153TIP3   OH266873   2.698   2.039   1.855 -0.4869 -0.3000 -0.3255
15153TIP3    H166874   2.625   2.099   1.867 -1.0548 -0.7619 -1.3391
15153TIP3    H266875   2.662   1.967   1.803  0.5133 -0.8731 -0.2511
15154TIP3   OH266876   0.748   0.909   1.537 -0.4181 -0.0375  0.2784
15154TIP3    H166877   0.794   0.992   1.522 -0.2567 -0.0029  0.9582
15154TIP3    H266878   0.661   0.936   1.568 -1.0167 -0.0962 -1.2678
15155TIP3   OH266879   2.173   1.129   5.104  0.6695  0.4587  0.4727
15155TIP3    H166880   2.091   1.136   5.054  0.8402 -0.8929 -0.0377
15155TIP3    H266881   2.156   1.060   5.168  1.7579 -0.6429 -0.3811
15156TIP3   OH266882   5.834   2.348   4.542 -0.6020 -0.2295 -0.3058
15156TIP3    H166883   5.870   2.424   4.589  0.3360 -0.8866  0.0670
15156TIP3    H266884   5.778   2.305   4.606  0.4125 -0.9351  0.1451
15157TIP3   OH266885   4.319   2.076   0.545 -0.3200 -0.3944 -0.2126
15157TIP3    H166886   4.353   2.121   0.622 -0.5910 -1.2241  0.4074
15157TIP3    H266887   4.379   2.100   0.475 -1.8820  3.0299 -0.5527
15158TIP3   OH266888   0.862   1.375   5.562 -0.1982  0.2156  0.1633
15158TIP3    H166889   0.807   1.304   5.596 -0.5883  0.0038 -0.8646
15158TIP3    H266890   0.880   1.429   5.638 -0.7646 -0.4212  0.7720
15159TIP3   OH266891   1.597   4.965   1.343 -0.2896 -0.1614 -0.2710
15159TIP3    H166892   1.603   4.884   1.394 -0.2160  0.5913  0.9752
15159TIP3    H266893   1.586   4.936   1.253 -0.5590 -1.5586  0.1809
15160TIP3   OH266894   4.961   3.558   0.917 -0.3010  0.2227 -0.6179
15160TIP3    H166895   5.035   3.555   0.979 -1.5074 -0.3506  0.8498
15160TIP3    H266896   4.902   3.623   0.955  0.0049  1.6790 -2.4894
15161TIP3   OH266897   2.554   0.349  16.171  0.4099  0.3086  0.3675
15161TIP3    H166898   2.561   0.418  16.237 -0.4952  0.3394  0.4497
15161TIP3    H266899   2.538   0.269  16.222 -0.6089  0.3833  0.1969
15162TIP3   OH266900   4.201   3.079   5.837 -0.4381  0.6288  0.4054
15162TIP3    H166901   4.293   3.058   5.826 -0.5167  0.6944 -0.4600
15162TIP3    H266902   4.175   3.120   5.754 -1.3589  0.1676  0.4429
15163TIP3   OH266903   2.606   4.148   1.497 -0.6006  0.4326  0.3096
15163TIP3    H166904   2.542   4.164   1.567 -3.1877  0.6155 -1.9445
15163TIP3    H266905   2.600   4.054   1.480 -0.3470  0.4727 -0.0114
15164TIP3   OH266906   5.797   5.811   5.384 -0.4588 -0.1651 -0.0174
15164TIP3    H166907   5.825   5.857   5.305 -1.5845  1.1707  0.3119
15164TIP3    H266908   5.702   5.803   5.375 -0.4479 -1.1722  0.6084
15165TIP3   OH266909   2.237   0.448  12.852 -0.2091 -0.1419 -0.7470
15165TIP3    H166910   2.170   0.481  12.793 -0.2941 -0.5466 -0.8751
15165TIP3    H266911   2.194   0.380  12.903 -0.9617  2.0362  1.7742
15166TIP3   OH266912   0.423   2.898   2.337 -0.0171 -0.5483  0.3675
15166TIP3    H166913   0.330   2.922   2.336 -0.2160 -1.2906  0.4395
15166TIP3    H266914   0.435   2.851   2.419  0.4934 -0.2024  0.4944
15167TIP3   OH266915   1.422   5.387   2.824 -0.1099  0.3086 -0.7409
15167TIP3    H166916   1.415   5.466   2.771 -0.7727 -0.7560 -2.3047
15167TIP3    H266917   1.332   5.361   2.842  0.0940 -0.1924 -0.3949
15168TIP3   OH266918   4.694   0.295  11.857 -0.9352 -0.0217 -0.4879
15168TIP3    H166919   4.626   0.341  11.808  1.1723  2.2257 -1.5082
15168TIP3    H266920   4.649   0.260  11.934 -3.1289  1.8094 -0.8537
15169TIP3   OH266921   1.481   5.867   5.460 -0.2373 -0.7128  0.4499
15169TIP3    H166922   1.498   5.905   5.545  0.7459  0.5149 -0.2631
15169TIP3    H266923   1.399   5.908   5.431  0.5835  0.5824 -0.1215
15170TIP3   OH266924   4.702   1.395  15.103 -0.2367  0.3021  0.3352
15170TIP3    H166925   4.672   1.356  15.021 -0.8487  0.9602  0.2316
15170TIP3    H266926   4.621   1.412  15.152  0.1843 -1.6706  1.8445
15171TIP3   OH266927   1.945   2.498  11.859 -0.8577  0.0846  0.2863
15171TIP3    H166928   1.890   2.565  11.900 -0.6602 -0.0710  0.8166
15171TIP3    H266929   1.883   2.429  11.833 -1.3120  1.2591 -1.9520
15172TIP3   OH266930   3.144   5.536  13.242 -0.5461 -0.0158 -0.6615
15172TIP3    H166931   3.142   5.514  13.149 -2.0986  1.8550 -1.1377
15172TIP3    H266932   3.225   5.586  13.253 -0.2420 -0.4409 -0.9519
15173TIP3   OH266933   6.762   5.821   4.347  0.3002 -0.1364 -0.0481
15173TIP3    H166934   6.790   5.876   4.274  1.0354 -1.1918 -0.5895
15173TIP3    H266935   6.675   5.854   4.370 -0.6887 -0.8216 -2.5157
15174TIP3   OH266936   1.087   2.805  15.455  0.1662 -0.0636 -0.4370
15174TIP3    H166937   1.073   2.894  15.424  1.0471  1.1647  2.3876
15174TIP3    H266938   1.159   2.772  15.402  2.2037  2.2458  0.7425
15175TIP3   OH266939   2.395   3.197  13.794 -0.0135  0.1927 -0.2012
15175TIP3    H166940   2.370   3.115  13.751  0.4020  0.0583 -0.1930
15175TIP3    H266941   2.416   3.171  13.884 -0.8271  0.4632  0.0810
15176TIP3   OH266942   3.169   2.390   4.602 -0.4634  0.3956  0.3090
15176TIP3    H166943   3.141   2.459   4.663 -3.8030  0.3902 -0.9822
15176TIP3    H266944   3.210   2.438   4.530  2.5516  0.4710  1.9152
15177TIP3   OH266945   2.360   3.480   1.863 -0.5074 -0.5793  0.3492
15177TIP3    H166946   2.276   3.515   1.835  0.5272  0.3605 -1.8523
15177TIP3    H266947   2.406   3.556   1.900  0.3239 -0.4428 -0.9112
15178TIP3   OH266948   6.417   6.626   0.623 -0.6892  0.2078 -0.0361
15178TIP3    H166949   6.487   6.660   0.567 -0.1067  0.3744  0.7690
15178TIP3    H266950   6.437   6.533   0.633  0.3908  0.5650  1.5227
15179TIP3   OH266951   1.510   4.438   2.471 -0.2794 -0.5509 -0.0718
15179TIP3    H166952   1.445   4.423   2.539 -2.2059  2.3805 -1.0990
15179TIP3    H266953   1.573   4.367   2.483 -0.8537 -0.5886  4.2485
15180TIP3   OH266954   5.022   5.861   1.053 -0.4849  0.3655  0.1729
15180TIP3    H166955   5.060   5.824   0.972  0.1444 -1.4611  1.2328
15180TIP3    H266956   5.028   5.956   1.041 -1.8169  0.2100 -2.5543
15181TIP3   OH266957   3.634   4.370  11.963  0.9234  0.3281 -0.4742
15181TIP3    H166958   3.541   4.347  11.968  0.8514  0.9326  1.4342
15181TIP3    H266959   3.674   4.296  11.916 -0.2750 -0.6885  0.0421
15182TIP3   OH266960   4.131   4.848  15.900 -0.3692  0.6358  0.3058
15182TIP3    H166961   4.044   4.851  15.860 -0.6784  1.9261  1.0074
15182TIP3    H266962   4.126   4.778  15.965 -0.2830 -0.5565 -0.9323
15183TIP3   OH266963   2.783   3.370   4.764 -0.0094  0.0765 -0.2812
15183TIP3    H166964   2.735   3.297   4.803  1.1868 -0.7870 -0.3623
15183TIP3    H266965   2.820   3.418   4.838  0.6095 -0.3999 -0.2767
15184TIP3   OH266966   3.254   5.648   0.557  0.2948 -0.1070  0.4195
15184TIP3    H166967   3.204   5.664   0.637  0.1501  1.6947  0.0109
15184TIP3    H266968   3.231   5.722   0.500  1.7968 -0.3860 -0.5857
15185TIP3   OH266969   4.743   3.548   5.450  0.0236  0.7733 -0.1020
15185TIP3    H166970   4.809   3.488   5.485 -0.0744  1.5747  1.5453
15185TIP3    H266971   4.794   3.615   5.403  0.2725  0.5880 -0.1006
15186TIP3   OH266972   2.710   1.973  13.155 -0.4526 -0.6459 -0.3761
15186TIP3    H166973   2.767   1.927  13.216  0.5641 -2.0645 -2.2668
15186TIP3    H266974   2.627   1.983  13.201 -0.0054 -2.4304  0.9015
15187TIP3   OH266975   1.391   4.561  13.393  0.3055 -0.3628 -0.0869
15187TIP3    H166976   1.462   4.548  13.455  1.5697  0.9835 -1.1645
15187TIP3    H266977   1.408   4.499  13.322  0.7036  0.3038 -0.5815
15188TIP3   OH266978   3.800   4.791  12.609 -0.7900 -0.6525  0.6838
15188TIP3    H166979   3.723   4.770  12.662 -2.0803 -0.3045 -0.9318
15188TIP3    H266980   3.789   4.883  12.587 -0.0606 -0.6791  0.1805
15189TIP3   OH266981   5.275   5.175  11.766  0.2375  0.0358 -0.6654
15189TIP3    H166982   5.209   5.107  11.778 -0.1569  0.2814 -1.4411
15189TIP3    H266983   5.282   5.217  11.852 -0.4650 -0.1243 -0.5276
15190TIP3   OH266984   2.371   3.128   5.417  0.2950  0.4025 -0.1649
15190TIP3    H166985   2.313   3.121   5.341 -0.4392 -0.4604  0.4375
15190TIP3    H266986   2.451   3.168   5.384  0.2952 -0.6757 -1.5689
15191TIP3   OH266987   3.636   3.577  13.653  0.4032  0.2767 -0.2512
15191TIP3    H166988   3.577   3.592  13.727  0.1168 -0.6274 -0.2805
15191TIP3    H266989   3.594   3.505  13.604  0.4047  1.0849 -1.4785
15192TIP3   OH266990   2.845   0.186  15.934  0.3441 -0.0874  0.5495
15192TIP3    H166991   2.872   0.179  16.026  0.9858  0.5264  0.4106
15192TIP3    H266992   2.874   0.273  15.907 -1.0023  0.2495  0.1365
15193TIP3   OH266993   4.633   3.526   4.001 -0.2098 -0.1915 -0.3793
15193TIP3    H166994   4.699   3.464   4.033 -1.4998 -1.4159 -0.0026
15193TIP3    H266995   4.554   3.505   4.051 -1.4801 -0.1974 -2.2907
15194TIP3   OH266996   5.297   4.924   0.143  0.4832 -0.4157 -0.2541
15194TIP3    H166997   5.323   4.936   0.052 -0.6216  0.1150 -0.5140
15194TIP3    H266998   5.250   5.005   0.166 -0.9131 -1.3089  0.1772
15195TIP3   OH266999   2.651   6.228  14.527 -0.0670 -0.1483  0.0902
15195TIP3    H167000   2.557   6.245  14.530 -0.1573  0.0081 -1.8310
15195TIP3    H267001   2.658   6.133  14.526 -0.5045 -0.2706 -3.0745
15196TIP3   OH267002   2.254   0.865   1.742  0.3624 -0.0648 -0.5696
15196TIP3    H167003   2.258   0.778   1.704 -0.0483  0.3243 -1.5381
15196TIP3    H267004   2.225   0.851   1.832 -0.8237 -0.8419 -1.0517
15197TIP3   OH267005   0.362   3.425  10.465  0.0776  0.3090 -0.4167
15197TIP3    H167006   0.380   3.332  10.446  1.6106  0.4401  0.2113
15197TIP3    H267007   0.434   3.451  10.522  0.2004  2.1454 -1.3586
15198TIP3   OH267008   0.828   5.414   3.187  0.0243  0.5606  0.1256
15198TIP3    H167009   0.821   5.409   3.092  1.5980  1.0051 -0.0418
15198TIP3    H267010   0.906   5.469   3.203  0.6483 -0.6752  1.6461
15199TIP3   OH267011   4.571   5.811  16.111  0.3739 -0.0561 -0.0237
15199TIP3    H167012   4.605   5.898  16.132  1.5195 -0.4519 -0.1645
15199TIP3    H267013   4.632   5.777  16.046  0.8811 -1.6030  1.2129
15200TIP3   OH267014   4.317   2.431   5.893 -0.6422  0.5302 -0.2423
15200TIP3    H167015   4.276   2.515   5.870 -1.3019 -0.2258 -2.0121
15200TIP3    H267016   4.246   2.381   5.933 -0.6435  0.3160 -0.5079
15201TIP3   OH267017   6.555   4.445   2.975 -0.0587 -0.7708 -0.7651
15201TIP3    H167018   6.546   4.354   3.003  0.8300 -0.9826 -1.1430
15201TIP3    H267019   6.648   4.457   2.958 -0.3978 -0.3458 -2.5713
15202TIP3   OH267020   6.595   4.113  14.827 -0.1049 -0.2364  0.5451
15202TIP3    H167021   6.609   4.086  14.918 -2.6165 -1.7834  0.5761
15202TIP3    H267022   6.511   4.158  14.828 -0.5710 -0.9901 -1.1003
15203TIP3   OH267023   1.910   5.531  12.832  0.4652  0.6215 -0.3949
15203TIP3    H167024   1.849   5.489  12.771 -0.1013 -0.4536  0.8583
15203TIP3    H267025   1.858   5.545  12.911  1.3696  1.3610  0.0782
15204TIP3   OH267026   5.215   2.829  16.136  0.1093  0.3979  0.7732
15204TIP3    H167027   5.180   2.829  16.225 -1.0065  0.4147  0.3516
15204TIP3    H267028   5.147   2.869  16.083  1.4942  2.0822  0.1634
15205TIP3   OH267029   1.628   0.301  14.855  0.1036 -0.0182 -0.7470
15205TIP3    H167030   1.618   0.395  14.840  1.3699  0.4402  0.8572
15205TIP3    H267031   1.549   0.275  14.903  1.0434  0.9285  1.4326
15206TIP3   OH267032   4.287   3.207   0.748 -0.3582 -0.1631  0.4295
15206TIP3    H167033   4.226   3.259   0.695  1.5020 -0.1725 -1.8967
15206TIP3    H267034   4.270   3.116   0.720  1.9712 -0.0207 -1.8459
15207TIP3   OH267035   6.253   4.941   1.628  0.0088 -0.0533  0.2347
15207TIP3    H167036   6.176   4.985   1.666 -0.5653 -0.2853 -0.6264
15207TIP3    H267037   6.312   5.012   1.604 -0.1857  0.1578  0.3746
15208TIP3   OH267038   1.682   3.061   4.516 -0.2497 -0.2926 -0.5077
15208TIP3    H167039   1.597   3.098   4.538 -0.7780 -2.1778  0.8198
15208TIP3    H267040   1.723   3.042   4.600 -0.1697 -2.9798 -1.0471
15209TIP3   OH267041   5.730   0.248  15.452  0.2783 -0.4754 -0.3277
15209TIP3    H167042   5.692   0.290  15.529 -0.0396 -2.6851  0.8281
15209TIP3    H267043   5.813   0.293  15.437  0.4388 -0.1310  1.4534
15210TIP3   OH267044   5.667   2.299  11.213 -0.0973 -1.0953  0.2637
15210TIP3    H167045   5.758   2.303  11.241  0.5018 -0.8872 -1.5747
15210TIP3    H267046   5.633   2.220  11.254 -0.3769  0.9187  4.3797
15211TIP3   OH267047   6.104   3.513   4.141  0.1564 -0.1318  0.5585
15211TIP3    H167048   6.140   3.584   4.087 -0.4150 -0.2544 -0.0004
15211TIP3    H267049   6.149   3.521   4.225  1.6176 -0.4184 -0.1829
15212TIP3   OH267050   6.595   2.112  16.189 -0.8367 -0.3890 -0.4877
15212TIP3    H167051   6.593   2.140  16.097 -0.4976  0.0813 -0.3566
15212TIP3    H267052   6.621   2.020  16.185  2.3925  0.4020 -0.7500
15213TIP3   OH267053   4.630   1.503   2.433 -0.2268 -0.3686  0.2429
15213TIP3    H167054   4.716   1.528   2.399 -0.6002 -0.2868 -0.6498
15213TIP3    H267055   4.638   1.409   2.451 -0.0968 -0.4582 -0.2821
15214TIP3   OH267056   4.595   2.935   0.959 -0.6654 -0.6290  0.0193
15214TIP3    H167057   4.616   3.022   0.926  0.2250 -1.3084 -1.3244
15214TIP3    H267058   4.501   2.936   0.973 -0.4631  1.0493  1.6624
15215TIP3   OH267059   6.730   4.919   4.198 -0.3190  0.4353  0.5667
15215TIP3    H167060   6.710   4.934   4.291  0.1765 -0.2518  0.7916
15215TIP3    H267061   6.820   4.948   4.188  0.0432 -0.6274  0.5914
15216TIP3   OH267062   1.038   6.691   6.246  0.4523  0.3048 -0.1567
15216TIP3    H167063   1.017   6.681   6.153  0.2797  3.3749 -0.5378
15216TIP3    H267064   1.068   6.781   6.254 -1.4135  0.7700  3.1013
15217TIP3   OH267065   4.208   5.995   0.029  0.4077  0.1233  0.8065
15217TIP3    H167066   4.151   5.981   0.104  1.2481 -0.3608  1.3741
15217TIP3    H267067   4.291   6.024   0.067  1.1489 -1.0554  0.1532
15218TIP3   OH267068   5.983   0.040  12.329 -0.3138 -0.1559 -0.0023
15218TIP3    H167069   6.074   0.014  12.317 -0.5942 -0.3499 -2.1517
15218TIP3    H267070   5.936  -0.042  12.339 -0.3785 -0.1155  0.0272
15219TIP3   OH267071   3.107   2.400   4.256 -0.5016  0.0545 -0.4032
15219TIP3    H167072   3.093   2.482   4.304  0.7829  0.5733 -0.8662
15219TIP3    H267073   3.121   2.428   4.166  0.0222 -0.6637 -0.5537
15220TIP3   OH267074   1.825   4.280   4.668  0.6331 -0.0860 -0.3712
15220TIP3    H167075   1.897   4.311   4.723  0.4633  0.2539 -0.3401
15220TIP3    H267076   1.866   4.263   4.583  0.6499  0.6613 -0.5258
15221TIP3   OH267077   4.238   1.287  16.430  0.2557  0.0404 -0.0442
15221TIP3    H167078   4.266   1.308  16.519  1.7292  0.2195 -0.5196
15221TIP3    H267079   4.174   1.354  16.408 -1.5583 -1.0789  1.5167
15222TIP3   OH267080   0.968   4.993  15.349  0.4656 -0.1369 -0.1689
15222TIP3    H167081   0.973   4.928  15.419  0.3757  0.4170  0.3576
15222TIP3    H267082   0.875   5.013  15.341  0.1160 -2.1639 -2.3005
15223TIP3   OH267083   5.830   3.606  11.661  0.1358 -0.4803  0.4281
15223TIP3    H167084   5.792   3.621  11.574  1.6735 -0.2878 -0.2461
15223TIP3    H267085   5.897   3.538  11.646 -0.5308 -1.4628  1.7368
15224TIP3   OH267086   0.716   2.945   5.646  0.2962 -0.2144 -0.1080
15224TIP3    H167087   0.796   2.997   5.650  0.4130 -0.3836 -0.1759
15224TIP3    H267088   0.690   2.949   5.554 -0.4999  0.9065  0.1557
15225TIP3   OH267089   6.482   1.184  12.252  0.2459  0.1924 -0.7111
15225TIP3    H167090   6.503   1.158  12.162 -0.9663 -0.4395 -0.8298
15225TIP3    H267091   6.552   1.143  12.304 -0.0796 -1.0284 -1.1851
15226TIP3   OH267092   6.499   1.258  15.189  0.0595  0.0283 -0.3212
15226TIP3    H167093   6.545   1.307  15.257  1.0757  0.4334 -1.2734
15226TIP3    H267094   6.555   1.183  15.171  0.6862  0.8353 -1.9051
15227TIP3   OH267095   1.153   1.814   2.531  0.1881 -0.3571  0.1374
15227TIP3    H167096   1.208   1.861   2.594  0.9723 -0.3170 -0.5563
15227TIP3    H267097   1.115   1.742   2.580  1.3090 -0.7064  0.4989
15228TIP3   OH267098   0.254   0.616   0.723 -0.2791  0.1586 -0.0004
15228TIP3    H167099   0.266   0.703   0.762 -0.5207  0.5021 -0.6886
15228TIP3    H267100   0.175   0.582   0.764  0.2345 -0.0596  0.8375
15229TIP3   OH267101   6.368   3.466   2.088 -0.4456 -0.1295  0.4789
15229TIP3    H167102   6.280   3.434   2.107 -1.1537  0.8888 -0.9334
15229TIP3    H267103   6.384   3.438   1.998  0.6174 -0.1293  0.6536
15230TIP3   OH267104   3.289   4.507   0.846  0.2315  0.0620 -0.3856
15230TIP3    H167105   3.282   4.516   0.751  2.2912 -0.6052 -0.6407
15230TIP3    H267106   3.364   4.562   0.871 -1.1056  1.3401  1.0801
15231TIP3   OH267107   0.912   3.251  17.140  0.1807  0.0765  0.0698
15231TIP3    H167108   0.973   3.178  17.142 -0.7524 -0.7427 -0.3808
15231TIP3    H267109   0.930   3.296  17.058  0.5400  0.1585  0.1945
15232TIP3   OH267110   2.072   2.745   5.077 -0.1107 -0.0156 -0.1376
15232TIP3    H167111   2.107   2.807   5.013  1.6649 -0.8373 -0.0126
15232TIP3    H267112   2.149   2.702   5.114 -1.2613 -2.9301 -0.8449
15233TIP3   OH267113   4.119   5.471   1.306 -0.3776  0.1796  0.1202
15233TIP3    H167114   4.201   5.432   1.276 -1.5236 -0.7794 -2.0605
15233TIP3    H267115   4.137   5.564   1.310  1.2038 -0.1349  1.1285
15234TIP3   OH267116   5.627   4.351  17.108  0.2468 -0.3096 -0.2992
15234TIP3    H167117   5.680   4.421  17.146 -0.6463  0.9474 -1.2666
15234TIP3    H267118   5.540   4.366  17.143 -0.7017  1.1453 -3.0152
15235TIP3   OH267119   0.211   0.197  14.659 -0.0962 -0.1280  0.4291
15235TIP3    H167120   0.208   0.224  14.751 -1.5097  1.1637  0.0502
15235TIP3    H267121   0.284   0.247  14.622  1.1834 -1.4555  1.0313
15236TIP3   OH267122   2.089   4.505  16.604 -0.0232 -0.5024  0.2181
15236TIP3    H167123   2.175   4.503  16.562 -0.8208 -1.9443 -1.5272
15236TIP3    H267124   2.082   4.421  16.648  0.3303  0.5417  2.3603
15237TIP3   OH267125   3.543   4.829  16.514  0.3543 -0.2368  0.1529
15237TIP3    H167126   3.476   4.762  16.524  0.4719 -0.2144  1.2653
15237TIP3    H267127   3.519   4.896  16.578  0.7940  0.3204 -0.2489
15238TIP3   OH267128   4.417   6.254  16.454 -0.3551 -0.8041 -0.0000
15238TIP3    H167129   4.326   6.260  16.481 -0.0804 -1.0919  1.0733
15238TIP3    H267130   4.461   6.212  16.529  1.0084  1.1465  0.3630
15239TIP3   OH267131   2.372   0.951  16.234 -0.1122 -0.2704 -0.0600
15239TIP3    H167132   2.432   0.964  16.161 -0.0104 -0.5261 -0.0226
15239TIP3    H267133   2.403   0.872  16.278 -0.8418 -0.7644 -0.4044
15240TIP3   OH267134   4.624   1.647   2.015  0.4776 -0.6828  0.1148
15240TIP3    H167135   4.689   1.648   2.085  0.2092  3.1517  0.5291
15240TIP3    H267136   4.540   1.658   2.059  0.0317 -0.7970 -0.6836
15241TIP3   OH267137   2.583   1.256  16.185 -0.0685  0.4328 -0.4476
15241TIP3    H167138   2.618   1.185  16.238  0.1099  1.1744  0.4596
15241TIP3    H267139   2.601   1.230  16.094 -0.4535 -0.8939 -0.1629
15242TIP3   OH267140   3.663   2.366   2.227  0.3897 -0.0077 -0.4446
15242TIP3    H167141   3.577   2.394   2.259  1.2966  2.7247 -0.1287
15242TIP3    H267142   3.719   2.371   2.305  1.0603 -0.7356 -0.8718
15243TIP3   OH267143   1.820   1.137  14.312 -0.5360 -0.4593 -0.4329
15243TIP3    H167144   1.828   1.212  14.370 -1.3437 -1.7272  1.3872
15243TIP3    H267145   1.758   1.166  14.244 -1.5685  0.2219  0.7640
15244TIP3   OH267146   2.288   3.986  12.036  0.2411 -0.3175  0.1951
15244TIP3    H167147   2.297   3.934  12.115  0.3524 -1.3234 -0.4682
15244TIP3    H267148   2.334   3.936  11.968 -1.5854 -0.4954 -0.9631
15245TIP3   OH267149   5.171   6.706  12.173 -0.0596 -0.3787  0.0918
15245TIP3    H167150   5.118   6.767  12.121 -0.2890 -0.9457 -0.3569
15245TIP3    H267151   5.257   6.706  12.129 -0.2345 -0.8110 -0.2590
15246TIP3   OH267152   1.947   1.460   1.843  0.8916  0.1011 -0.3225
15246TIP3    H167153   1.936   1.455   1.748  1.6514  0.3111 -0.4292
15246TIP3    H267154   1.971   1.371   1.869  1.4212  0.2098 -0.4317
15247TIP3   OH267155   0.125   6.078   2.569  0.3066 -0.3307 -0.0805
15247TIP3    H167156   0.065   6.086   2.494 -0.2605 -0.0415  0.3903
15247TIP3    H267157   0.130   5.984   2.585  0.8667 -0.4375 -0.8202
15248TIP3   OH267158   5.095   4.283  12.079 -0.0439 -0.2533 -0.1803
15248TIP3    H167159   5.143   4.335  12.143  0.3947 -0.8248 -0.0396
15248TIP3    H267160   5.119   4.193  12.098  1.0817 -0.3770 -1.9487
15249TIP3   OH267161   2.596   3.574  14.526 -0.0163  0.3654 -0.2213
15249TIP3    H167162   2.517   3.624  14.546  1.2146  2.2627  0.1568
15249TIP3    H267163   2.630   3.548  14.611 -0.1266 -0.3149 -0.3767
15250TIP3   OH267164   0.243   6.275   3.825  0.1080  0.2617  0.0631
15250TIP3    H167165   0.284   6.252   3.908 -1.5740 -1.3387  0.5225
15250TIP3    H267166   0.282   6.216   3.761  0.8392  0.9659 -0.1582
15251TIP3   OH267167   2.805   5.338   5.965  0.0443  0.4161  0.4793
15251TIP3    H167168   2.751   5.365   6.039 -3.6798 -0.1175 -1.7787
15251TIP3    H267169   2.838   5.420   5.928 -0.1091  0.8560  1.2944
15252TIP3   OH267170   6.022   1.481   5.547 -0.2508  0.9364 -0.0804
15252TIP3    H167171   5.979   1.477   5.462 -1.4962 -1.2090  0.5948
15252TIP3    H267172   5.951   1.480   5.611  0.6343 -3.0771  1.0877
15253TIP3   OH267173   1.618   5.494   1.041  0.7923  0.0716  0.2071
15253TIP3    H167174   1.611   5.486   1.136  0.8183 -1.3319  0.1162
15253TIP3    H267175   1.653   5.582   1.026  0.9277  0.2516  1.4977
15254TIP3   OH267176   4.566   3.116  13.158 -0.0494 -0.1185  0.7170
15254TIP3    H167177   4.493   3.130  13.099  0.5192 -0.9300 -0.1892
15254TIP3    H267178   4.643   3.147  13.110  0.4393 -0.8974  0.9769
15255TIP3   OH267179   2.369   4.373   0.993 -0.0545  0.0571  0.2321
15255TIP3    H167180   2.329   4.391   1.079 -1.3059 -1.3247 -0.0261
15255TIP3    H267181   2.299   4.335   0.941  0.8293  0.3903 -1.2652
15256TIP3   OH267182   0.880   3.759   0.612 -0.0541  0.3045  0.5123
15256TIP3    H167183   0.938   3.753   0.688  1.8992 -0.8281 -0.9866
15256TIP3    H267184   0.873   3.669   0.579  0.7353  1.0059 -1.7568
15257TIP3   OH267185   2.800   5.028  15.915 -0.1921 -0.0967 -0.0606
15257TIP3    H167186   2.821   5.114  15.879 -1.6323  0.1901 -0.2791
15257TIP3    H267187   2.705   5.031  15.931  0.0010 -1.0445  1.5299
15258TIP3   OH267188   0.999   2.290   4.349 -0.1859 -0.3303 -0.1945
15258TIP3    H167189   1.076   2.346   4.344  0.0660 -0.6703 -0.1233
15258TIP3    H267190   1.009   2.229   4.276 -0.3350 -0.4420 -0.1216
15259TIP3   OH267191   3.668   5.617   5.239 -0.0789  0.1079 -0.0971
15259TIP3    H167192   3.695   5.618   5.147 -0.2732 -2.3178 -0.2438
15259TIP3    H267193   3.689   5.705   5.271  1.7447  0.4282 -1.9426
15260TIP3   OH267194   1.759   0.080  16.682 -0.1046 -0.3541 -0.4078
15260TIP3    H167195   1.787   0.157  16.631 -0.9961  1.4717  1.6767
15260TIP3    H267196   1.666   0.071  16.661 -0.3624  0.1147  0.4911
15261TIP3   OH267197   4.310   5.839  16.025 -0.2680  0.5595 -0.5752
15261TIP3    H167198   4.331   5.766  15.967  1.5269 -0.5317  1.3276
15261TIP3    H267199   4.395   5.868  16.059 -1.2448  1.0197  1.6308
15262TIP3   OH267200   0.978   1.328  14.437 -0.6924  0.3036  0.2645
15262TIP3    H167201   0.969   1.256  14.374  0.5645  0.0590  0.3487
15262TIP3    H267202   0.991   1.406  14.383 -0.1166  0.1689  0.2057
15263TIP3   OH267203   4.452   1.325   3.429 -0.2690  0.6690  0.3575
15263TIP3    H167204   4.516   1.282   3.372 -0.7701 -0.5460  0.6729
15263TIP3    H267205   4.406   1.253   3.472 -1.0070  1.5385  1.0746
15264TIP3   OH267206   5.157   6.349  10.911 -0.3780 -0.2493  0.4872
15264TIP3    H167207   5.213   6.297  10.969  2.2327  0.1399 -1.4830
15264TIP3    H267208   5.153   6.435  10.953 -0.4558 -0.5964  1.2142
15265TIP3   OH267209   2.367   2.814  11.919  0.2741 -0.1589 -0.5594
15265TIP3    H167210   2.363   2.910  11.918  1.6286 -0.0244  1.7214
15265TIP3    H267211   2.282   2.786  11.885 -0.3692  1.8368 -0.6959
15266TIP3   OH267212   3.840   0.538   0.421  0.5242  0.0868 -0.1967
15266TIP3    H167213   3.845   0.632   0.405 -2.1547  0.3884  0.2203
15266TIP3    H267214   3.804   0.502   0.340 -0.2088 -0.2828  0.2790
15267TIP3   OH267215   4.045   3.249   4.377  0.3169 -0.1235  0.2145
15267TIP3    H167216   4.002   3.199   4.307  0.1951  1.3385 -0.8023
15267TIP3    H267217   3.989   3.325   4.390  0.2848 -0.4271  2.0122
15268TIP3   OH267218   5.712   2.347  14.843  0.0752 -0.0674 -0.2029
15268TIP3    H167219   5.779   2.415  14.857  0.2099 -0.1322 -0.5259
15268TIP3    H267220   5.645   2.391  14.791 -0.3084  0.1015  0.4215
15269TIP3   OH267221   2.019   6.084   0.038  0.3307 -0.1184 -0.0868
15269TIP3    H167222   2.020   6.054  -0.053 -0.4228 -0.8809  0.1479
15269TIP3    H267223   2.029   6.179   0.031 -0.0842 -0.1264 -0.9831
15270TIP3   OH267224   6.760   5.785  12.863 -0.4912 -0.2772  0.9419
15270TIP3    H167225   6.697   5.743  12.805 -1.8983  0.4823  1.8536
15270TIP3    H267226   6.768   5.724  12.937  0.8963 -0.9962  0.2383
15271TIP3   OH267227   1.793   1.468   0.458 -0.0435  0.0756 -0.2109
15271TIP3    H167228   1.858   1.430   0.516  0.8917  2.6255  0.5583
15271TIP3    H267229   1.709   1.439   0.493  0.5471  0.5229  1.6981
15272TIP3   OH267230   5.409   4.279  14.193 -0.3866 -0.3831 -0.3333
15272TIP3    H167231   5.324   4.311  14.223 -0.2827 -1.2569  0.9969
15272TIP3    H267232   5.420   4.317  14.106 -2.1345 -0.2535 -0.5333
15273TIP3   OH267233   6.269   2.067  12.377  0.1814 -0.5328 -0.1723
15273TIP3    H167234   6.263   1.971  12.373  0.2923 -0.7415  2.4264
15273TIP3    H267235   6.352   2.084  12.421  0.2675  0.7901 -0.7884
15274TIP3   OH267236   6.740   1.193  17.187  0.2559  0.0352  0.0490
15274TIP3    H167237   6.727   1.107  17.148  2.5113  0.7481 -2.6248
15274TIP3    H267238   6.802   1.178  17.259 -0.8630 -0.7884  0.8596
15275TIP3   OH267239   4.094   1.648   4.391  1.0980 -0.6698  0.4051
15275TIP3    H167240   4.053   1.565   4.412 -1.2397  0.3479  0.1456
15275TIP3    H267241   4.068   1.666   4.300  1.8866  0.1807  0.3290
15276TIP3   OH267242   4.058   4.453  15.180 -0.0883  0.0311 -0.5333
15276TIP3    H167243   4.003   4.426  15.254  0.9368 -0.2054  0.1712
15276TIP3    H267244   4.147   4.433  15.209  0.3502  0.1795 -1.7435
15277TIP3   OH267245   3.262   1.511  16.966  0.8477  0.1570  0.0180
15277TIP3    H167246   3.334   1.550  16.916  1.2667  0.7269  1.0375
15277TIP3    H267247   3.183   1.538  16.919  1.2304  0.7383 -0.3105
15278TIP3   OH267248   1.112   3.433   0.508 -0.2948 -0.0421  0.0382
15278TIP3    H167249   1.056   3.403   0.436  0.9212 -2.0048 -0.1661
15278TIP3    H267250   1.065   3.408   0.587  0.6514 -2.6795 -0.1233
15279TIP3   OH267251   6.066   1.675  11.991  0.1965  0.1401  0.1904
15279TIP3    H167252   6.104   1.653  12.076  1.1746  1.7157  0.1966
15279TIP3    H267253   5.972   1.686  12.010  0.2947 -0.1497  0.9158
15280TIP3   OH267254   5.884   4.118   5.402 -0.0558  0.1342  0.3868
15280TIP3    H167255   5.947   4.072   5.456  2.6118  0.9207 -1.8378
15280TIP3    H267256   5.876   4.205   5.443 -0.0343 -0.0978  0.8915
15281TIP3   OH267257   2.457   6.722   3.774  0.0184  0.3446  0.3424
15281TIP3    H167258   2.401   6.716   3.697  1.3274  0.4123 -0.6452
15281TIP3    H267259   2.411   6.783   3.832  0.1092  2.1252 -1.3622
15282TIP3   OH267260   6.429   1.122  15.643 -0.6067 -0.0179 -0.0736
15282TIP3    H167261   6.405   1.211  15.617 -1.4165  0.4137  1.9553
15282TIP3    H267262   6.349   1.085  15.679 -0.0252 -1.2142  0.0408
15283TIP3   OH267263   3.167   4.273  13.757  0.1104 -0.2232  0.5319
15283TIP3    H167264   3.125   4.314  13.681  1.1264 -0.4343 -0.1604
15283TIP3    H267265   3.124   4.315  13.832 -1.1127 -0.2136 -0.1331
15284TIP3   OH267266   3.104   0.828  13.936 -0.2507  0.1720 -0.4368
15284TIP3    H167267   3.193   0.842  13.969 -0.5466  0.2842  0.3381
15284TIP3    H267268   3.113   0.756  13.873  0.1361 -1.0133  0.9053
15285TIP3   OH267269   5.534   4.428   4.332  0.0478 -0.4936 -0.4924
15285TIP3    H167270   5.505   4.398   4.418 -0.5963  1.2026 -0.0664
15285TIP3    H267271   5.572   4.515   4.348  1.6109 -0.9124 -1.6615
15286TIP3   OH267272   2.526   0.921   5.078  0.2381 -0.3588 -0.1271
15286TIP3    H167273   2.468   0.967   5.139 -0.3415 -0.6572 -0.4440
15286TIP3    H267274   2.480   0.927   4.994  1.3092  0.5879 -0.6736
15287TIP3   OH267275   4.273   6.364   4.875  0.1687 -0.3849  0.2041
15287TIP3    H167276   4.366   6.374   4.891  0.0879  1.2195 -0.1253
15287TIP3    H267277   4.259   6.400   4.787 -0.8418  0.0354  0.5133
15288TIP3   OH267278   2.394   0.517   1.233 -0.3103 -1.1352 -0.2580
15288TIP3    H167279   2.440   0.592   1.271 -1.1052 -1.2748  1.0579
15288TIP3    H267280   2.461   0.471   1.182  0.2364  0.3419 -0.9323
15289TIP3   OH267281   4.492   0.269  13.458 -0.0223  0.0225 -0.2912
15289TIP3    H167282   4.414   0.318  13.481 -0.4758 -0.0205 -1.6511
15289TIP3    H267283   4.544   0.267  13.539 -0.6388  1.4930  0.1684
15290TIP3   OH267284   0.330   0.825  12.669  0.0079 -0.2296 -0.0526
15290TIP3    H167285   0.425   0.836  12.673  0.1620 -1.5304  0.5858
15290TIP3    H267286   0.316   0.731  12.684 -1.4003  0.0003  0.2502
15291TIP3   OH267287   6.094   0.328   5.579 -0.4205 -0.0674 -0.2907
15291TIP3    H167288   6.180   0.286   5.584 -1.5387 -2.3858  1.4316
15291TIP3    H267289   6.064   0.309   5.490  0.7449  0.6509 -0.8685
15292TIP3   OH267290   0.659   2.155  16.494 -0.0534  0.8961  0.2820
15292TIP3    H167291   0.648   2.060  16.503  1.6416  0.5092 -1.0443
15292TIP3    H267292   0.578   2.185  16.453  0.4627 -0.4886 -1.9488
15293TIP3   OH267293   0.631   3.779   4.643 -0.2876 -0.5798  0.0701
15293TIP3    H167294   0.546   3.802   4.606  0.3661  1.4203 -0.3248
15293TIP3    H267295   0.694   3.829   4.591  0.9769 -0.6658  1.4474
15294TIP3   OH267296   4.973   1.065  12.600 -0.6341  0.1853  0.3479
15294TIP3    H167297   5.021   1.040  12.679 -0.0327  0.8396  0.2089
15294TIP3    H267298   4.969   0.986  12.547 -0.6777 -0.1512  0.8531
15295TIP3   OH267299   5.447   3.935   4.638  0.6580  0.1376  0.3231
15295TIP3    H167300   5.394   4.003   4.679 -1.0899 -1.0490  0.1678
15295TIP3    H267301   5.445   3.956   4.545 -2.6412 -1.7508 -0.1930
15296TIP3   OH267302   4.903   4.899  15.186 -0.2052 -0.0651 -0.2388
15296TIP3    H167303   4.825   4.937  15.227 -0.9230 -1.1277 -0.5954
15296TIP3    H267304   4.975   4.924  15.245 -0.9525  0.0622  0.6440
15297TIP3   OH267305   1.845   0.644  15.269 -0.8255  0.3409 -0.0495
15297TIP3    H167306   1.781   0.576  15.288 -0.2892  0.0287  0.6758
15297TIP3    H267307   1.812   0.688  15.191 -1.4542 -0.3973 -0.1984
15298TIP3   OH267308   3.459   5.462  13.826  0.5565  0.3702 -0.1357
15298TIP3    H167309   3.456   5.496  13.915 -1.2133 -0.4343  0.1569
15298TIP3    H267310   3.371   5.477  13.791  0.9168 -0.2604 -1.3849
15299TIP3   OH267311   5.229   0.172  14.138  0.0049 -0.7577 -0.1123
15299TIP3    H167312   5.233   0.180  14.234  0.3001  0.4028 -0.2114
15299TIP3    H267313   5.291   0.102  14.118  1.0752  0.0218  0.4259
15300TIP3   OH267314   1.831   2.690   0.937  0.7428  0.1760  0.5300
15300TIP3    H167315   1.862   2.631   1.006 -4.0065 -1.5503  1.5770
15300TIP3    H267316   1.756   2.735   0.976 -1.6908 -0.2550 -3.1915
15301TIP3   OH267317   0.963   4.510   1.768 -0.2840 -0.2957 -0.1533
15301TIP3    H167318   0.990   4.564   1.693 -0.2731 -2.0120 -1.4549
15301TIP3    H267319   1.045   4.481   1.807 -0.2269  2.3374  1.9652
15302TIP3   OH267320   0.400   2.720   1.879 -0.1582 -0.1746  0.1258
15302TIP3    H167321   0.408   2.808   1.916  1.3216 -0.6309  0.9751
15302TIP3    H267322   0.323   2.725   1.822  0.9641  2.1848 -1.3161
15303TIP3   OH267323   0.228   3.603   1.666  0.8404  0.1329  0.4174
15303TIP3    H167324   0.323   3.600   1.673  0.7650 -0.0816  1.4737
15303TIP3    H267325   0.202   3.511   1.655  0.7632  0.2147 -0.1335
15304TIP3   OH267326   4.458   5.153  13.892 -0.1961  0.0197  0.0654
15304TIP3    H167327   4.463   5.057  13.889  0.1828 -0.0288  1.4174
15304TIP3    H267328   4.419   5.178  13.808  0.4665 -1.2612 -0.6539
15305TIP3   OH267329   4.666   0.574   5.374  0.3788  0.1250  0.0884
15305TIP3    H167330   4.751   0.618   5.371  0.9363 -0.8486  0.8412
15305TIP3    H267331   4.602   0.642   5.354  1.3362  0.8787 -0.4605
15306TIP3   OH267332   3.067   6.032  12.764 -0.1523 -0.2494 -0.0937
15306TIP3    H167333   3.062   5.979  12.843 -0.1385  1.0918  0.8271
15306TIP3    H267334   3.099   6.117  12.793 -1.2519  0.6344 -1.3443
15307TIP3   OH267335   6.095   5.495  13.788  0.4997 -0.6434 -0.1021
15307TIP3    H167336   6.082   5.589  13.778  0.2091 -0.7717 -1.0806
15307TIP3    H267337   6.090   5.479  13.882  0.1380  0.2578  0.0351
15308TIP3   OH267338   3.776   0.376  14.815 -0.4984  0.3263 -0.1663
15308TIP3    H167339   3.810   0.464  14.833  0.0497 -0.0277  0.6011
15308TIP3    H267340   3.777   0.369  14.720  1.2983  0.4637 -0.2061
15309TIP3   OH267341   4.571   5.552   4.057  0.4310  0.8882  0.2929
15309TIP3    H167342   4.481   5.525   4.073  0.6239  1.0743  1.8252
15309TIP3    H267343   4.623   5.503   4.121  1.3634  1.1615 -0.2303
15310TIP3   OH267344   4.908   5.987  15.046  0.6068 -0.6011 -0.5694
15310TIP3    H167345   4.844   5.999  15.116 -0.5708 -2.6833 -1.2209
15310TIP3    H267346   4.928   5.894  15.046  2.4871 -0.2486 -1.4115
15311TIP3   OH267347   1.955   4.278  13.170  0.6585  0.3667  0.3154
15311TIP3    H167348   1.946   4.374  13.166 -0.2909  0.3097  0.9725
15311TIP3    H267349   1.962   4.258  13.263  1.8814 -0.1318  0.1332
15312TIP3   OH267350   0.320   3.173   4.188 -0.2295  0.5023  0.3724
15312TIP3    H167351   0.333   3.080   4.169 -1.2736  0.3298  0.4453
15312TIP3    H267352   0.406   3.204   4.217  0.8042  0.1732 -2.0916
15313TIP3   OH267353   1.073   1.431  12.001 -0.7469 -0.0275 -0.0735
15313TIP3    H167354   1.124   1.351  12.006  1.0138  1.0873  1.2932
15313TIP3    H267355   1.018   1.421  11.924 -0.5526 -2.4992  0.0570
15314TIP3   OH267356   2.669   2.838  12.179  0.0639  0.1147 -0.1591
15314TIP3    H167357   2.684   2.917  12.128  2.0305 -0.8082 -1.1458
15314TIP3    H267358   2.657   2.769  12.114 -1.7043 -0.4320  0.6792
15315TIP3   OH267359   2.042   2.740   3.513  0.7810 -0.4530  0.4223
15315TIP3    H167360   2.106   2.674   3.485  0.4975 -0.7239  0.4158
15315TIP3    H267361   2.095   2.806   3.558  1.4127  0.5012 -1.6002
15316TIP3   OH267362   1.162   6.107  14.297 -0.4029  0.0440 -0.3180
15316TIP3    H167363   1.237   6.165  14.287 -1.2692  1.1384 -0.6989
15316TIP3    H267364   1.162   6.054  14.217  0.3019 -0.3683 -0.0443
15317TIP3   OH267365   4.997   4.359   4.460 -0.3494  0.3932 -0.2243
15317TIP3    H167366   4.931   4.331   4.397  2.0892 -1.4508 -2.1489
15317TIP3    H267367   5.035   4.438   4.421  1.7246 -1.2090 -1.6108
15318TIP3   OH267368   0.162   4.993   6.020 -0.0752  0.6790 -0.2531
15318TIP3    H167369   0.203   5.001   5.934 -0.1672  0.1373 -0.3518
15318TIP3    H267370   0.171   5.080   6.059  0.2667  0.8380 -0.6746
15319TIP3   OH267371   5.619   4.111   2.415 -0.0286 -0.4825 -0.0125
15319TIP3    H167372   5.579   4.141   2.334 -1.9146  0.6811  1.2566
15319TIP3    H267373   5.677   4.183   2.442 -0.0955 -0.4796  0.1248
15320TIP3   OH267374   1.977   2.567  15.855  0.8673  0.4152  0.1098
15320TIP3    H167375   1.938   2.492  15.902 -0.7491  1.9360  1.3599
15320TIP3    H267376   1.973   2.542  15.763 -0.2391 -0.7945  0.4520
15321TIP3   OH267377   3.493   1.517   2.132  0.2030 -0.1063 -0.4108
15321TIP3    H167378   3.527   1.598   2.095  0.5297 -0.6280 -1.2725
15321TIP3    H267379   3.423   1.490   2.073  0.1417 -0.4947 -0.1673
15322TIP3   OH267380   3.073   5.459  14.206  0.4603  0.6791 -0.3097
15322TIP3    H167381   3.063   5.476  14.112  0.7726 -0.4113 -0.5596
15322TIP3    H267382   3.167   5.450  14.219  0.4321  1.0044  0.1459
15323TIP3   OH267383   2.900   4.596  11.459  0.2448 -0.1862 -0.2804
15323TIP3    H167384   2.919   4.644  11.540 -0.8177  0.1846 -0.2300
15323TIP3    H267385   2.849   4.520  11.488  1.6236 -1.1754 -0.4009
15324TIP3   OH267386   4.768   6.693   4.728  0.2292 -0.1602 -0.1813
15324TIP3    H167387   4.698   6.741   4.773  0.6257 -0.5776  0.9087
15324TIP3    H267388   4.820   6.761   4.685 -0.6165  0.1815 -0.6930
15325TIP3   OH267389   2.091   1.479   6.357  0.7401  0.2888 -0.2192
15325TIP3    H167390   2.100   1.572   6.335 -0.0845  0.5044  0.3084
15325TIP3    H267391   2.106   1.433   6.275  2.2884  0.8215 -0.2655
15326TIP3   OH267392   1.687   5.326  11.483  0.4274  0.9855 -0.0384
15326TIP3    H167393   1.674   5.326  11.578 -1.8662  1.0046 -0.2967
15326TIP3    H267394   1.730   5.243  11.465 -2.6769 -0.9414  0.6894
15327TIP3   OH267395   3.184   2.889   1.325  0.1214  0.8470  0.3010
15327TIP3    H167396   3.228   2.934   1.253 -0.2658  1.7554  0.6181
15327TIP3    H267397   3.092   2.885   1.299 -0.5903  3.7800  1.9321
15328TIP3   OH267398   3.839   5.844  13.512 -0.2382 -0.1318 -0.2429
15328TIP3    H167399   3.767   5.907  13.523 -0.6069 -0.6455  0.3668
15328TIP3    H267400   3.841   5.826  13.418  1.3857  2.5246 -0.7946
15329TIP3   OH267401   5.795   1.589   3.859 -0.0368  0.3068 -0.3656
15329TIP3    H167402   5.814   1.503   3.824 -0.5147  0.7342 -1.7133
15329TIP3    H267403   5.801   1.578   3.954  0.2175 -1.1193 -0.5296
15330TIP3   OH267404   1.219   5.102  11.313  0.2514 -0.2985  0.0208
15330TIP3    H167405   1.185   5.178  11.360  2.2957  0.3064  0.5944
15330TIP3    H267406   1.143   5.045  11.303 -0.9334  0.9912  1.1986
15331TIP3   OH267407   3.044   4.117  13.302 -0.1229  0.2338 -0.1866
15331TIP3    H167408   2.986   4.050  13.265  1.0272 -0.0125 -1.6274
15331TIP3    H267409   3.059   4.088  13.392 -0.7523 -0.6919 -0.3608
15332TIP3   OH267410   5.784   2.231  13.850 -0.0035  0.5221 -0.2925
15332TIP3    H167411   5.781   2.307  13.791 -1.3687 -0.1407 -1.1187
15332TIP3    H267412   5.868   2.191  13.832  2.2301  3.5104  2.3886
15333TIP3   OH267413   5.610   5.335  12.845  0.4801 -0.5834  0.1786
15333TIP3    H167414   5.534   5.287  12.811  0.9203 -1.8704  0.9811
15333TIP3    H267415   5.660   5.360  12.767  0.3570 -1.6146 -0.2408
15334TIP3   OH267416   0.016   3.591   4.905 -0.3517 -0.0941  0.0758
15334TIP3    H167417  -0.016   3.659   4.965  1.8667  0.2253  0.9962
15334TIP3    H267418   0.036   3.517   4.962  0.3584 -0.3392 -0.4816
15335TIP3   OH267419   4.845   5.989   4.469 -0.3032  0.9839  0.4899
15335TIP3    H167420   4.880   5.911   4.511  0.2613  1.1075  0.2500
15335TIP3    H267421   4.893   5.996   4.387 -1.4906  0.6722 -0.2536
15336TIP3   OH267422   6.246   4.680  15.731 -0.0590 -0.0051  0.3847
15336TIP3    H167423   6.249   4.592  15.768  0.5166 -0.6144 -1.0712
15336TIP3    H267424   6.313   4.729  15.780  1.5242 -1.1112 -0.6123
15337TIP3   OH267425   6.564   3.230  16.160  0.4225  0.2284  0.1871
15337TIP3    H167426   6.588   3.137  16.155 -0.1027  0.1383 -0.7566
15337TIP3    H267427   6.562   3.248  16.254 -0.9291 -1.1071  0.4653
15338TIP3   OH267428   3.290   4.507   4.957 -0.3930 -0.0593 -0.1098
15338TIP3    H167429   3.225   4.543   4.897 -0.3332  0.5073  0.1612
15338TIP3    H267430   3.318   4.582   5.010 -1.6234 -0.8379  1.7310
15339TIP3   OH267431   6.002   0.647   2.698  0.6799 -0.2007  0.3742
15339TIP3    H167432   5.946   0.715   2.737  0.9639  0.1849  0.1101
15339TIP3    H267433   6.076   0.695   2.661  0.7167 -0.6245 -0.1041
15340TIP3   OH267434   3.364   5.975  11.327 -0.5807  0.1712 -0.3020
15340TIP3    H167435   3.352   5.916  11.402 -1.4939  0.7506  0.0159
15340TIP3    H267436   3.277   5.984  11.289 -0.3719  0.9822 -0.5998
15341TIP3   OH267437   3.028   5.905   3.981  0.2220  0.0731  0.0096
15341TIP3    H167438   3.038   5.923   4.075 -0.2604 -1.3853  0.3810
15341TIP3    H267439   2.982   5.821   3.978 -1.3574  0.9337 -1.5582
15342TIP3   OH267440   2.912   3.634   5.244  0.5178  0.2036  0.3317
15342TIP3    H167441   2.863   3.700   5.293  0.2211  0.0127  0.2910
15342TIP3    H267442   2.939   3.679   5.164 -1.1725 -0.2112 -0.5200
15343TIP3   OH267443   5.881   5.748  13.481 -0.2424 -0.0719  0.4694
15343TIP3    H167444   5.853   5.831  13.521  0.0005  0.9017 -1.2679
15343TIP3    H267445   5.968   5.767  13.448  0.0159 -1.2063  0.4785
15344TIP3   OH267446   2.470   3.998   5.382  0.1475  0.3478 -0.3178
15344TIP3    H167447   2.439   4.089   5.376 -0.8869  0.0089 -0.3186
15344TIP3    H267448   2.562   4.002   5.356  0.0280  1.3509 -0.6231
15345TIP3   OH267449   5.599   2.138   4.211  0.6462 -0.0578  0.5475
15345TIP3    H167450   5.656   2.084   4.157 -0.1926 -1.6735  1.1802
15345TIP3    H267451   5.526   2.161   4.154  1.2771  0.8916  0.1160
15346TIP3   OH267452   6.636   6.301  12.019 -0.1836 -0.5578  0.8335
15346TIP3    H167453   6.602   6.361  11.952 -0.5032  2.0451  3.1725
15346TIP3    H267454   6.728   6.290  11.996 -0.1055  0.8752  0.3340
15347TIP3   OH267455   3.806   2.766  11.473 -0.3315  0.1534  0.2037
15347TIP3    H167456   3.749   2.704  11.518  1.0737 -1.0852  0.3845
15347TIP3    H267457   3.883   2.773  11.530  0.8147 -0.2438 -1.2187
15348TIP3   OH267458   5.211   6.003   1.268  0.3400 -0.1552 -0.1939
15348TIP3    H167459   5.207   5.985   1.174  0.8276 -1.2603 -0.0228
15348TIP3    H267460   5.162   6.084   1.279 -1.1854 -0.8916 -1.1785
15349TIP3   OH267461   6.273   4.122   4.781 -0.2710 -0.3234 -0.0732
15349TIP3    H167462   6.272   4.218   4.783  2.3391 -0.2005 -1.3390
15349TIP3    H267463   6.329   4.100   4.707 -4.5213 -2.9348 -2.9465
15350TIP3   OH267464   5.855   4.133  16.636 -0.2044  0.1946 -0.2632
15350TIP3    H167465   5.841   4.071  16.707  2.3053 -0.2138 -0.0484
15350TIP3    H267466   5.886   4.080  16.563  3.2446  1.1651  0.3081
15351TIP3   OH267467   0.035   2.598   0.333 -0.4022  0.0632 -0.7297
15351TIP3    H167468  -0.028   2.663   0.301  0.6159  1.2332 -0.4103
15351TIP3    H267469   0.082   2.570   0.254  0.0138  0.6543 -0.6940
15352TIP3   OH267470   6.462   3.627   3.311  0.3202  0.1042 -0.6622
15352TIP3    H167471   6.445   3.533   3.318  1.0895  0.0432  1.0110
15352TIP3    H267472   6.421   3.664   3.389 -1.8695  1.5156 -2.3573
15353TIP3   OH267473   1.312   3.662   5.811 -0.6273  0.8738  0.6661
15353TIP3    H167474   1.356   3.746   5.795  0.5175  0.1070 -0.3121
15353TIP3    H267475   1.253   3.680   5.884  0.2462  2.3075  1.0552
15354TIP3   OH267476   0.347   1.084  14.500 -0.2174 -0.1056  0.2160
15354TIP3    H167477   0.419   1.144  14.478 -0.4168  0.0089 -0.1212
15354TIP3    H267478   0.313   1.055  14.416  0.5653 -1.5401  0.3738
15355TIP3   OH267479   1.078   1.016   0.269 -0.7070 -0.1253  0.5267
15355TIP3    H167480   1.165   1.035   0.234 -0.9256 -1.5134 -0.8662
15355TIP3    H267481   1.046   1.100   0.301  0.4122  0.7808 -0.6461
15356TIP3   OH267482   6.137   5.515  11.133  0.5813  0.1463  0.2910
15356TIP3    H167483   6.223   5.475  11.123  1.1897  1.4108  0.3323
15356TIP3    H267484   6.099   5.472  11.210  1.5009  0.1420  0.7489
15357TIP3   OH267485   1.137   0.808  16.835  0.1282 -0.5732  0.4077
15357TIP3    H167486   1.046   0.813  16.864 -0.5979 -1.7373 -1.4738
15357TIP3    H267487   1.188   0.821  16.914 -1.6841 -0.5148  1.6257
15358TIP3   OH267488   4.207   5.186   0.790 -0.2108  0.0414  0.3462
15358TIP3    H167489   4.227   5.248   0.720  1.8480  2.9847  3.2177
15358TIP3    H267490   4.254   5.106   0.765  0.7128  1.0878 -1.4747
15359TIP3   OH267491   0.824   5.580   3.459  0.0863  0.2113 -0.1679
15359TIP3    H167492   0.832   5.537   3.373 -0.3939  0.6143 -0.4237
15359TIP3    H267493   0.791   5.668   3.438 -0.2032  0.2495  0.4445
15360TIP3   OH267494   5.294   2.896   6.151  0.1163 -0.2928 -0.1352
15360TIP3    H167495   5.306   2.802   6.133  0.3774 -0.3204  0.1637
15360TIP3    H267496   5.375   2.936   6.119  1.1290 -0.4880  1.9913
15361TIP3   OH267497   6.658   0.535  13.821  0.1669  0.8761  0.2532
15361TIP3    H167498   6.661   0.450  13.865  2.0274  0.2345 -0.9696
15361TIP3    H267499   6.672   0.599  13.891 -1.6063  0.2331  1.2388
15362TIP3   OH267500   1.405   3.626   1.677 -0.4356 -0.2213 -0.2178
15362TIP3    H167501   1.443   3.538   1.671 -1.4044 -0.7003  0.3837
15362TIP3    H267502   1.331   3.616   1.737 -0.7090  0.9603 -0.3328
15363TIP3   OH267503   6.397   2.260   2.197 -0.0785  0.4678  0.2204
15363TIP3    H167504   6.314   2.216   2.180  0.8563 -0.4748 -2.4252
15363TIP3    H267505   6.461   2.188   2.202  0.9891  1.2897 -0.9049
15364TIP3   OH267506   3.571   1.327  11.780 -0.1913  0.3519  0.4031
15364TIP3    H167507   3.665   1.325  11.762 -0.3680  0.4733 -0.6019
15364TIP3    H267508   3.538   1.400  11.729 -0.6117  1.2945  1.9625
15365TIP3   OH267509   5.285   3.311  10.778  0.0295 -0.0064 -0.2368
15365TIP3    H167510   5.295   3.333  10.871 -1.0530 -0.0424 -0.0980
15365TIP3    H267511   5.309   3.218  10.773 -2.7486 -0.8551  0.5848
15366TIP3   OH267512   5.528   0.470  13.708  0.3260 -0.0912  0.1835
15366TIP3    H167513   5.617   0.503  13.723  1.3989 -2.0151 -1.6139
15366TIP3    H267514   5.521   0.393  13.764 -0.0248 -0.2908 -0.1330
15367TIP3   OH267515   6.013   5.869   4.315  0.1243  0.8042  0.2657
15367TIP3    H167516   6.023   5.948   4.367 -4.0946  2.1881 -0.6396
15367TIP3    H267517   5.931   5.830   4.346  1.3251 -2.5523 -0.2986
15368TIP3   OH267518   5.234   3.657  10.796  0.8466 -0.3067 -0.5366
15368TIP3    H167519   5.309   3.626  10.847  1.1450 -0.5913 -1.1304
15368TIP3    H267520   5.264   3.652  10.705 -0.6101 -2.5616 -0.9735
15369TIP3   OH267521   5.128   2.039   3.562  0.3580  0.1712 -0.3050
15369TIP3    H167522   5.190   2.070   3.497 -0.1388  0.7177 -0.5269
15369TIP3    H267523   5.182   2.016   3.638  0.7895  1.0759 -0.3221
15370TIP3   OH267524   3.618   0.410   4.852 -0.1130 -0.1475  0.0695
15370TIP3    H167525   3.644   0.429   4.762  0.4410 -0.3885  0.1782
15370TIP3    H267526   3.616   0.495   4.896  4.0521 -0.3711  1.0297
15371TIP3   OH267527   6.466   6.099   2.189  0.4113  0.1780 -0.1677
15371TIP3    H167528   6.388   6.154   2.185  1.0751  1.1361 -0.3480
15371TIP3    H267529   6.534   6.150   2.146  1.4380 -0.1287  1.0133
15372TIP3   OH267530   0.443   4.443   6.219 -0.4925 -0.2867 -0.0922
15372TIP3    H167531   0.418   4.356   6.186 -0.1843 -0.5588  0.3714
15372TIP3    H267532   0.534   4.453   6.193 -0.3454 -0.3652  0.3738
15373TIP3   OH267533   5.947   0.513   5.721 -0.1074 -0.6038 -0.7972
15373TIP3    H167534   5.984   0.445   5.664  0.6849  0.0840 -1.1180
15373TIP3    H267535   5.937   0.470   5.806 -2.3416 -1.9807 -1.6636
15374TIP3   OH267536   0.596   6.250  13.900  0.2981  0.4780 -0.6046
15374TIP3    H167537   0.570   6.163  13.868  1.3023 -0.4789  1.0167
15374TIP3    H267538   0.639   6.291  13.825  0.5510 -0.7771 -1.1746
15375TIP3   OH267539   2.743   2.368  11.832  0.6563  0.3358  0.2228
15375TIP3    H167540   2.724   2.280  11.866 -0.4394  1.3314  2.4791
15375TIP3    H267541   2.836   2.367  11.810  0.7314 -1.2947  0.5180
15376TIP3   OH267542   0.010   4.331  11.490  0.1590 -0.8448 -0.4374
15376TIP3    H167543  -0.013   4.325  11.398  0.7261  1.4728 -0.7835
15376TIP3    H267544  -0.063   4.378  11.531  1.7134  1.8966 -0.5710
15377TIP3   OH267545   2.498   1.432  13.153 -0.1649  0.2796  0.0991
15377TIP3    H167546   2.509   1.369  13.082 -0.2825  0.4681 -0.0874
15377TIP3    H267547   2.409   1.417  13.184 -0.5862  1.1130 -0.6876
15378TIP3   OH267548   4.300   5.299   1.105 -0.3189  0.0758 -0.1477
15378TIP3    H167549   4.357   5.237   1.150  0.1505  0.7405  0.1901
15378TIP3    H267550   4.343   5.316   1.022 -0.1734  0.3657 -0.0112
15379TIP3   OH267551   6.712   0.741  12.634 -0.5337 -0.4581  1.3856
15379TIP3    H167552   6.677   0.718  12.720 -3.8439  2.5323  1.0977
15379TIP3    H267553   6.776   0.810  12.652 -0.0761 -0.9054  1.5002
15380TIP3   OH267554   3.755   2.052   6.021  0.2533  0.0831 -0.1011
15380TIP3    H167555   3.745   2.118   5.952 -3.3744  0.4599  0.6267
15380TIP3    H267556   3.808   1.983   5.980  0.2133  1.3420 -2.4345
15381TIP3   OH267557   4.527   0.544   3.737 -0.1321 -0.2367  0.1985
15381TIP3    H167558   4.614   0.509   3.756 -0.8423 -1.7273  0.8629
15381TIP3    H267559   4.495   0.490   3.665 -1.1684 -0.8689  1.1014
15382TIP3   OH267560   4.793   6.740  14.110 -0.7144 -0.5508 -0.1826
15382TIP3    H167561   4.839   6.783  14.038  0.1195 -2.2569 -0.7227
15382TIP3    H267562   4.839   6.768  14.189 -1.6704  1.3744 -0.2539
15383TIP3   OH267563   5.791   5.607  13.763  1.1376 -0.1154 -1.2822
15383TIP3    H167564   5.844   5.562  13.829 -0.0347  0.9704  0.5075
15383TIP3    H267565   5.844   5.683  13.739  0.2327  1.3627  1.0303
15384TIP3   OH267566   6.177   6.766   0.545  0.2998  0.8611 -0.7552
15384TIP3    H167567   6.259   6.716   0.548  0.3340  0.9335 -0.3828
15384TIP3    H267568   6.113   6.708   0.587  0.8269  2.0073  1.8320
15385TIP3   OH267569   5.193   6.166  15.247  0.6883 -0.5405  0.1836
15385TIP3    H167570   5.246   6.234  15.289  1.5587 -1.7506  1.1218
15385TIP3    H267571   5.203   6.183  15.153  0.6681  0.7691  0.3907
15386TIP3   OH267572   1.006   1.348  13.750 -0.1644 -0.6414  0.1185
15386TIP3    H167573   1.053   1.430  13.768 -2.1590  0.2949  1.3185
15386TIP3    H267574   0.966   1.362  13.665 -0.5944 -0.3040  0.3708
15387TIP3   OH267575   4.780   2.080   3.297  0.1058 -0.1571  0.0501
15387TIP3    H167576   4.825   2.016   3.352 -2.3803 -0.5740  1.7527
15387TIP3    H267577   4.736   2.028   3.230  0.3058  0.0567 -0.2553
15388TIP3   OH267578   2.772   0.992   5.208  0.0632 -0.1739 -0.2275
15388TIP3    H167579   2.713   0.997   5.133 -1.6617  1.8523  1.1413
15388TIP3    H267580   2.716   1.004   5.284  2.1234  0.9900  1.2277
15389TIP3   OH267581   6.169   2.995   1.383  0.7416  0.3747 -0.2036
15389TIP3    H167582   6.091   3.012   1.436  0.0670  0.4134 -1.1798
15389TIP3    H267583   6.201   3.082   1.359  1.1912  0.3627  0.3286
15390TIP3   OH267584   3.051   4.381   5.609  0.3003 -0.0509 -0.3581
15390TIP3    H167585   3.083   4.417   5.692  1.0051  1.0537 -1.0816
15390TIP3    H267586   3.129   4.375   5.553 -0.4567  1.1615 -1.6133
15391TIP3   OH267587   3.989   1.438  16.668  0.6106 -0.1605 -0.5256
15391TIP3    H167588   4.043   1.363  16.693  1.1850  0.3804 -0.1218
15391TIP3    H267589   4.049   1.495  16.619 -0.0608 -0.4057 -1.6621
15392TIP3   OH267590   1.665   0.170   1.259  0.1458 -0.0662 -0.0703
15392TIP3    H167591   1.648   0.179   1.166  0.1951 -0.0456 -0.0775
15392TIP3    H267592   1.580   0.151   1.298 -0.3190  2.1536  0.1774
15393TIP3   OH267593   5.165   1.795  15.413 -0.5317  0.5645 -0.1617
15393TIP3    H167594   5.198   1.871  15.460 -0.6344  0.6978 -0.3069
15393TIP3    H267595   5.183   1.813  15.321  0.8752 -0.2770 -0.0831
15394TIP3   OH267596   6.283   3.244   0.041  0.2307  0.2240  0.2041
15394TIP3    H167597   6.342   3.299  -0.011  1.2726 -1.4999 -0.4812
15394TIP3    H267598   6.204   3.236  -0.013  0.6780 -0.2267 -0.3845
15395TIP3   OH267599   0.043   6.144   5.994  0.0457  0.2183 -0.5216
15395TIP3    H167600   0.004   6.229   5.974 -2.0572 -0.2319  1.3340
15395TIP3    H267601   0.117   6.164   6.051 -0.1302  0.8265 -0.5061
15396TIP3   OH267602   4.790   0.961   3.498 -0.1517  0.0197  0.6757
15396TIP3    H167603   4.856   1.026   3.472 -0.7502  0.1601 -0.5119
15396TIP3    H267604   4.785   0.970   3.594 -0.7115  2.2275  0.4940
15397TIP3   OH267605   2.594   3.207  14.994  0.1928  0.4648  0.2476
15397TIP3    H167606   2.673   3.153  14.988 -0.5847 -0.5982 -0.8504
15397TIP3    H267607   2.550   3.194  14.910 -1.0570  1.2027  0.7670
15398TIP3   OH267608   2.193   5.719   4.207 -0.2372  0.2969  0.4531
15398TIP3    H167609   2.260   5.675   4.154  2.7343  0.9577  3.2892
15398TIP3    H267610   2.163   5.652   4.269 -2.0837  0.0973 -0.5928
15399TIP3   OH267611   1.868   3.973   4.250 -0.1758 -0.1630  0.9585
15399TIP3    H167612   1.789   3.918   4.248  0.9320 -1.8286 -0.7794
15399TIP3    H267613   1.858   4.032   4.176  1.3931 -2.3518 -1.1769
15400TIP3   OH267614   5.706   3.056   0.507 -0.0306  0.1208  0.3383
15400TIP3    H167615   5.779   3.108   0.540  0.2610 -0.0826  0.0206
15400TIP3    H267616   5.747   2.989   0.451 -0.6215  1.9245 -2.4587
15401TIP3   OH267617   6.201   0.716  12.480 -0.2208  0.2958  0.0141
15401TIP3    H167618   6.109   0.704  12.506  0.1334 -0.8061  0.8247
15401TIP3    H267619   6.230   0.628  12.456  1.1834  0.2779  1.6351
15402TIP3   OH267620   2.628   4.995   4.329  0.2698  0.1372 -0.1145
15402TIP3    H167621   2.601   5.082   4.300  0.7272  0.3033 -0.0490
15402TIP3    H267622   2.647   4.947   4.249 -0.2879 -0.0022 -0.1626
15403TIP3   OH267623   3.473   4.968  16.748  0.2410  0.0324  1.4135
15403TIP3    H167624   3.454   5.053  16.707  2.2338 -0.4304 -0.6656
15403TIP3    H267625   3.526   4.990  16.825 -0.3274  0.7138  1.6251
15404TIP3   OH267626   2.089   1.443  15.460 -1.1869  0.4144  0.3484
15404TIP3    H167627   2.035   1.500  15.405  0.0103  0.4044 -0.9120
15404TIP3    H267628   2.131   1.383  15.397  1.7425  1.6268  0.9785
15405TIP3   OH267629   2.629   2.793  16.475  0.1693  0.0280 -0.7606
15405TIP3    H167630   2.637   2.854  16.402  0.8028  1.2580  0.2982
15405TIP3    H267631   2.536   2.789  16.494  0.2223  1.7326 -0.0001
15406TIP3   OH267632   2.399   3.941   4.094 -0.0999  0.4831  0.1074
15406TIP3    H167633   2.417   3.984   4.010  2.9520  0.0611  0.4518
15406TIP3    H267634   2.385   3.849   4.071 -1.7569  0.7614 -0.1295
15407TIP3   OH267635   6.261   1.257   0.918 -0.4762  0.1616 -0.4008
15407TIP3    H167636   6.190   1.199   0.891  0.0088 -0.3531 -0.5835
15407TIP3    H267637   6.261   1.327   0.853 -0.3405 -0.2321 -0.8303
15408TIP3   OH267638   2.355   2.917   5.607  0.0366 -0.4669  0.4868
15408TIP3    H167639   2.353   2.992   5.548 -0.7819  0.4524  1.6468
15408TIP3    H267640   2.275   2.869   5.587 -0.0916 -0.3161  0.6308
15409TIP3   OH267641   2.587   4.682   3.537  0.3985  0.4825 -0.4905
15409TIP3    H167642   2.596   4.767   3.494 -0.5835  0.2908 -1.1082
15409TIP3    H267643   2.633   4.621   3.479 -0.9958  0.2103 -1.3730
15410TIP3   OH267644   1.971   0.007  13.487 -0.4701  0.6634  0.3540
15410TIP3    H167645   1.968   0.103  13.485  1.2455  0.7367 -0.8711
15410TIP3    H267646   2.059  -0.013  13.519 -0.1562 -0.4771 -1.1476
15411TIP3   OH267647   1.895   4.076   2.460  0.0782 -0.0464 -0.2662
15411TIP3    H167648   1.869   4.004   2.518 -1.4699  0.4505 -0.2958
15411TIP3    H267649   1.990   4.072   2.459  0.1393 -0.4664  1.8205
15412TIP3   OH267650   3.745   3.904  11.829 -0.5033  0.0892  0.5783
15412TIP3    H167651   3.682   3.976  11.836 -0.4705  0.2033 -0.2057
15412TIP3    H267652   3.830   3.945  11.841 -0.5612 -0.0497  1.5395
15413TIP3   OH267653   4.133   6.553  14.119 -0.0753 -0.0363  0.2525
15413TIP3    H167654   4.176   6.571  14.035  0.1066  0.5054  0.4580
15413TIP3    H267655   4.202   6.562  14.184 -0.1852 -0.5986  0.4535
15414TIP3   OH267656   4.260   1.774  13.462  0.8620  0.1882 -0.5492
15414TIP3    H167657   4.176   1.733  13.446  0.1675  0.8000  1.2429
15414TIP3    H267658   4.324   1.715  13.423 -0.2965 -1.1294 -0.5141
15415TIP3   OH267659   2.425   1.128   3.941 -0.0972 -0.5625 -0.2061
15415TIP3    H167660   2.428   1.035   3.963  0.1549 -0.5812 -0.3291
15415TIP3    H267661   2.371   1.166   4.011  0.1657 -0.7296  0.0915
15416TIP3   OH267662   0.376   0.494   0.967  0.0205 -0.6976 -0.1192
15416TIP3    H167663   0.345   0.531   0.884 -1.0423 -1.1304  0.0643
15416TIP3    H267664   0.418   0.567   1.012  1.4072 -0.6505 -1.3978
15417TIP3   OH267665   5.733   3.319   0.979  0.2099 -0.5322 -0.2768
15417TIP3    H167666   5.711   3.283   0.894  1.1246 -1.1636 -0.2564
15417TIP3    H267667   5.663   3.289   1.037 -0.6480  0.2637 -0.8851
15418TIP3   OH267668   2.887   0.499   3.312  0.2165 -0.4448  0.6057
15418TIP3    H167669   2.816   0.547   3.355  1.6987  1.8967  0.6355
15418TIP3    H267670   2.858   0.408   3.313 -1.6279  0.0567  2.8744
15419TIP3   OH267671   2.856   0.531  16.003  0.0481 -0.0018  0.0881
15419TIP3    H167672   2.922   0.587  16.044  2.2102 -0.8027 -2.1128
15419TIP3    H267673   2.858   0.450  16.054  1.5873 -0.4229 -0.6077
15420TIP3   OH267674   0.185   6.142  15.768  0.0320  0.2996 -0.4609
15420TIP3    H167675   0.273   6.170  15.744 -0.2347  3.4046  1.6031
15420TIP3    H267676   0.127   6.194  15.711 -0.4967 -0.2342 -0.4172
15421TIP3   OH267677   4.833   6.183   2.199 -0.3240 -0.8317  0.0793
15421TIP3    H167678   4.816   6.241   2.125 -0.2429 -0.3694  0.4159
15421TIP3    H267679   4.926   6.160   2.191 -0.3196 -0.7954  0.0276
15422TIP3   OH267680   0.807   4.695   2.299  0.4676 -0.3789 -0.1573
15422TIP3    H167681   0.840   4.756   2.232  2.2695 -0.4400  0.6123
15422TIP3    H267682   0.792   4.613   2.250  2.8295 -0.7650 -0.3923
15423TIP3   OH267683   6.372   4.672   1.042  0.9216 -0.1211 -0.4318
15423TIP3    H167684   6.467   4.669   1.040  0.9363  0.3966 -2.3904
15423TIP3    H267685   6.350   4.710   1.127  2.4747  0.2104 -0.1618
15424TIP3   OH267686   0.453   4.362  13.718 -0.5755 -0.3661 -0.1446
15424TIP3    H167687   0.366   4.372  13.756 -0.3574 -0.3035  0.3443
15424TIP3    H267688   0.483   4.452  13.704 -0.1329 -0.3663  0.7507
15425TIP3   OH267689   1.644   1.970   5.019 -0.2092 -0.0992  0.1297
15425TIP3    H167690   1.699   1.893   5.005  1.1563  1.0611 -1.3382
15425TIP3    H267691   1.556   1.935   5.030  0.6637 -1.9894  1.7208
15426TIP3   OH267692   4.075   2.528  14.204 -0.1192 -0.3339  0.2081
15426TIP3    H167693   4.077   2.486  14.118  0.8906 -0.7362  0.4148
15426TIP3    H267694   4.007   2.595  14.196  2.0044  1.7423 -1.8864
15427TIP3   OH267695   0.258   0.332   2.571 -0.3512  0.2287  0.2161
15427TIP3    H167696   0.261   0.312   2.478  0.5206 -2.4734  0.7302
15427TIP3    H267697   0.176   0.294   2.602  0.4707 -1.0118  0.9351
15428TIP3   OH267698   4.458   0.136  11.206  0.2276 -0.4833  0.3188
15428TIP3    H167699   4.522   0.136  11.135 -0.7900 -0.8558 -0.6269
15428TIP3    H267700   4.436   0.044  11.219 -1.6767 -0.2378 -0.8408
15429TIP3   OH267701   2.208   0.184   4.325 -0.5808  0.4278 -0.5697
15429TIP3    H167702   2.237   0.265   4.285 -1.4936  1.2025  0.2951
15429TIP3    H267703   2.182   0.208   4.413 -3.6103 -0.2054 -1.1752
15430TIP3   OH267704   1.445   1.173   0.235 -0.2523  0.1952  0.0061
15430TIP3    H167705   1.539   1.163   0.249 -0.4853 -0.0184  1.6041
15430TIP3    H267706   1.409   1.085   0.245 -0.5541  0.1166 -1.4764
15431TIP3   OH267707   6.136   3.983   0.139  0.4710 -0.2799 -0.2734
15431TIP3    H167708   6.060   4.018   0.092  2.3925  1.6995 -2.1595
15431TIP3    H267709   6.132   4.024   0.225 -0.2427  0.3042 -0.5670
15432TIP3   OH267710   3.561   1.380   3.693 -0.7223 -0.3404  0.0422
15432TIP3    H167711   3.625   1.383   3.763 -1.2288  0.6903  0.4864
15432TIP3    H267712   3.576   1.296   3.650 -0.1737 -0.8321  1.1590
15433TIP3   OH267713   5.362   4.656   4.506  0.6228 -0.4471  0.7381
15433TIP3    H167714   5.327   4.651   4.417  0.7232  0.7690  0.6116
15433TIP3    H267715   5.288   4.633   4.562  0.2668 -0.1854  0.3786
15434TIP3   OH267716   4.771   4.828   0.673 -0.0378  0.1830  0.1401
15434TIP3    H167717   4.755   4.759   0.737  1.3079  1.1062  1.5433
15434TIP3    H267718   4.693   4.883   0.678 -0.4324 -0.3739  0.1698
15435TIP3   OH267719   6.284   5.746  15.087 -0.3206  0.2980 -0.2479
15435TIP3    H167720   6.221   5.729  15.017 -1.7546  1.0417  0.8082
15435TIP3    H267721   6.249   5.822  15.134  0.2730 -0.5212  1.6489
15436TIP3   OH267722   4.452   1.799   4.138 -0.2880 -0.2399 -0.4501
15436TIP3    H167723   4.485   1.886   4.116  0.8181 -0.0050  1.8960
15436TIP3    H267724   4.359   1.812   4.155 -0.1229  0.5025 -0.0937
15437TIP3   OH267725   3.135   2.193  13.254  0.0902  0.0736 -0.2658
15437TIP3    H167726   3.157   2.172  13.345 -1.0188 -0.6877 -0.1492
15437TIP3    H267727   3.211   2.242  13.221  0.8596 -0.3589  0.8124
15438TIP3   OH267728   6.761   6.002   3.970  0.4151  0.1219 -0.0093
15438TIP3    H167729   6.851   5.980   3.991  1.1768  2.7404 -0.3095
15438TIP3    H267730   6.743   5.954   3.889  1.5111 -0.4507  0.0731
15439TIP3   OH267731   3.732   3.611   5.933 -0.5810  0.4530 -0.2207
15439TIP3    H167732   3.698   3.539   5.986  0.2414  0.4041  0.2650
15439TIP3    H267733   3.746   3.573   5.846  2.9079 -0.9751  0.7764
15440TIP3   OH267734   3.432   2.988  16.726  0.4859  0.1138  0.0670
15440TIP3    H167735   3.413   2.894  16.733  0.0600  0.3109  2.2907
15440TIP3    H267736   3.348   3.027  16.700  0.2276  0.0261  0.7449
15441TIP3   OH267737   0.049   1.610  16.429 -0.0443  1.1820  0.8036
15441TIP3    H167738   0.090   1.570  16.506  0.3566  2.7434  1.4598
15441TIP3    H267739   0.013   1.693  16.462 -1.2680  1.1579 -0.3699
15442TIP3   OH267740   6.100   5.180   3.479  0.7254 -0.1625 -0.1634
15442TIP3    H167741   6.089   5.151   3.570  0.1156 -1.3879 -0.6136
15442TIP3    H267742   6.114   5.100   3.430 -0.7559  0.3243 -1.4310
15443TIP3   OH267743   0.597   1.577  12.645 -0.3762  0.6386  0.3753
15443TIP3    H167744   0.666   1.636  12.674  1.4871 -0.4006 -1.6539
15443TIP3    H267745   0.547   1.628  12.581 -0.8349  1.0426  1.0471
15444TIP3   OH267746   4.830   2.472  13.933 -0.2166 -0.3023  0.1726
15444TIP3    H167747   4.868   2.535  13.995  2.0861 -1.1250 -0.2837
15444TIP3    H267748   4.888   2.475  13.857 -1.0305 -1.7377 -0.5512
15445TIP3   OH267749   5.279   3.002  11.078  0.3508  0.4195 -0.1472
15445TIP3    H167750   5.286   3.032  10.987 -1.6929 -0.1497 -0.5294
15445TIP3    H267751   5.318   2.915  11.077  1.7373  1.0111 -0.1133
15446TIP3   OH267752   0.313   1.189   4.418 -0.0506 -0.7160 -0.0851
15446TIP3    H167753   0.224   1.152   4.416  0.0619 -0.9652 -1.7948
15446TIP3    H267754   0.324   1.228   4.332  0.7182  1.2790  0.8568
15447TIP3   OH267755   4.292   0.530   0.293 -0.5098  0.1606 -0.4153
15447TIP3    H167756   4.270   0.462   0.229  0.5337 -0.5494 -0.0370
15447TIP3    H267757   4.387   0.539   0.287 -0.6594  1.7860 -0.6436
15448TIP3   OH267758   3.767   6.399  11.159  0.2214  0.6556  0.4238
15448TIP3    H167759   3.731   6.311  11.149 -0.1546  0.8860 -0.3595
15448TIP3    H267760   3.783   6.429  11.069  0.5736  1.2951  0.6878
15449TIP3   OH267761   4.897   5.378  13.671 -0.5114 -0.3835  0.9511
15449TIP3    H167762   4.974   5.381  13.729  0.3275  0.0284 -0.1516
15449TIP3    H267763   4.933   5.391  13.584 -1.3028 -4.3120 -0.1449
15450TIP3   OH267764   5.192   0.586   3.610  0.2557 -0.0040  0.3647
15450TIP3    H167765   5.195   0.676   3.578 -0.4799 -0.3635 -0.8267
15450TIP3    H267766   5.192   0.533   3.530 -3.7181 -0.9026  0.7090
15451TIP3   OH267767   0.080   5.402   5.916 -0.6779  0.0428 -0.0912
15451TIP3    H167768   0.095   5.467   5.847  1.3648 -0.8157 -0.5628
15451TIP3    H267769   0.158   5.408   5.971 -2.8073  1.6259  3.0530
15452TIP3   OH267770   0.371   0.219  11.956  0.2669 -0.4698  0.3943
15452TIP3    H167771   0.377   0.291  11.893  1.2548 -0.4979  0.4497
15452TIP3    H267772   0.398   0.257  12.039 -2.8153  0.0741  1.2835
15453TIP3   OH267773   6.280   2.888  14.811  0.3197 -0.3024 -0.2683
15453TIP3    H167774   6.368   2.923  14.829 -0.6931  1.6812  1.1483
15453TIP3    H267775   6.276   2.808  14.864  2.2760 -2.1961 -2.7105
15454TIP3   OH267776   2.555   1.728   3.193 -0.1506 -0.0354 -0.1170
15454TIP3    H167777   2.489   1.756   3.256 -0.5555  0.4041 -0.7185
15454TIP3    H267778   2.600   1.655   3.235  0.1294  0.7597  1.0092
15455TIP3   OH267779   3.958   0.572  11.391  0.0767 -0.3247 -0.1852
15455TIP3    H167780   3.946   0.499  11.331 -0.9859 -0.4539  0.1693
15455TIP3    H267781   4.041   0.553  11.436  1.2735  0.1446 -2.0889
15456TIP3   OH267782   2.611   2.299   1.145  0.2747  0.0181  0.6706
15456TIP3    H167783   2.570   2.229   1.194  0.8562 -0.4638  0.4797
15456TIP3    H267784   2.614   2.267   1.055  0.2492  0.4250  0.5206
15457TIP3   OH267785   5.416   1.442   5.204 -0.5504 -0.1767  0.0521
15457TIP3    H167786   5.452   1.460   5.291 -2.5610 -1.1046  1.1573
15457TIP3    H267787   5.438   1.519   5.153  0.7392  0.3773  1.3543
15458TIP3   OH267788   5.171   4.545  15.620  0.4344  0.5843 -0.3189
15458TIP3    H167789   5.139   4.496  15.696  0.0968 -0.2042 -0.9521
15458TIP3    H267790   5.095   4.594  15.590 -0.0823 -0.8366 -1.4701
15459TIP3   OH267791   3.820   3.365   3.784 -0.6576  0.1211  0.1663
15459TIP3    H167792   3.787   3.422   3.715 -0.8150  1.1207  1.0366
15459TIP3    H267793   3.908   3.340   3.755 -0.5213  0.9471 -0.1575
15460TIP3   OH267794   6.174   2.925   5.267  0.1319  0.2307  0.1635
15460TIP3    H167795   6.252   2.971   5.237  0.2782  0.5466  0.9945
15460TIP3    H267796   6.151   2.866   5.195  0.8332  0.5073 -0.2936
15461TIP3   OH267797   0.937   3.630  12.050  0.2477 -0.2999 -0.1175
15461TIP3    H167798   0.954   3.636  12.144  0.3401  1.0257 -0.1978
15461TIP3    H267799   0.913   3.538  12.036 -2.1831 -0.0408  1.6114
15462TIP3   OH267800   5.668   4.931   6.544  0.4169 -0.1649  0.2374
15462TIP3    H167801   5.598   4.865   6.544  1.5382 -1.3997 -0.1145
15462TIP3    H267802   5.739   4.890   6.593  1.3157  0.5923 -0.3999
15463TIP3   OH267803   6.412   0.147  12.454 -0.4136 -0.2099  0.3363
15463TIP3    H167804   6.476   0.103  12.398 -0.3816 -0.6826  0.7380
15463TIP3    H267805   6.352   0.077  12.480 -1.2467  0.2740 -0.2446
15464TIP3   OH267806   2.750   5.885   4.355 -0.1557  0.5522  0.0126
15464TIP3    H167807   2.744   5.941   4.278  0.4023  1.2192  0.4481
15464TIP3    H267808   2.834   5.841   4.347 -0.7580 -0.5595 -0.5330
15465TIP3   OH267809   3.234   3.672  13.552  0.7020  0.1981 -0.5711
15465TIP3    H167810   3.229   3.580  13.580 -0.6041  0.7354  1.1684
15465TIP3    H267811   3.297   3.672  13.481 -0.5277 -2.3304 -1.7991
15466TIP3   OH267812   6.025   5.300   4.462 -0.3834  0.3714 -0.3145
15466TIP3    H167813   5.956   5.310   4.396 -0.4763 -1.4018 -0.5293
15466TIP3    H267814   6.101   5.271   4.411 -0.2235 -0.2113  0.2505
15467TIP3   OH267815   2.931   4.423  17.090  0.6278  0.3338  0.1433
15467TIP3    H167816   2.936   4.507  17.137 -2.5388  0.1684  1.0072
15467TIP3    H267817   2.962   4.443  17.002  0.8573  2.1954  0.5979
15468TIP3   OH267818   1.384   2.933  10.888  0.0426  0.1204 -0.1526
15468TIP3    H167819   1.465   2.884  10.882 -0.5585 -0.8330 -0.6158
15468TIP3    H267820   1.317   2.876  10.850 -0.7335  1.1544 -0.4045
15469TIP3   OH267821   5.993   4.955   5.603  0.0811  0.2158  0.0925
15469TIP3    H167822   6.023   5.009   5.529 -2.1828 -0.5345 -1.4658
15469TIP3    H267823   6.006   5.011   5.680 -0.1671  2.1648 -1.2143
15470TIP3   OH267824   4.794   5.851  13.569  0.2667  0.1920 -1.0135
15470TIP3    H167825   4.838   5.802  13.638 -0.4823 -0.7756 -1.1973
15470TIP3    H267826   4.836   5.820  13.488  1.3029  1.4891 -1.0024
15471TIP3   OH267827   3.952   3.090  16.869 -0.0996 -0.2123 -0.1726
15471TIP3    H167828   3.967   3.078  16.775  1.3513 -0.6697  0.0829
15471TIP3    H267829   4.040   3.107  16.905 -1.0264  3.6101  0.6280
15472TIP3   OH267830   3.862   5.124   0.267  0.0994  0.6254  0.6156
15472TIP3    H167831   3.875   5.162   0.354 -0.9007  1.9147  0.2489
15472TIP3    H267832   3.769   5.139   0.249  0.4156  0.8715 -0.8967
15473TIP3   OH267833   1.262   5.590  11.031  0.6003 -0.4013 -0.2390
15473TIP3    H167834   1.283   5.499  11.052  4.3819  0.5699  0.9324
15473TIP3    H267835   1.195   5.615  11.095  1.9072 -1.4923  1.6625
15474TIP3   OH267836   1.117   2.978   1.315 -0.6472  0.2527  0.2960
15474TIP3    H167837   1.057   2.938   1.252  0.5087 -0.6433 -0.2948
15474TIP3    H267838   1.124   2.913   1.386  1.3408 -0.7504 -0.7278
15475TIP3   OH267839   6.253   3.933  10.997  0.2773 -0.2724  0.4098
15475TIP3    H167840   6.343   3.924  10.964  0.5852 -0.9285  1.4024
15475TIP3    H267841   6.211   3.850  10.973  0.5696 -0.8503  1.8450
15476TIP3   OH267842   5.626   1.867   4.524 -0.1446  0.2338 -0.1534
15476TIP3    H167843   5.558   1.877   4.458 -0.1549 -0.8695 -0.3283
15476TIP3    H267844   5.636   1.955   4.561 -1.5433  0.4574 -0.2306
15477TIP3   OH267845   5.048   3.786   3.844  0.8925 -0.5854  0.0030
15477TIP3    H167846   4.992   3.843   3.897  0.5163  0.7105 -1.6784
15477TIP3    H267847   4.987   3.728   3.799  0.7828  0.8520 -1.8603
15478TIP3   OH267848   0.021   3.998  11.920  0.0658  0.0260  0.0177
15478TIP3    H167849  -0.066   3.986  11.882  0.6374  0.2877 -1.4807
15478TIP3    H267850   0.077   3.941  11.868  1.3371  2.3601 -1.3544
15479TIP3   OH267851   4.625   4.804   1.016 -0.0216  0.2251 -0.1747
15479TIP3    H167852   4.683   4.879   1.029  1.1488 -0.6875  0.0418
15479TIP3    H267853   4.538   4.842   1.009  0.0436  1.4176  3.4578
15480TIP3   OH267854   4.264   3.541  11.771  0.1323 -0.1329  0.0577
15480TIP3    H167855   4.282   3.537  11.677  1.9283  1.8377  0.2546
15480TIP3    H267856   4.311   3.467  11.808  2.0960  0.8985 -0.2750
15481TIP3   OH267857   2.128   1.933   2.659  0.3803  0.8830  0.0876
15481TIP3    H167858   2.048   1.890   2.692  1.3075  0.3374  1.7716
15481TIP3    H267859   2.113   1.944   2.565 -0.1895 -2.6444 -0.3697
15482TIP3   OH267860   0.422   5.353  13.991  0.3486  0.1458 -0.2629
15482TIP3    H167861   0.392   5.296  14.062  1.2946 -0.9177 -0.6907
15482TIP3    H267862   0.515   5.335  13.984  0.0216 -1.0494 -2.8678
15483TIP3   OH267863   2.605   4.525  14.215  0.5379 -0.0034  0.3512
15483TIP3    H167864   2.546   4.466  14.169  0.3835 -0.4758  1.1483
15483TIP3    H267865   2.657   4.565  14.145 -0.1119 -0.2434 -0.2836
15484TIP3   OH267866   1.349   0.757  16.375 -0.0710  0.1349 -0.1462
15484TIP3    H167867   1.351   0.709  16.458  0.8863  0.3652 -0.0209
15484TIP3    H267868   1.425   0.815  16.379  1.4014 -1.5236 -2.1805
15485TIP3   OH267869   2.788   2.555  16.667 -0.1886  0.2666  0.3053
15485TIP3    H167870   2.706   2.582  16.624 -0.2512  3.0878  1.9086
15485TIP3    H267871   2.773   2.463  16.691 -2.3079  0.2696 -0.7317
15486TIP3   OH267872   4.475   2.540  12.100 -0.0901  0.3095 -0.0300
15486TIP3    H167873   4.435   2.459  12.131  1.3331  0.0210  1.1812
15486TIP3    H267874   4.535   2.513  12.030 -0.3509  0.4611 -0.3184
15487TIP3   OH267875   5.374   5.118   3.831 -0.0384 -0.1238  0.7569
15487TIP3    H167876   5.311   5.184   3.802  1.9369  1.6304  0.1397
15487TIP3    H267877   5.357   5.042   3.775  0.4925  1.4680 -1.7269
15488TIP3   OH267878   2.263   1.447   5.477  0.0458 -0.1115  0.1082
15488TIP3    H167879   2.265   1.485   5.389  1.0137 -0.1467  0.0995
15488TIP3    H267880   2.244   1.355   5.463  0.0379 -0.0854 -0.0536
15489TIP3   OH267881   5.097   4.234   1.450 -0.3129  0.6693  0.1418
15489TIP3    H167882   5.147   4.308   1.418  0.1509  1.1207  1.8199
15489TIP3    H267883   5.162   4.168   1.473 -0.5151  0.8984  1.4462
15490TIP3   OH267884   5.406   3.234   0.277  0.2968  0.0012  0.2893
15490TIP3    H167885   5.336   3.300   0.282  0.3922  0.2623 -1.1998
15490TIP3    H267886   5.486   3.284   0.291  0.3590  0.2092 -0.7052
15491TIP3   OH267887   0.073   0.282   1.568  0.3911  0.5133  0.0979
15491TIP3    H167888   0.048   0.204   1.619  1.8543 -0.4958 -0.6482
15491TIP3    H267889   0.129   0.248   1.499  0.5655  2.1876 -0.6307
15492TIP3   OH267890   3.348   6.721  14.669  0.6608 -0.5430 -0.1899
15492TIP3    H167891   3.333   6.814  14.690  0.9865 -0.3624 -0.7336
15492TIP3    H267892   3.375   6.722  14.577  0.2442 -1.2222 -0.3186
15493TIP3   OH267893   1.870   6.288   1.472 -0.5637  0.3400  0.3641
15493TIP3    H167894   1.956   6.305   1.510 -0.2670 -0.8747  0.2645
15493TIP3    H267895   1.883   6.292   1.378 -1.1020  2.3833  0.3308
15494TIP3   OH267896   0.578   3.074  12.034 -0.0866 -0.8216 -0.3356
15494TIP3    H167897   0.503   3.130  12.019  0.1367 -0.8310 -1.6183
15494TIP3    H267898   0.622   3.069  11.948  3.1880  1.7704  0.9461
15495TIP3   OH267899   2.205   6.373  10.830  0.1355 -0.3066 -0.1624
15495TIP3    H167900   2.271   6.320  10.875 -0.8820 -1.9341 -0.4796
15495TIP3    H267901   2.130   6.373  10.890 -0.9203 -1.7572 -1.3919
15496TIP3   OH267902   3.153   5.306  14.702 -0.1615  0.0947  0.0547
15496TIP3    H167903   3.105   5.264  14.630 -0.8684  0.7983  0.1057
15496TIP3    H267904   3.089   5.313  14.773 -0.0052  1.0962  0.1036
15497TIP3   OH267905   1.409   6.281  11.911 -0.2450 -0.2669  0.7539
15497TIP3    H167906   1.351   6.270  11.836  1.2228  1.6132 -0.7391
15497TIP3    H267907   1.426   6.375  11.916  2.7773 -0.7177  1.0057
15498TIP3   OH267908   0.909   0.959  12.450 -0.1182  1.0290 -0.1929
15498TIP3    H167909   0.911   0.865  12.430  2.0788  1.3565 -1.9584
15498TIP3    H267910   0.967   0.969  12.525  0.0128  1.0335 -0.2953
15499TIP3   OH267911   5.975   4.088  11.905  0.5828  0.5072  0.2683
15499TIP3    H167912   6.048   4.138  11.868  0.0918  2.0978  1.3481
15499TIP3    H267913   5.917   4.155  11.942 -1.9789 -0.6090 -1.4728
15500TIP3   OH267914   0.567   6.125  14.706 -0.0640 -0.2822 -0.1231
15500TIP3    H167915   0.620   6.078  14.771  0.1414  0.1911  0.0567
15500TIP3    H267916   0.516   6.057  14.662 -0.9070 -0.5082  1.1691
15501TIP3   OH267917   3.246   1.816   5.692 -0.5657  0.2381 -0.0064
15501TIP3    H167918   3.230   1.722   5.685 -1.0417  0.3142  0.0322
15501TIP3    H267919   3.340   1.825   5.677 -0.9647  0.0906 -3.1419
15502TIP3   OH267920   1.020   0.227  13.079  0.2607  0.0895 -0.1980
15502TIP3    H167921   1.068   0.285  13.020 -1.0998  3.1262  1.4574
15502TIP3    H267922   1.081   0.156  13.097  2.3654  1.3792 -1.7345
15503TIP3   OH267923   0.293   6.312   4.155  0.2555  0.5194  0.1633
15503TIP3    H167924   0.200   6.298   4.139  0.2209  1.5985 -0.7125
15503TIP3    H267925   0.307   6.405   4.136  1.9816 -0.1251 -2.2438
15504TIP3   OH267926   0.079   5.364   4.641 -0.7418 -0.3520  0.0410
15504TIP3    H167927   0.003   5.380   4.697 -1.6687  0.3078 -1.3423
15504TIP3    H267928   0.119   5.284   4.676 -2.1980 -0.8311  0.6646
15505TIP3   OH267929   1.592   2.468  12.625 -0.0249  0.2685 -0.1689
15505TIP3    H167930   1.596   2.373  12.640  0.8961  0.6136  2.3198
15505TIP3    H267931   1.526   2.479  12.557  0.1014 -2.1807 -0.7840
15506TIP3   OH267932   0.827   6.244  14.730 -0.3060 -0.0992  0.0387
15506TIP3    H167933   0.742   6.199  14.724 -0.6665  0.6851 -0.9574
15506TIP3    H267934   0.825   6.286  14.816 -0.3864 -1.1073  0.5546
15507TIP3   OH267935   4.204   4.978   3.600 -0.3201  0.1245 -0.1208
15507TIP3    H167936   4.237   4.951   3.686 -1.9893 -1.7146  0.0136
15507TIP3    H267937   4.190   5.072   3.609  1.6458  0.3708  0.8562
15508TIP3   OH267938   3.552   5.294   5.287  0.4551 -0.2197 -0.4087
15508TIP3    H167939   3.479   5.341   5.247  0.0377 -0.1670  0.3814
15508TIP3    H267940   3.577   5.228   5.223 -0.6059 -0.5486 -0.5013
15509TIP3   OH267941   3.107   0.546   1.191  0.4369  0.7166 -0.1473
15509TIP3    H167942   3.142   0.542   1.102  1.5423  2.9677  0.1371
15509TIP3    H267943   3.172   0.501   1.244  0.2749  0.2818 -0.3047
15510TIP3   OH267944   3.344   2.072   3.426  0.3499 -0.2712 -0.0885
15510TIP3    H167945   3.275   2.010   3.448  0.6443  0.8037  4.8588
15510TIP3    H267946   3.424   2.019   3.429  0.2195 -0.5089 -0.6251
15511TIP3   OH267947   2.147   1.004  15.261 -0.1533 -0.2594  0.6504
15511TIP3    H167948   2.163   1.098  15.252  1.0600 -0.5591 -0.6836
15511TIP3    H267949   2.133   0.974  15.171 -1.2615 -1.2418  1.1321
15512TIP3   OH267950   4.834   3.276   5.685 -0.0817  0.0558 -0.5229
15512TIP3    H167951   4.888   3.340   5.732 -0.3068  0.5385 -0.9051
15512TIP3    H267952   4.754   3.268   5.737  1.1019 -2.1271  1.1049
15513TIP3   OH267953   1.656   0.515   4.510 -0.7285 -0.3299  0.0296
15513TIP3    H167954   1.568   0.479   4.519 -0.7989 -0.3001 -0.5304
15513TIP3    H267955   1.697   0.501   4.596 -0.8036 -1.5924 -0.1280
15514TIP3   OH267956   1.132   4.992   1.384  0.6839 -0.2825 -0.1705
15514TIP3    H167957   1.096   4.910   1.349 -0.5595  0.7338 -1.4436
15514TIP3    H267958   1.155   5.043   1.306 -0.3747  1.3210  0.5006
15515TIP3   OH267959   1.003   6.001  11.783 -0.6466  0.1240 -0.3054
15515TIP3    H167960   1.032   6.067  11.720  2.3410 -0.6222  0.1644
15515TIP3    H267961   1.083   5.957  11.810 -2.3878 -2.8734  0.3690
15516TIP3   OH267962   4.885   5.421   3.136  0.2517  0.6502 -0.2565
15516TIP3    H167963   4.888   5.516   3.140 -0.2553  0.6773 -0.5527
15516TIP3    H267964   4.973   5.393   3.164 -0.0235  1.1567  1.1696
15517TIP3   OH267965   3.520   5.400  16.892 -0.1352 -0.2793  0.5758
15517TIP3    H167966   3.603   5.433  16.856 -0.6136  0.1125 -0.1969
15517TIP3    H267967   3.542   5.372  16.981  0.6820  0.4506  0.6185
15518TIP3   OH267968   4.455   5.601  15.899  0.2834  0.7543  0.2178
15518TIP3    H167969   4.524   5.667  15.891 -1.1030  2.4489  1.3904
15518TIP3    H267970   4.456   5.555  15.815  2.6431  0.8675  0.1104
15519TIP3   OH267971   2.825   4.193   0.002 -0.2471  0.1702 -0.1689
15519TIP3    H167972   2.752   4.181  -0.060 -0.8250  0.4365  0.4463
15519TIP3    H267973   2.862   4.278  -0.021 -0.7923  0.5065  0.1807
15520TIP3   OH267974   5.517   6.560  11.368 -0.0064 -0.7135 -0.9875
15520TIP3    H167975   5.585   6.617  11.333 -0.3818  0.0983 -0.4312
15520TIP3    H267976   5.468   6.531  11.292 -0.4975  0.6061 -1.1955
15521TIP3   OH267977   3.479   4.907   0.439 -0.3837 -0.0421 -0.0681
15521TIP3    H167978   3.428   4.843   0.488 -1.1790  0.5651 -0.0859
15521TIP3    H267979   3.546   4.937   0.502 -1.3463  0.6699  0.6464
15522TIP3   OH267980   0.165   0.015   6.011  0.9906 -0.4133 -0.6019
15522TIP3    H167981   0.254  -0.007   6.038  0.9046 -1.6802 -1.2709
15522TIP3    H267982   0.113  -0.061   6.037  0.2008  0.0783 -0.7108
15523TIP3   OH267983   6.445   3.886   3.883  0.1286 -0.0703 -0.3062
15523TIP3    H167984   6.526   3.938   3.879 -0.5670  1.1240  0.5402
15523TIP3    H267985   6.378   3.949   3.909 -0.6664 -1.5091  1.2627
15524TIP3   OH267986   3.952   4.819   5.975 -0.3218  0.4617 -0.0034
15524TIP3    H167987   3.930   4.897   5.925  1.0122  0.9543  0.1221
15524TIP3    H267988   3.925   4.745   5.920 -3.9524  0.9228  0.9318
15525TIP3   OH267989   1.603   2.409   1.666 -0.0483 -0.8663 -0.5352
15525TIP3    H167990   1.635   2.421   1.576 -0.5909  1.7042 -0.4751
15525TIP3    H267991   1.568   2.320   1.667  0.6443 -1.2320 -2.6621
15526TIP3   OH267992   0.936   4.497  13.116  0.4752  0.7441  0.1835
15526TIP3    H167993   0.977   4.578  13.085 -0.7888  0.7471 -1.6397
15526TIP3    H267994   0.980   4.427  13.067  0.2414  0.5075  0.3067
15527TIP3   OH267995   4.739   1.638   3.518  0.3665 -0.2620  0.3846
15527TIP3    H167996   4.778   1.720   3.487 -0.2484  0.1084  0.5697
15527TIP3    H267997   4.772   1.571   3.459 -0.4948  0.3663 -0.8560
15528TIP3   OH267998   4.216   5.946   0.633  0.7412  0.0671  0.3935
15528TIP3    H167999   4.237   5.919   0.544  0.1709  0.5816  0.1021
15528TIP3    H268000   4.172   6.030   0.624  1.6011  0.6353  1.2335
15529TIP3   OH268001   5.436   6.580  12.628  0.4281  0.3636  0.1456
15529TIP3    H168002   5.395   6.658  12.591  2.7324  0.5323 -2.4211
15529TIP3    H268003   5.414   6.510  12.566  0.8235 -0.3389  0.7835
15530TIP3   OH268004   0.488   1.106   2.642 -0.0829 -0.2571 -0.0480
15530TIP3    H168005   0.424   1.046   2.680  0.0149 -0.6676 -0.5201
15530TIP3    H268006   0.458   1.121   2.552 -0.5848  1.1077  0.3265
15531TIP3   OH268007   4.905   1.891   5.558 -0.2167 -0.1964  0.2548
15531TIP3    H168008   4.814   1.891   5.527 -0.5181  0.3620  1.1307
15531TIP3    H268009   4.932   1.982   5.554  0.2516 -0.3321  0.2033
15532TIP3   OH268010   1.166   4.337   3.650 -0.7904  0.3222 -0.1336
15532TIP3    H168011   1.109   4.404   3.688  0.5326  0.0539  2.5683
15532TIP3    H268012   1.240   4.386   3.614 -1.4400  0.4875 -1.3025
15533TIP3   OH268013   3.922   5.007   3.996  0.3157  0.8313 -0.1609
15533TIP3    H168014   3.895   5.009   3.904  0.5804  0.1222 -0.2620
15533TIP3    H268015   3.851   4.961   4.040  1.1947 -0.8366 -0.3899
15534TIP3   OH268016   3.917   4.165   0.193  0.2657  0.2307  0.0735
15534TIP3    H168017   3.998   4.114   0.193  1.8574  2.5753  1.3018
15534TIP3    H268018   3.922   4.216   0.112 -1.4674 -1.6478 -1.3082
15535TIP3   OH268019   5.631   1.196  11.834  0.0137 -0.2664  0.4721
15535TIP3    H168020   5.652   1.103  11.831 -0.1052 -0.3903  2.2737
15535TIP3    H268021   5.650   1.222  11.924 -1.6355  1.0387  0.4887
15536TIP3   OH268022   1.998   4.293   4.421  0.6143 -0.0243  0.6481
15536TIP3    H168023   2.052   4.362   4.458  0.5384 -0.5122  1.7119
15536TIP3    H268024   2.051   4.256   4.351  1.4955 -0.2110  1.3924
15537TIP3   OH268025   6.197   6.523   4.322  0.4536  0.2184  0.1280
15537TIP3    H168026   6.246   6.525   4.240 -0.3882 -0.6263 -0.4077
15537TIP3    H268027   6.107   6.545   4.297  0.0836 -0.5566  0.7370
15538TIP3   OH268028   5.356   5.853   5.973  0.2583 -0.3064  0.6491
15538TIP3    H168029   5.324   5.829   5.886  0.2574  1.4077  0.1354
15538TIP3    H268030   5.435   5.904   5.956  0.5196 -0.3467  1.6954
15539TIP3   OH268031   4.313   3.134  14.629  0.0892  0.1769  0.7557
15539TIP3    H168032   4.370   3.126  14.552 -0.3165 -0.1267  0.4823
15539TIP3    H268033   4.289   3.226  14.632 -3.0132 -0.3736 -1.7927
15540TIP3   OH268034   0.940   2.513   1.829  0.1504  0.3600 -0.1010
15540TIP3    H168035   0.906   2.578   1.891 -0.3921 -0.0770  0.0644
15540TIP3    H268036   0.903   2.539   1.745  1.0931  1.1053 -0.3023
15541TIP3   OH268037   2.729   5.300   2.394 -0.3095  0.3234 -0.9703
15541TIP3    H168038   2.737   5.209   2.367  1.6789  0.5189 -1.1391
15541TIP3    H268039   2.674   5.341   2.327 -2.3884 -0.9937 -0.1728
15542TIP3   OH268040   6.736   1.977  15.547 -0.1677  0.0491  0.1541
15542TIP3    H168041   6.807   1.932  15.592  1.3559  1.8308 -0.3415
15542TIP3    H268042   6.743   1.948  15.456  0.0987  0.3943  0.0595
15543TIP3   OH268043   0.548   3.571   0.571 -0.3411  1.0037  0.2499
15543TIP3    H168044   0.519   3.515   0.499 -0.4181 -0.2311  1.2185
15543TIP3    H268045   0.560   3.657   0.530 -0.1670  0.2913 -1.2820
15544TIP3   OH268046   4.914   0.563   0.485 -0.1592  0.2615  0.1353
15544TIP3    H168047   4.879   0.565   0.574 -0.4767  1.9737  0.0238
15544TIP3    H268048   4.917   0.656   0.459 -2.1017 -0.2688 -2.4120
15545TIP3   OH268049   5.419   4.176  16.938  0.1382  0.2646  0.0328
15545TIP3    H168050   5.457   4.232  16.870  0.0994 -0.4016 -0.5494
15545TIP3    H268051   5.394   4.237  17.008  0.6480  0.9033 -0.3306
15546TIP3   OH268052   4.616   2.336  11.639 -0.1249  0.0471  0.2733
15546TIP3    H168053   4.625   2.414  11.692 -0.2323  0.4116 -0.2339
15546TIP3    H268054   4.527   2.340  11.605 -0.7654 -1.2325  1.6827
15547TIP3   OH268055   5.243   0.638   3.872 -0.1151 -0.6741  0.3633
15547TIP3    H168056   5.181   0.593   3.930  0.6795 -2.0697  0.1816
15547TIP3    H268057   5.245   0.584   3.793  0.7784 -0.2415  0.0832
15548TIP3   OH268058   5.145   1.688  10.879 -0.2083 -0.5114  0.4012
15548TIP3    H168059   5.225   1.716  10.835 -0.5686 -0.1331 -0.0183
15548TIP3    H268060   5.081   1.757  10.861 -0.2915 -0.2114  1.7264
15549TIP3   OH268061   5.986   3.421  16.698 -0.0588  0.3754 -0.0897
15549TIP3    H168062   5.968   3.452  16.609  1.1243  0.8286 -0.1768
15549TIP3    H268063   5.993   3.326  16.689 -0.5328  0.3642 -0.3719
15550TIP3   OH268064   6.769   1.419   4.033  0.0246  0.1238  0.0220
15550TIP3    H168065   6.801   1.411   3.943  1.0956 -1.3305  0.4983
15550TIP3    H268066   6.690   1.366   4.035 -0.9238  1.4412 -0.4235
15551TIP3   OH268067   0.998   2.071   4.195  0.0471  0.1289 -0.3640
15551TIP3    H168068   0.974   2.008   4.263 -0.8216 -0.3458 -1.1002
15551TIP3    H268069   0.951   2.042   4.117 -0.7265  1.9152 -0.6136
15552TIP3   OH268070   3.499   3.476   0.929  0.3514 -0.6408  0.0432
15552TIP3    H168071   3.440   3.549   0.946 -0.0382 -1.1108  0.7541
15552TIP3    H268072   3.447   3.414   0.879  1.3963  0.5938 -2.7626
15553TIP3   OH268073   0.165   1.018   5.170  0.3397 -0.1516 -0.1626
15553TIP3    H168074   0.240   0.995   5.225  0.8944 -0.8547 -1.1677
15553TIP3    H268075   0.169   0.955   5.097 -0.7832  0.2927 -0.6273
15554TIP3   OH268076   1.198   1.241   1.018 -0.0613  0.0284  0.5758
15554TIP3    H168077   1.148   1.316   1.050  0.1854  0.2661  0.4073
15554TIP3    H268078   1.154   1.165   1.057  0.3121  0.3154  1.5791
15555TIP3   OH268079   0.516   1.610   1.844  0.2510 -0.0656 -0.2967
15555TIP3    H168080   0.601   1.654   1.847  0.2114 -0.0120  0.0788
15555TIP3    H268081   0.535   1.522   1.811  0.2986  0.2984 -1.2731
15556TIP3   OH268082   5.860   3.717  13.943  0.4027  0.0540  0.3224
15556TIP3    H168083   5.915   3.770  13.885 -0.0548 -0.1823 -0.3386
15556TIP3    H268084   5.835   3.777  14.014  1.1232  0.2921  0.3766
15557TIP3   OH268085   6.115   5.385  16.157 -0.4711 -0.2302 -0.0328
15557TIP3    H168086   6.033   5.389  16.109 -1.2907  0.2773  1.3479
15557TIP3    H268087   6.098   5.322  16.228 -0.0871  0.7790  0.9886
15558TIP3   OH268088   6.677   6.068  14.112  0.4346  0.0188  0.6398
15558TIP3    H168089   6.593   6.048  14.070 -0.2981  1.1860  1.4888
15558TIP3    H268090   6.700   6.156  14.081 -0.0129  0.8202  2.4266
15559TIP3   OH268091   1.255   1.685  16.047  0.0487 -0.3899 -0.3775
15559TIP3    H168092   1.331   1.709  16.101  0.3619 -0.3458 -0.8296
15559TIP3    H268093   1.181   1.688  16.107  0.8051 -3.6983  0.9554
15560TIP3   OH268094   4.079   2.661   1.790 -0.7204 -0.3230 -0.2146
15560TIP3    H168095   4.126   2.702   1.718 -1.4707  1.3970  0.2296
15560TIP3    H268096   4.008   2.612   1.748 -0.3013 -0.5166 -0.7044
15561TIP3   OH268097   1.764   2.780  16.961 -0.2679 -0.0867  0.2647
15561TIP3    H168098   1.740   2.825  16.880 -2.2534 -0.3393  0.6810
15561TIP3    H268099   1.705   2.815  17.027  0.0650 -1.2371  1.2028
15562TIP3   OH268100   3.225   0.280  14.250 -0.3211  0.3758  0.4818
15562TIP3    H168101   3.281   0.349  14.215  0.6202  1.0774  3.1054
15562TIP3    H268102   3.138   0.320  14.255 -0.6495  0.0217 -1.5368
15563TIP3   OH268103   1.091   2.259   3.637  0.0278 -0.6066 -0.0963
15563TIP3    H168104   1.041   2.338   3.658  0.8180  0.7249 -2.7833
15563TIP3    H268105   1.179   2.276   3.671  0.4281  0.1088 -1.4163
15564TIP3   OH268106   0.021   5.349  10.768  0.2734  0.1896  0.2409
15564TIP3    H168107   0.090   5.295  10.729  0.5309  1.2735 -0.8732
15564TIP3    H268108   0.067   5.427  10.799 -0.5490  1.4513 -1.5312
15565TIP3   OH268109   2.918   4.337  12.451  0.4460  0.3964  0.2939
15565TIP3    H168110   2.892   4.252  12.486  0.5244  0.3435  0.2229
15565TIP3    H268111   3.004   4.322  12.411 -1.3052 -0.5117 -3.5492
15566TIP3   OH268112   5.132   0.728   2.433  0.1471 -0.2717  0.5218
15566TIP3    H168113   5.115   0.645   2.387  1.9025 -0.6842  0.5751
15566TIP3    H268114   5.159   0.787   2.363 -2.3650  0.7171  0.2693
15567TIP3   OH268115   4.285   3.359  16.100  0.0352 -0.5905 -0.2724
15567TIP3    H168116   4.274   3.328  16.010  0.7792  0.0693 -0.6061
15567TIP3    H268117   4.342   3.294  16.141  0.2724 -0.5162 -0.4849
15568TIP3   OH268118   5.036   1.746   0.561  0.2464 -0.4295  0.3156
15568TIP3    H168119   5.047   1.708   0.474 -0.8601 -0.1588  0.0387
15568TIP3    H268120   4.957   1.800   0.554  1.1294  1.0076  1.0215
15569TIP3   OH268121   1.696   5.357  11.764 -0.3810  0.4715  0.1087
15569TIP3    H168122   1.616   5.308  11.782  0.6863 -0.8556  1.4930
15569TIP3    H268123   1.681   5.443  11.803 -1.0828  0.1983  0.4534
15570TIP3   OH268124   2.211   6.192  15.980  0.5247  0.8428 -0.5030
15570TIP3    H168125   2.194   6.195  16.075  1.0313  0.7828 -0.4074
15570TIP3    H268126   2.201   6.100  15.957  4.0178  0.1367  0.2052
15571TIP3   OH268127   2.588   4.314  11.217 -0.1717  0.8029 -0.2061
15571TIP3    H168128   2.665   4.342  11.167 -1.1200  1.0894 -1.5604
15571TIP3    H268129   2.517   4.368  11.183 -1.1227  0.0513  0.5314
15572TIP3   OH268130   0.571   6.093  17.242 -0.3186  0.1633  0.0823
15572TIP3    H168131   0.552   6.013  17.193 -3.0748 -0.2823  1.6745
15572TIP3    H268132   0.655   6.076  17.285  0.5041 -0.7228 -1.7605
15573TIP3   OH268133   3.442   3.825   6.301 -0.4080  0.8732  0.2827
15573TIP3    H168134   3.489   3.873   6.369  0.2438  0.9615 -0.2178
15573TIP3    H268135   3.494   3.839   6.222 -0.0595 -0.8560  0.1682
15574TIP3   OH268136   5.551   1.493   2.635 -0.5379 -0.8375 -0.1663
15574TIP3    H168137   5.586   1.437   2.566 -0.7500 -2.6383  1.1190
15574TIP3    H268138   5.517   1.569   2.588  4.0933  0.6818 -1.6065
15575TIP3   OH268139   1.753   2.275  12.192 -0.0045  0.2571 -0.3906
15575TIP3    H168140   1.748   2.313  12.104 -1.9106 -1.8421 -1.2742
15575TIP3    H268141   1.786   2.187  12.178  1.5115  0.5055  1.2721
15576TIP3   OH268142   3.640   4.641  13.480  0.1616 -0.2291 -0.2932
15576TIP3    H168143   3.602   4.563  13.521  1.1655 -0.8013 -0.4341
15576TIP3    H268144   3.693   4.681  13.549 -1.0339  0.8508  0.0562
15577TIP3   OH268145   2.616   3.883  14.346  0.1062 -0.2424  0.0509
15577TIP3    H168146   2.594   3.973  14.323  1.5210 -0.1406 -1.0073
15577TIP3    H268147   2.650   3.845  14.265 -1.6195 -2.1408  0.1201
15578TIP3   OH268148   5.701   0.607  17.203  0.2458  0.3056  0.7609
15578TIP3    H168149   5.776   0.664  17.190  0.2604 -0.0762 -1.0812
15578TIP3    H268150   5.738   0.518  17.207 -0.1222  0.0395 -0.9473
15579TIP3   OH268151   3.685   1.570   1.283  0.3893 -0.1327 -0.4482
15579TIP3    H168152   3.664   1.578   1.190 -0.2541  1.4914 -0.1858
15579TIP3    H268153   3.602   1.549   1.325  0.5179 -0.0052 -0.1255
15580TIP3   OH268154   6.405   2.739  16.118  0.0363 -0.1273  0.1030
15580TIP3    H168155   6.339   2.706  16.179 -0.9269  1.8361  0.2108
15580TIP3    H268156   6.378   2.706  16.032 -0.5844 -0.0738  0.2775
15581TIP3   OH268157   1.180   3.439  16.463  0.6587  0.6780 -0.2625
15581TIP3    H168158   1.228   3.384  16.401  0.1524 -0.5011  0.3516
15581TIP3    H268159   1.237   3.442  16.541  0.2704  0.2116  0.0502
15582TIP3   OH268160   1.144   0.318  14.314  0.2625 -0.0940  0.5370
15582TIP3    H168161   1.163   0.410  14.334  0.7360  0.0029 -0.3229
15582TIP3    H268162   1.227   0.273  14.324  0.6413  0.0421 -1.6024
15583TIP3   OH268163   3.142   4.155  15.077 -0.2544  0.2498 -0.5540
15583TIP3    H168164   3.216   4.130  15.131 -1.4514  0.0467  1.0703
15583TIP3    H268165   3.125   4.079  15.022 -0.5610 -0.5101  0.5745
15584TIP3   OH268166   4.432   6.769  11.960 -0.2519 -0.2553  0.0795
15584TIP3    H168167   4.463   6.827  12.029 -0.3818 -1.4841  1.2170
15584TIP3    H268168   4.502   6.705  11.948  0.0959  0.3689 -1.4925
15585TIP3   OH268169   0.384   4.149   4.641  0.0777  0.3192  0.2520
15585TIP3    H168170   0.297   4.158   4.680 -0.1921  0.8550 -0.4573
15585TIP3    H268171   0.374   4.081   4.575  0.8070 -1.4178  1.8399
15586TIP3   OH268172   0.468   0.513   4.265  0.8907 -0.2479  0.2350
15586TIP3    H168173   0.467   0.555   4.350  0.3184 -1.1304  0.6804
15586TIP3    H268174   0.473   0.585   4.202  0.1656  0.4654  0.9793
15587TIP3   OH268175   6.648   4.638  12.835  0.2229 -0.2634 -0.1884
15587TIP3    H168176   6.575   4.672  12.784  1.0085  0.2872 -0.9721
15587TIP3    H268177   6.723   4.644  12.776  1.3524  1.2796  1.3129
15588TIP3   OH268178   0.401   0.504  14.877 -0.3662  0.3056  0.2296
15588TIP3    H168179   0.429   0.575  14.936 -1.1153 -0.2480  1.2919
15588TIP3    H268180   0.322   0.469  14.919 -0.7779 -0.2663 -1.0022
15589TIP3   OH268181   0.621   2.849  15.399  0.0914 -0.3909 -0.0590
15589TIP3    H168182   0.556   2.826  15.465 -0.6131 -1.2498 -1.0322
15589TIP3    H268183   0.643   2.940  15.418  0.4643 -0.8351  1.8064
15590TIP3   OH268184   1.347   5.542   0.608  0.2665  0.1256 -0.1573
15590TIP3    H168185   1.393   5.517   0.688 -0.3449  1.4930  0.6594
15590TIP3    H268186   1.260   5.568   0.638  0.9014  3.4106 -0.8267
15591TIP3   OH268187   5.259   4.737   5.829  0.2417 -0.5395  0.2833
15591TIP3    H168188   5.309   4.663   5.863 -0.6336 -0.6383  1.4264
15591TIP3    H268189   5.244   4.716   5.737  1.5398 -0.9120  0.1350
15592TIP3   OH268190   6.437   1.223   2.607  0.9806  0.6508  0.4478
15592TIP3    H168191   6.423   1.135   2.571  2.5642  0.9064 -0.9334
15592TIP3    H268192   6.472   1.207   2.695  0.6177 -0.0827  0.4662
15593TIP3   OH268193   0.726   1.352  13.974  0.0450 -0.0889 -0.2960
15593TIP3    H168194   0.740   1.445  13.953  1.3748 -0.3604 -0.7346
15593TIP3    H268195   0.641   1.332  13.937 -0.8290  1.2487  0.8636
15594TIP3   OH268196   2.788   6.062  10.631  0.5425 -0.7945  0.1758
15594TIP3    H168197   2.847   6.012  10.687 -0.4281 -0.5445  1.4755
15594TIP3    H268198   2.746   5.997  10.576  2.2816 -0.9320 -1.0456
15595TIP3   OH268199   1.129   5.707  15.052  0.2721 -0.6004 -0.4269
15595TIP3    H168200   1.197   5.693  14.986  1.4575 -1.9020  0.9791
15595TIP3    H268201   1.177   5.713  15.135 -1.0565  2.1982  0.2497
15596TIP3   OH268202   0.761   1.039   0.008  0.7582  0.0910  0.1577
15596TIP3    H168203   0.716   1.053  -0.076  1.2146 -1.3682 -0.3658
15596TIP3    H268204   0.715   0.965   0.047  1.1210  0.1954  0.7861
15597TIP3   OH268205   4.126   6.540   3.985 -0.0601 -0.1629 -0.5947
15597TIP3    H168206   4.121   6.631   3.956  2.0989  0.0311 -0.5549
15597TIP3    H268207   4.055   6.531   4.048  1.2810  2.3612  1.4840
15598TIP3   OH268208   4.577   5.675   3.828 -0.0415 -0.1558 -0.3361
15598TIP3    H168209   4.646   5.739   3.846 -0.2081 -0.4464  1.6047
15598TIP3    H268210   4.577   5.618   3.905  1.2637 -3.6183 -2.6614
15599TIP3   OH268211   1.931   4.809   4.159  0.6143  0.2263 -0.4395
15599TIP3    H168212   1.950   4.768   4.243 -0.2757  0.9230  0.1312
15599TIP3    H268213   1.956   4.901   4.171  0.7615  0.2679 -1.0352
15600TIP3   OH268214   4.206   4.691  14.047 -0.1417 -1.0122 -0.1411
15600TIP3    H168215   4.279   4.638  14.078  0.5976  0.2167  0.2946
15600TIP3    H268216   4.175   4.645  13.969 -0.4022 -2.7861  0.9487
15601TIP3   OH268217   2.730   5.762  15.998  0.1934  0.3646  0.0523
15601TIP3    H168218   2.665   5.805  15.942  2.5505 -0.3792 -3.6570
15601TIP3    H268219   2.689   5.680  16.024 -0.3415 -0.3732 -2.7225
15602TIP3   OH268220   3.438   0.081  14.221 -0.1706  0.2797 -0.2452
15602TIP3    H168221   3.365   0.142  14.211 -0.4411  0.1498  0.7870
15602TIP3    H268222   3.408   0.018  14.287  1.5112  1.2659  1.6056
15603TIP3   OH268223   3.110   0.752   5.661  0.8028 -0.1249  0.2632
15603TIP3    H168224   3.125   0.685   5.595  1.2863 -0.3716  0.6194
15603TIP3    H268225   3.042   0.809   5.623  1.3230 -0.0610 -0.5915
15604TIP3   OH268226   5.880   4.666  14.986 -0.1191 -0.0436 -0.0796
15604TIP3    H168227   5.786   4.648  14.981 -0.5889  1.0502  2.9877
15604TIP3    H268228   5.909   4.625  15.067  2.3512 -1.1817 -1.4036
15605TIP3   OH268229   4.491   3.817   6.818 -0.1668 -0.8739  0.1411
15605TIP3    H168230   4.573   3.865   6.806 -0.9837  0.5208 -0.1275
15605TIP3    H268231   4.502   3.769   6.900 -0.0859  1.4903  1.5996
15606TIP3   OH268232   5.832   2.368   6.201 -0.1186 -0.3885  0.1698
15606TIP3    H168233   5.812   2.326   6.284 -0.0605  1.0149  0.9103
15606TIP3    H268234   5.786   2.452   6.204 -0.0811 -0.2931 -1.1996
15607TIP3   OH268235   1.721   5.784   5.320  0.0379  0.5286 -0.1218
15607TIP3    H168236   1.800   5.794   5.373  0.3106 -2.5781  0.2498
15607TIP3    H268237   1.649   5.785   5.383  0.2484 -1.5860  0.2463
15608TIP3   OH268238   4.955   5.424  17.202  0.2472  0.0352  0.5540
15608TIP3    H168239   4.890   5.395  17.137 -1.5075  0.1857  2.1484
15608TIP3    H268240   4.942   5.519  17.208  0.4607  0.0347  1.0548
15609TIP3   OH268241   4.297   6.691  11.055 -0.0005 -0.1534 -0.0430
15609TIP3    H168242   4.214   6.644  11.063  0.0014 -0.1107  0.2393
15609TIP3    H268243   4.304   6.713  10.962 -0.4152  0.0451 -0.0293
15610TIP3   OH268244   3.580   0.443  13.281  0.0108  0.1496  0.2248
15610TIP3    H168245   3.555   0.536  13.274  1.0593  0.5355  1.3576
15610TIP3    H268246   3.570   0.410  13.192 -3.9816  0.3577  0.3887
15611TIP3   OH268247   4.924   3.631  16.504 -0.1669  0.4249 -0.3748
15611TIP3    H168248   4.947   3.617  16.595  0.9899  1.8944 -0.4025
15611TIP3    H268249   4.841   3.679  16.507 -0.1193  0.4887 -0.1116
15612TIP3   OH268250   4.156   0.992   6.599 -0.1038  0.3235 -0.5481
15612TIP3    H168251   4.095   1.062   6.624 -0.7351  0.5371 -2.5216
15612TIP3    H268252   4.237   1.014   6.644 -0.5973  1.7602 -0.3049
15613TIP3   OH268253   0.810   4.933  16.509 -0.3608 -0.1093  0.0098
15613TIP3    H168254   0.815   4.928  16.604  0.7651 -0.1350 -0.0427
15613TIP3    H268255   0.727   4.890  16.487 -0.3535 -0.6091  0.9294
15614TIP3   OH268256   2.364   4.360   3.846  0.3234 -0.0886  0.2609
15614TIP3    H168257   2.373   4.426   3.777 -0.8125  3.0759  2.8728
15614TIP3    H268258   2.273   4.365   3.872  0.7175 -1.1707  1.9799
15615TIP3   OH268259   5.100   0.373   0.466 -0.7750  0.2628 -0.6988
15615TIP3    H168260   5.034   0.442   0.465 -0.6934  0.4544  1.4425
15615TIP3    H268261   5.183   0.420   0.458 -0.7377  0.4089  0.4016
15616TIP3   OH268262   1.628   5.011   1.964 -0.4067  0.6024  0.0049
15616TIP3    H168263   1.547   5.019   1.913 -0.8534  0.8057  0.7392
15616TIP3    H268264   1.639   5.098   2.004  1.4406  1.3594 -1.9430
15617TIP3   OH268265   1.109   4.202   0.137  0.1226 -0.1614  0.0630
15617TIP3    H168266   1.126   4.147   0.060 -0.7399  0.5173 -0.6283
15617TIP3    H268267   1.094   4.139   0.207 -0.1403 -0.8094 -0.5543
15618TIP3   OH268268   4.862   1.545  16.552 -0.0769  0.2474 -0.4910
15618TIP3    H168269   4.860   1.564  16.458 -0.8758  1.3545 -0.2788
15618TIP3    H268270   4.804   1.611  16.591 -0.3612 -0.6650  0.7032
15619TIP3   OH268271   0.247   5.604   3.580  0.6090 -0.4427  0.2614
15619TIP3    H168272   0.189   5.537   3.545  0.3413  0.1478 -0.4362
15619TIP3    H268273   0.312   5.555   3.631 -1.2187 -1.0237  2.1396
15620TIP3   OH268274   6.070   0.122   2.797 -0.3705 -0.0364 -0.1926
15620TIP3    H168275   6.012   0.124   2.721 -0.1461  1.6407 -0.3628
15620TIP3    H268276   6.013   0.142   2.871 -0.7925 -2.6948  0.2923
15621TIP3   OH268277   3.633   2.243   4.430  0.3637 -0.0470 -0.0955
15621TIP3    H168278   3.593   2.285   4.505  0.0993  1.9845 -1.3061
15621TIP3    H268279   3.700   2.305   4.400  0.5474 -0.8460 -1.4514
15622TIP3   OH268280   5.199   0.822  13.861  0.3262  0.1415 -0.3754
15622TIP3    H168281   5.261   0.750  13.874 -0.4937 -0.2078  2.2605
15622TIP3    H268282   5.254   0.898  13.839  1.7978 -0.0943  2.1603
15623TIP3   OH268283   6.113   4.988  14.406  0.5430  0.1480  0.0785
15623TIP3    H168284   6.108   4.893  14.399  0.1548  0.1636  0.0966
15623TIP3    H268285   6.206   5.008  14.402  0.6150 -0.2176 -0.1228
15624TIP3   OH268286   0.693   5.083  11.667 -0.2652 -0.0383 -0.1706
15624TIP3    H168287   0.788   5.080  11.675 -0.3484 -0.5839  0.8104
15624TIP3    H268288   0.676   5.153  11.604  0.7220  1.1314  0.8164
15625TIP3   OH268289   2.205   4.082  14.860  0.4038 -0.2977  0.6099
15625TIP3    H168290   2.159   4.098  14.778  0.6998 -0.1400  0.4774
15625TIP3    H268291   2.258   4.005  14.844 -0.4148 -0.9678  1.0077
15626TIP3   OH268292   3.980   6.382  15.202  0.2793  0.1773  0.1701
15626TIP3    H168293   3.891   6.349  15.215  0.2912  0.0776  0.0068
15626TIP3    H268294   3.970   6.454  15.141  0.0794  1.4082  1.6012
15627TIP3   OH268295   0.395   5.412  14.932 -0.0323  0.6953 -0.1678
15627TIP3    H168296   0.308   5.375  14.913  0.5421 -0.6252 -0.3575
15627TIP3    H268297   0.399   5.416  15.027  0.2184 -0.6441 -0.0935
15628TIP3   OH268298   5.113   3.842   5.444  0.1771 -0.2182 -0.1135
15628TIP3    H168299   5.120   3.920   5.388 -0.3859 -0.7667 -0.9767
15628TIP3    H268300   5.204   3.822   5.467  0.2684  1.2451  0.9269
15629TIP3   OH268301   0.299   0.975   5.608 -1.1084 -0.1752  0.0683
15629TIP3    H168302   0.250   1.041   5.656 -1.0462 -0.6649  0.8163
15629TIP3    H268303   0.233   0.924   5.561 -1.1156  0.7669 -0.9754
15630TIP3   OH268304   3.981   0.233  13.814  0.8970 -0.1320 -0.0031
15630TIP3    H168305   4.068   0.272  13.813  0.6209  0.6377 -2.6032
15630TIP3    H268306   3.994   0.146  13.778  0.8407 -0.8272  1.5702
15631TIP3   OH268307   4.901   5.696  13.771  0.5471 -0.2398  0.1703
15631TIP3    H168308   4.992   5.671  13.753  0.8709  0.7288  0.3920
15631TIP3    H268309   4.879   5.651  13.853  0.5989 -0.9982 -0.2221
15632TIP3   OH268310   4.151   5.646  11.012  0.1562 -0.3959 -0.0526
15632TIP3    H168311   4.103   5.651  10.930 -0.6202  0.8046  0.4384
15632TIP3    H268312   4.142   5.555  11.040  1.1140 -1.0200 -1.6605
15633TIP3   OH268313   0.213   3.689   0.643  0.6406  0.3683 -0.1118
15633TIP3    H168314   0.130   3.644   0.659 -0.6985  1.8853 -2.2012
15633TIP3    H268315   0.255   3.637   0.575  0.2686  0.8514 -0.7259
15634TIP3   OH268316   1.659   2.478   4.642 -0.5402 -0.4559  0.2959
15634TIP3    H168317   1.681   2.554   4.589 -1.4883  1.1495  2.0744
15634TIP3    H268318   1.632   2.411   4.579  1.9106  0.0551 -1.4200
15635TIP3   OH268319   1.254   4.918   5.323  0.1319 -1.2071 -0.3672
15635TIP3    H168320   1.211   4.836   5.299 -0.5444 -0.6454 -1.1068
15635TIP3    H268321   1.186   4.985   5.314  0.5273 -0.6361  0.7681
15636TIP3   OH268322   4.782   4.456  11.407  0.1729  0.7789 -0.1078
15636TIP3    H168323   4.841   4.393  11.448 -1.1960 -0.1590  0.4924
15636TIP3    H268324   4.716   4.474  11.473 -1.0587  0.6460 -1.2514
15637TIP3   OH268325   0.256   1.628   3.468 -0.1415 -0.0194 -0.3488
15637TIP3    H168326   0.211   1.544   3.455 -0.6391  0.1666  0.1420
15637TIP3    H268327   0.338   1.619   3.420 -0.3361 -0.6729 -0.5634
15638TIP3   OH268328   6.731   6.698  11.929 -0.0341  0.2179 -0.6041
15638TIP3    H168329   6.748   6.607  11.903  0.6344 -0.5535  2.1251
15638TIP3    H268330   6.812   6.744  11.909  0.4367 -0.3246  0.0076
15639TIP3   OH268331   2.513   4.975  14.352 -0.3613  0.1238  0.4015
15639TIP3    H168332   2.458   5.045  14.385 -0.3637  0.7487 -0.8866
15639TIP3    H268333   2.549   5.008  14.270 -0.0747 -1.2366 -0.0542
15640TIP3   OH268334   1.776   0.758   1.429  0.4474 -0.1557  0.1021
15640TIP3    H168335   1.824   0.817   1.371  0.0691 -0.5187 -0.6075
15640TIP3    H268336   1.684   0.780   1.414  0.3452 -0.3010  0.5154
15641TIP3   OH268337   4.965   5.248   0.476  0.1965  0.2212 -0.2879
15641TIP3    H168338   5.001   5.222   0.561 -0.6443  0.7986  0.2620
15641TIP3    H268339   4.921   5.331   0.493 -0.5821  0.0002 -1.1411
15642TIP3   OH268340   0.543   6.178   0.628 -0.2446 -0.3322 -0.1815
15642TIP3    H168341   0.588   6.149   0.549 -2.4978 -0.4903 -1.4903
15642TIP3    H268342   0.590   6.257   0.655  0.8774 -0.5632 -1.3775
15643TIP3   OH268343   0.047   2.463  14.029 -0.0643 -0.4270 -0.7344
15643TIP3    H168344  -0.010   2.404  13.981 -0.3980 -0.7614  0.0659
15643TIP3    H268345   0.072   2.415  14.107  1.7379 -0.5011 -1.2938
15644TIP3   OH268346   1.423   5.040  16.962  0.2500 -0.0321  0.1785
15644TIP3    H168347   1.449   4.966  16.908 -1.0246  0.5097 -1.2616
15644TIP3    H268348   1.485   5.040  17.035  1.0707 -1.7160 -0.4734
15645TIP3   OH268349   1.126   0.809   3.029  0.1447  0.0268  0.4420
15645TIP3    H168350   1.040   0.850   3.033  1.7510  3.9113  0.0931
15645TIP3    H268351   1.141   0.792   2.936  0.6260  1.7213  0.1681
15646TIP3   OH268352   3.882   4.648   1.806 -0.2560  0.1700  0.1425
15646TIP3    H168353   3.910   4.556   1.805  0.0459  0.2619  0.0900
15646TIP3    H268354   3.833   4.659   1.725  1.0711  0.4721 -0.6383
15647TIP3   OH268355   0.874   3.338   5.210 -0.1964 -0.4612 -0.0585
15647TIP3    H168356   0.900   3.425   5.179 -0.7539 -0.1052  0.4460
15647TIP3    H268357   0.820   3.302   5.139  1.2302 -1.0161 -0.9099
15648TIP3   OH268358   0.518   4.808   0.826 -0.5618 -0.2147  0.4681
15648TIP3    H168359   0.582   4.773   0.889 -0.8250 -1.5507  0.0371
15648TIP3    H268360   0.437   4.762   0.848 -1.4169  1.5047  1.0413
15649TIP3   OH268361   1.900   0.783   3.108 -0.3430 -0.3212 -0.4167
15649TIP3    H168362   1.948   0.793   3.190  0.5214  0.8986 -1.0486
15649TIP3    H268363   1.808   0.775   3.135 -0.0532 -0.1698  0.6751
15650TIP3   OH268364   6.700   5.780   2.255 -0.0913  0.1281 -0.0096
15650TIP3    H168365   6.785   5.738   2.243 -1.1803 -1.8791 -1.6551
15650TIP3    H268366   6.644   5.710   2.291 -1.1568  1.2458  0.5651
15651TIP3   OH268367   2.555   4.840   1.586  0.0511  0.6625  0.6036
15651TIP3    H168368   2.625   4.818   1.647 -1.0509  0.1377  1.7425
15651TIP3    H268369   2.478   4.849   1.642 -1.2749 -1.0179 -0.8381
15652TIP3   OH268370   1.336   2.785   0.195 -0.4775  0.2078 -0.0823
15652TIP3    H168371   1.381   2.863   0.164 -0.4830  0.3460  0.2539
15652TIP3    H268372   1.268   2.769   0.130 -0.8095  0.7846  0.1114
15653TIP3   OH268373   2.020   2.003   5.119  0.3284  0.0637 -0.1716
15653TIP3    H168374   1.959   2.070   5.148 -1.3836 -0.8073 -1.6116
15653TIP3    H268375   2.027   1.942   5.192 -0.7226  0.0578 -0.0727
15654TIP3   OH268376   1.553   0.674  12.078  0.0436 -0.1634  0.0977
15654TIP3    H168377   1.496   0.655  12.003 -1.1091  0.8015  0.6820
15654TIP3    H268378   1.641   0.681  12.041 -0.3325 -0.8674 -0.9671
15655TIP3   OH268379   2.204   1.131  12.208  0.2832  0.4481 -0.4015
15655TIP3    H168380   2.116   1.094  12.202  0.6431 -0.3926 -0.6286
15655TIP3    H268381   2.215   1.181  12.127 -0.5007  1.7543  0.2655
15656TIP3   OH268382   0.715   5.558   2.730  0.1888  0.0181  0.1972
15656TIP3    H168383   0.659   5.574   2.805 -0.0002 -1.3189  0.3570
15656TIP3    H268384   0.674   5.607   2.658 -1.3676 -1.1649  0.2383
15657TIP3   OH268385   5.486   3.921   5.089  0.8364 -0.2956  0.0157
15657TIP3    H168386   5.518   3.831   5.102 -0.6122 -0.7657  0.4819
15657TIP3    H268387   5.540   3.974   5.148  1.7807 -0.8293 -0.3394
15658TIP3   OH268388   0.260   0.219   5.295  0.1278  0.5202 -0.1034
15658TIP3    H168389   0.221   0.178   5.218  0.9323 -1.8416  0.6616
15658TIP3    H268390   0.237   0.161   5.368  2.3746  0.7057  0.8475
15659TIP3   OH268391   4.591   2.963   0.610  0.3027  0.5158  0.6722
15659TIP3    H168392   4.653   2.890   0.598 -0.2301 -0.0251  1.1411
15659TIP3    H268393   4.633   3.020   0.674  1.7528  1.8173 -1.3224
15660TIP3   OH268394   1.973   3.996  13.137  0.3081 -0.6224  0.1311
15660TIP3    H168395   2.058   3.979  13.176  0.7315  0.4642 -0.2918
15660TIP3    H268396   1.983   4.079  13.091 -0.3548 -1.5091 -1.7212
15661TIP3   OH268397   4.556   3.516   0.372 -0.3195 -0.1640 -0.2314
15661TIP3    H168398   4.513   3.436   0.342  0.8564 -1.2514  0.8470
15661TIP3    H268399   4.626   3.532   0.308  0.5707 -1.0399  0.4876
15662TIP3   OH268400   5.556   3.009   4.027 -0.1736 -0.5402 -0.1030
15662TIP3    H168401   5.552   3.032   4.120 -1.1620  1.7326 -0.6481
15662TIP3    H268402   5.609   3.078   3.988 -1.3026 -0.4326 -1.5069
15663TIP3   OH268403   2.002   1.031   0.597 -0.1788 -0.5982  0.3249
15663TIP3    H168404   2.066   1.083   0.548 -1.1650  1.6794  1.3215
15663TIP3    H268405   1.938   1.004   0.531 -0.0975  0.2093 -0.1040
15664TIP3   OH268406   0.356   1.510  14.307 -0.3055  1.0884 -0.0789
15664TIP3    H168407   0.348   1.577  14.240  1.6837  1.1500 -0.3158
15664TIP3    H268408   0.291   1.534  14.373 -2.1128  1.1773 -1.8108
15665TIP3   OH268409   4.034   6.310   6.391 -0.0169  0.0261 -0.2053
15665TIP3    H168410   4.024   6.249   6.318 -1.8241 -0.5625  0.4603
15665TIP3    H268411   3.965   6.376   6.377  0.2650  0.4731  0.4357
15666TIP3   OH268412   2.579   6.285   5.987 -0.5443  0.0447 -0.0165
15666TIP3    H168413   2.642   6.228   6.033  1.2144  2.0388  0.2004
15666TIP3    H268414   2.497   6.237   5.991  0.8899 -2.6406 -0.1718
15667TIP3   OH268415   2.672   2.001   0.459 -0.0241 -0.3511 -0.1160
15667TIP3    H168416   2.687   1.910   0.484 -1.2280 -0.6137 -0.2852
15667TIP3    H268417   2.636   2.041   0.538  0.8018  0.0782  0.0583
15668TIP3   OH268418   5.583   2.694  14.954  0.0648 -0.3623 -0.4496
15668TIP3    H168419   5.579   2.598  14.950 -1.4108 -0.3553  0.0983
15668TIP3    H268420   5.660   2.712  15.008  0.8906 -1.2048 -1.3204
15669TIP3   OH268421   4.955   5.639  12.335 -0.1485 -0.1156  0.1668
15669TIP3    H168422   4.876   5.633  12.283  0.1194 -1.2986 -0.1293
15669TIP3    H268423   4.925   5.663  12.423 -0.9956 -1.9287  0.4117
15670TIP3   OH268424   4.223   5.680  16.356 -0.6693  0.1473  0.0898
15670TIP3    H168425   4.221   5.597  16.403 -0.1431  0.6058  0.9331
15670TIP3    H268426   4.316   5.697  16.342 -0.7459  0.9094  0.4886
15671TIP3   OH268427   6.231   3.598   5.657  0.2111  0.2418  0.4769
15671TIP3    H168428   6.185   3.673   5.694  0.9482  0.2984  1.3177
15671TIP3    H268429   6.318   3.632   5.635 -0.0010  0.0491 -0.7468
15672TIP3   OH268430   2.155   2.024  12.728  0.7289 -0.4073  0.2739
15672TIP3    H168431   2.189   2.075  12.654  1.4807 -0.5442  0.5230
15672TIP3    H268432   2.168   1.933  12.702 -0.1291 -0.4860  0.0609
15673TIP3   OH268433   1.703   5.233   1.240  0.1384 -0.6715 -0.3415
15673TIP3    H168434   1.642   5.188   1.182 -0.2486 -0.7533  0.1302
15673TIP3    H268435   1.656   5.310   1.271  1.2756  0.8934 -2.2713
15674TIP3   OH268436   3.508   3.132   0.813 -0.2255 -0.5079  0.0074
15674TIP3    H168437   3.451   3.058   0.835 -3.1032  1.4583 -0.2739
15674TIP3    H268438   3.449   3.196   0.773  2.1466  1.8832  0.0939
15675TIP3   OH268439   0.335   2.109  11.391 -0.0100 -0.1097 -0.5827
15675TIP3    H168440   0.240   2.094  11.393  0.2523 -2.5203 -1.9930
15675TIP3    H268441   0.355   2.148  11.476 -2.2202  0.1849 -0.1395
15676TIP3   OH268442   3.094   1.379   3.054  0.7593 -0.3844  0.1886
15676TIP3    H168443   3.171   1.340   3.012  1.7512  0.7757  0.8569
15676TIP3    H268444   3.127   1.412   3.138 -0.5472 -0.1524  0.6306
15677TIP3   OH268445   4.697   5.541  11.061  0.3604  0.3030  0.7456
15677TIP3    H168446   4.631   5.608  11.079 -1.3699 -1.0858 -0.0785
15677TIP3    H268447   4.701   5.536  10.966 -0.3440 -1.4586  0.7701
15678TIP3   OH268448   6.320   1.732  14.201  0.1432  0.1570  0.3770
15678TIP3    H168449   6.229   1.757  14.183 -0.1121 -0.8229  0.2514
15678TIP3    H268450   6.314   1.665  14.269  0.8334  0.6521  0.9424
15679TIP3   OH268451   1.653   3.383  12.840 -0.3036 -0.0998  0.6009
15679TIP3    H168452   1.744   3.411  12.831 -0.2717 -0.6643 -1.0620
15679TIP3    H268453   1.651   3.295  12.803 -1.7563  0.3493 -0.4639
15680TIP3   OH268454   0.588   2.514   2.117  0.3668  0.0952  0.2521
15680TIP3    H168455   0.677   2.549   2.111  0.9150 -0.9501  1.8137
15680TIP3    H268456   0.558   2.539   2.204 -1.3168  1.3484 -0.6287
15681TIP3   OH268457   0.694   6.760   5.756 -0.0552  0.2785  0.5527
15681TIP3    H168458   0.722   6.675   5.721 -0.5140 -0.0708  1.0117
15681TIP3    H268459   0.701   6.750   5.851 -1.7594  0.1376  0.7111
15682TIP3   OH268460   5.151   5.654  13.638 -0.1582  0.1154 -0.0725
15682TIP3    H168461   5.140   5.561  13.619  1.0601 -0.2039  0.6789
15682TIP3    H268462   5.234   5.659  13.685 -0.9305  1.3948  1.2441
15683TIP3   OH268463   1.893   1.148   4.332  0.2656 -0.1241  0.1538
15683TIP3    H168464   1.941   1.215   4.282 -3.1021  2.2755 -0.1710
15683TIP3    H268465   1.825   1.196   4.377  0.3670 -2.8563  3.6064
15684TIP3   OH268466   2.134   1.295  16.466 -0.4054 -0.2936 -0.3785
15684TIP3    H168467   2.181   1.265  16.388  0.1609  0.9302 -0.5201
15684TIP3    H268468   2.045   1.311  16.436 -0.1809  0.1990 -0.7904
15685TIP3   OH268469   3.882   4.928   2.072  0.2578 -0.4135 -0.0653
15685TIP3    H168470   3.962   4.891   2.109 -1.2295 -2.6442  1.0930
15685TIP3    H268471   3.887   4.906   1.979  2.1686  1.8150 -0.5938
15686TIP3   OH268472   2.842   5.006   3.690 -0.0306 -0.2974  0.7491
15686TIP3    H168473   2.782   4.987   3.762  0.5519  0.0790  1.3354
15686TIP3    H268474   2.863   4.921   3.653 -0.8693 -0.4413  0.5795
15687TIP3   OH268475   4.363   1.159  14.304  0.0922 -0.5702  0.6249
15687TIP3    H168476   4.417   1.212  14.246 -2.4555  0.3845 -1.0328
15687TIP3    H268477   4.426   1.110  14.357  2.5475  1.4001 -0.2604
15688TIP3   OH268478   0.021   6.732   3.699 -0.0054 -0.1887  0.2760
15688TIP3    H168479  -0.018   6.791   3.763  0.1061 -0.2073  0.3622
15688TIP3    H268480   0.060   6.662   3.752  0.3945 -0.0216  0.2070
15689TIP3   OH268481   2.457   5.369   4.012 -0.8799  0.1918  0.4318
15689TIP3    H168482   2.407   5.442   3.974  0.5548  1.4180  0.8149
15689TIP3    H268483   2.547   5.384   3.985 -0.4822 -1.2506  0.8472
15690TIP3   OH268484   3.993   3.384  16.961 -0.1897  0.6620  0.2784
15690TIP3    H168485   3.940   3.450  16.918 -0.4248  2.0959  2.6158
15690TIP3    H268486   3.933   3.341  17.022  0.4920 -0.2048  0.3654
15691TIP3   OH268487   2.591   4.544   0.069  0.1400  0.0730 -0.1107
15691TIP3    H168488   2.570   4.633   0.041  1.1498  0.5476  0.5942
15691TIP3    H268489   2.682   4.549   0.098 -0.2922 -0.8338  1.4720
15692TIP3   OH268490   3.875   3.757  16.524  0.1960 -0.5213 -0.4071
15692TIP3    H168491   3.963   3.751  16.487 -0.3084  0.0583 -1.7661
15692TIP3    H268492   3.855   3.850  16.524 -0.8173 -0.7219 -1.0990
15693TIP3   OH268493   3.511   6.489   4.401 -0.6141  1.1637  0.2615
15693TIP3    H168494   3.440   6.548   4.426 -3.2847 -1.7224  0.0634
15693TIP3    H268495   3.507   6.486   4.305 -0.2060  0.9876  0.2462
15694TIP3   OH268496   2.113   2.883  15.656 -0.1593 -0.1648 -0.5083
15694TIP3    H168497   2.154   2.797  15.650 -1.1896 -0.7169  0.1473
15694TIP3    H268498   2.019   2.866  15.651 -0.3772  0.9314 -0.4481
15695TIP3   OH268499   2.124   4.199  15.586  0.2126  0.5859 -0.5928
15695TIP3    H168500   2.171   4.170  15.664 -1.4021 -2.0907 -0.4770
15695TIP3    H268501   2.169   4.154  15.514  0.3131  1.2670 -0.9607
15696TIP3   OH268502   1.316   1.043  11.783  0.1561  0.1494 -0.1769
15696TIP3    H168503   1.345   1.002  11.865  2.6138 -0.5378 -1.2771
15696TIP3    H268504   1.246   0.986  11.751 -0.8703  0.4562  1.4259
15697TIP3   OH268505   0.008   4.190   0.055  0.1541  0.3461 -0.0599
15697TIP3    H168506   0.059   4.261   0.018 -1.4488  0.4393 -2.2873
15697TIP3    H268507   0.065   4.113   0.049  1.1658  1.0283  0.5232
15698TIP3   OH268508   2.745   1.321   1.656  0.0109 -0.7594 -0.0460
15698TIP3    H168509   2.764   1.289   1.744 -0.7564 -1.5729 -0.1651
15698TIP3    H268510   2.686   1.255   1.619  0.4611 -0.5171 -1.2305
15699TIP3   OH268511   3.204   5.233   2.647  0.8741 -0.5769 -0.4526
15699TIP3    H168512   3.168   5.261   2.562 -0.2334  0.3550  0.2952
15699TIP3    H268513   3.293   5.269   2.647  1.0447 -0.9530 -1.3871
15700TIP3   OH268514   3.699   5.705  14.027  0.1295  0.4973 -0.5265
15700TIP3    H168515   3.753   5.630  14.052 -0.2263 -0.5053 -2.5807
15700TIP3    H268516   3.609   5.674  14.037 -0.0380  1.0378 -0.3197
15701TIP3   OH268517   5.754   4.929   5.479  0.0338  0.1650 -0.3617
15701TIP3    H168518   5.842   4.916   5.514 -0.4095 -0.2210  0.6477
15701TIP3    H268519   5.747   4.866   5.407 -0.4406 -2.0246  1.4687
15702TIP3   OH268520   2.812   2.383   1.368 -0.2513  0.1169  0.0182
15702TIP3    H168521   2.745   2.321   1.396  0.0231 -0.2317 -0.0828
15702TIP3    H268522   2.777   2.422   1.287  0.8726 -2.1574 -1.6692
15703TIP3   OH268523   5.569   5.448   2.191  0.3422 -0.2422 -0.2631
15703TIP3    H168524   5.490   5.409   2.153 -0.4744 -0.3499  1.4435
15703TIP3    H268525   5.633   5.376   2.192 -0.0085 -0.5614 -0.3783
15704TIP3   OH268526   2.763   5.731   1.528 -0.2711  0.0405  0.4685
15704TIP3    H168527   2.696   5.767   1.470 -0.9720 -1.2877  0.4255
15704TIP3    H268528   2.778   5.800   1.593 -1.7131  0.3423  0.5040
15705TIP3   OH268529   5.305   5.881  17.059 -0.6215  0.2836 -0.2523
15705TIP3    H168530   5.210   5.874  17.075 -0.7037  1.5463 -0.1006
15705TIP3    H268531   5.321   5.822  16.986 -1.3729 -0.6300  0.2995
15706TIP3   OH268532   6.631   2.572   1.860  0.2482  0.2000 -0.2035
15706TIP3    H168533   6.558   2.526   1.902  0.5220  0.8331  1.0295
15706TIP3    H268534   6.590   2.625   1.791 -0.3888  0.0662  0.0632
15707TIP3   OH268535   4.092   3.875  11.330 -0.1885  0.4355 -0.1147
15707TIP3    H168536   4.046   3.845  11.251 -1.6134 -1.2930  1.2742
15707TIP3    H268537   4.032   3.853  11.402  1.1607  1.7432  1.4767
15708TIP3   OH268538   6.458   2.603   4.784  0.0351 -0.2498 -0.3267
15708TIP3    H168539   6.534   2.642   4.741  1.3244 -0.8799  1.2807
15708TIP3    H268540   6.384   2.656   4.754  1.0259  0.1360 -2.2501
15709TIP3   OH268541   3.433   0.193   3.910 -0.1872  0.0008 -0.1130
15709TIP3    H168542   3.403   0.283   3.899  1.7889  0.5091 -2.0277
15709TIP3    H268543   3.489   0.195   3.988 -3.3394 -0.5882  2.4064
15710TIP3   OH268544   0.701   3.473   4.664  0.5962 -0.6340  0.1269
15710TIP3    H168545   0.656   3.550   4.629 -0.3436 -0.6211  1.2854
15710TIP3    H268546   0.667   3.464   4.753  1.8878 -1.4554  0.5695
15711TIP3   OH268547   5.139   4.086   0.047  0.6022  0.4187  0.1586
15711TIP3    H168548   5.150   4.108  -0.046  1.7903  1.4637  0.5190
15711TIP3    H268549   5.153   4.169   0.093 -1.7810  0.3393  1.2098
15712TIP3   OH268550   1.755   6.320  12.767 -0.3302  0.0640  0.0155
15712TIP3    H168551   1.745   6.252  12.700 -1.8650 -1.3805  1.5849
15712TIP3    H268552   1.695   6.389  12.739 -0.4525 -0.2222 -0.4467
15713TIP3   OH268553   4.218   3.341   2.410 -0.4692 -0.2086  0.1806
15713TIP3    H168554   4.243   3.255   2.444 -2.0987 -0.6745  0.2945
15713TIP3    H268555   4.185   3.324   2.322  1.1347  0.6220 -0.6359
15714TIP3   OH268556   3.179   5.269  12.012 -0.4956  0.4236  0.2203
15714TIP3    H168557   3.186   5.354  12.056 -1.1984  0.8537 -0.4936
15714TIP3    H268558   3.126   5.216  12.071  0.8036  0.1177  1.1784
15715TIP3   OH268559   3.412   1.787  12.943  0.4008  0.0256 -0.0364
15715TIP3    H168560   3.470   1.790  12.868  0.0875  2.4787 -0.2641
15715TIP3    H268561   3.409   1.877  12.975 -1.1366 -0.5476  1.6323
15716TIP3   OH268562   2.430   0.777   2.897 -0.0283  0.2102 -0.0868
15716TIP3    H168563   2.444   0.760   2.804 -2.9451  1.3394 -0.8449
15716TIP3    H268564   2.510   0.821   2.925 -0.0698  2.2439 -2.7592
15717TIP3   OH268565   2.329   4.705   5.034  0.3341 -0.5598 -0.1011
15717TIP3    H168566   2.342   4.618   4.997  0.0692 -1.2310  1.2969
15717TIP3    H268567   2.418   4.735   5.053  0.5766  0.3554 -2.3954
15718TIP3   OH268568   3.330   1.668  11.349  0.1472  0.7808  0.4650
15718TIP3    H168569   3.391   1.640  11.281 -0.6820  1.8746 -0.7819
15718TIP3    H268570   3.360   1.755  11.374  0.1078  0.6148  1.1050
15719TIP3   OH268571   2.032   1.769  11.922 -0.4171  0.4691  0.3521
15719TIP3    H168572   2.097   1.783  11.991  0.4005  1.7125 -0.6325
15719TIP3    H268573   1.957   1.731  11.968  0.5465  0.1168  1.7181
15720TIP3   OH268574   3.055   2.108   4.807  0.2652  0.1637  0.1926
15720TIP3    H168575   3.101   2.057   4.873 -0.0446 -1.3178 -0.6813
15720TIP3    H268576   3.021   2.183   4.854  2.5300  0.6953  1.0994
15721TIP3   OH268577   4.529   1.978  12.513  0.4407  0.0066 -0.7770
15721TIP3    H168578   4.535   1.898  12.462  0.5814 -0.5411  0.0727
15721TIP3    H268579   4.587   2.039  12.469  1.4363 -0.8090 -0.6311
15722TIP3   OH268580   4.526   2.515   6.331  0.5243  0.2429  0.1921
15722TIP3    H168581   4.471   2.492   6.406 -0.4831 -1.0848 -0.8991
15722TIP3    H268582   4.587   2.442   6.324  1.5934  1.0742  0.5878
15723TIP3   OH268583   4.483   3.264  16.813  0.2328  0.4375 -0.3601
15723TIP3    H168584   4.447   3.178  16.832 -0.6419  0.7436 -0.5730
15723TIP3    H268585   4.471   3.275  16.718  2.6183 -0.2112 -0.8161
15724TIP3   OH268586   5.447   1.266  12.908  0.0661 -0.3315 -0.2389
15724TIP3    H168587   5.384   1.209  12.953 -0.8998 -0.1954 -1.3444
15724TIP3    H268588   5.409   1.353  12.915  1.8222  0.3337  1.9348
15725TIP3   OH268589   0.181   0.028   5.524 -0.0240 -0.2209 -0.2386
15725TIP3    H168590   0.129  -0.041   5.483 -1.8267  1.1485 -0.4129
15725TIP3    H268591   0.124   0.106   5.521  1.1867  0.8178  1.6029
15726TIP3   OH268592   6.544   0.529  16.711 -0.0158  0.2488  0.6148
15726TIP3    H168593   6.460   0.529  16.667  0.1449 -1.6662  0.1883
15726TIP3    H268594   6.598   0.468  16.660  1.6905  1.5597  0.7706
15727TIP3   OH268595   3.409   5.881  17.045 -0.3589  0.2888  0.0839
15727TIP3    H168596   3.439   5.956  16.994  1.0585  0.1742  0.7139
15727TIP3    H268597   3.472   5.811  17.024 -1.2370 -0.5141  0.0525
15728TIP3   OH268598   0.042   2.318   4.758  0.2010 -0.3413 -0.0642
15728TIP3    H168599  -0.022   2.309   4.687 -0.3925 -1.3016  0.5807
15728TIP3    H268600  -0.010   2.319   4.837  0.8460  0.9226  0.3818
15729TIP3   OH268601   5.146   6.315   0.774  0.4985 -0.1600  0.1100
15729TIP3    H168602   5.069   6.371   0.770  0.0930 -0.6269  1.1335
15729TIP3    H268603   5.174   6.307   0.683 -0.1282  0.7302 -0.1814
15730TIP3   OH268604   5.452   1.409   0.387 -0.3661 -0.4960  0.2313
15730TIP3    H168605   5.494   1.324   0.401 -0.3764 -0.3863  0.9540
15730TIP3    H268606   5.388   1.392   0.317 -1.1033 -1.3444  1.0821
15731TIP3   OH268607   0.699   5.310   4.007 -1.2215  0.3909 -0.0641
15731TIP3    H168608   0.752   5.247   3.959 -0.5803  1.7619 -1.2444
15731TIP3    H268609   0.618   5.264   4.027 -0.4846 -1.0255 -0.2276
15732TIP3   OH268610   4.781   0.033   1.246  0.3792  0.8332  0.1803
15732TIP3    H168611   4.696   0.071   1.225  0.9711  1.9399 -0.3257
15732TIP3    H268612   4.805  -0.018   1.169 -0.7876 -1.3413  1.1794
15733TIP3   OH268613   6.562   4.876   2.164 -0.2184 -0.4388 -0.2523
15733TIP3    H168614   6.606   4.904   2.244  1.0517 -0.1114 -1.0290
15733TIP3    H268615   6.496   4.944   2.148  0.5986  0.3472 -0.3362
15734TIP3   OH268616   1.810   1.003   0.018  0.2432 -0.1208  0.4863
15734TIP3    H168617   1.768   0.984  -0.066  1.0438  1.9056 -0.4466
15734TIP3    H268618   1.841   0.918   0.049  0.9531 -0.8012 -1.8509
15735TIP3   OH268619   6.235   4.749   3.582  0.2257 -0.5296 -0.9018
15735TIP3    H168620   6.330   4.739   3.580  0.4110  0.8394 -0.2268
15735TIP3    H268621   6.220   4.840   3.554 -1.0518 -1.3810 -3.2845
15736TIP3   OH268622   5.524   4.155  12.267 -0.2302  0.3177 -0.0301
15736TIP3    H168623   5.472   4.203  12.202 -1.1499 -0.2925  0.2467
15736TIP3    H268624   5.579   4.222  12.307  1.7778  0.4744 -2.7143
15737TIP3   OH268625   2.686   2.185  14.070  0.3418  0.1782 -0.2969
15737TIP3    H168626   2.634   2.105  14.080 -1.5547  1.3262 -0.3474
15737TIP3    H268627   2.687   2.224  14.157 -0.2083  0.9168 -0.6067
15738TIP3   OH268628   0.320   4.650  10.736  0.4868 -0.3605  0.1078
15738TIP3    H168629   0.364   4.565  10.740  0.9910 -0.1856 -1.1020
15738TIP3    H268630   0.385   4.709  10.698  0.1724  0.5981  1.0032
15739TIP3   OH268631   0.501   4.439  14.272  0.2009  0.5192 -0.5295
15739TIP3    H168632   0.503   4.391  14.355 -1.6763  0.9429 -0.1759
15739TIP3    H268633   0.484   4.373  14.206  0.5563  0.3244 -0.4268
15740TIP3   OH268634   3.538   6.077  14.636 -0.2675 -0.5916 -0.0520
15740TIP3    H168635   3.567   6.040  14.553 -0.6746 -1.0783  0.0187
15740TIP3    H268636   3.598   6.040  14.701 -0.1415 -0.4531 -0.0897
15741TIP3   OH268637   3.549   3.078   3.390  1.0343 -0.0078  0.2166
15741TIP3    H168638   3.600   2.997   3.391  2.0267  0.6021  0.3357
15741TIP3    H268639   3.481   3.062   3.325  0.6178 -1.2794  0.9300
15742TIP3   OH268640   1.273   5.050  14.314  0.3381 -0.0652  0.2371
15742TIP3    H168641   1.296   5.128  14.264  0.0173 -1.5677 -2.4258
15742TIP3    H268642   1.233   5.084  14.394 -0.7323  2.5273 -1.2661
15743TIP3   OH268643   0.112   0.191  11.243 -0.0066 -0.2042  0.1317
15743TIP3    H168644   0.149   0.213  11.157  2.0829 -2.1775  0.4151
15743TIP3    H268645   0.121   0.271  11.294 -0.7306  0.8204 -1.2831
15744TIP3   OH268646   2.283   6.146   4.308  0.2425  0.1132 -0.9627
15744TIP3    H168647   2.262   6.123   4.399  0.1619  2.5159 -0.3067
15744TIP3    H268648   2.218   6.100   4.256 -2.7956  2.3734  0.5616
15745TIP3   OH268649   4.166   5.316  13.874 -0.5664 -0.6436  0.3540
15745TIP3    H168650   4.112   5.388  13.906  0.0584 -0.9579  2.2026
15745TIP3    H268651   4.250   5.357  13.852 -0.4543 -0.6840  0.7016
15746TIP3   OH268652   3.922   4.786   0.558 -0.1578  0.2267  0.2128
15746TIP3    H168653   3.927   4.873   0.518 -0.2719  0.0439 -0.2024
15746TIP3    H268654   3.852   4.742   0.510 -0.3501  0.0306  0.6686
15747TIP3   OH268655   5.699   3.574  12.563 -0.2090  0.2182  0.2207
15747TIP3    H168656   5.734   3.513  12.498 -0.0935  1.3581 -0.8336
15747TIP3    H268657   5.614   3.599  12.529 -0.1687  0.7965  0.5281
15748TIP3   OH268658   4.481   4.394   0.864 -0.6800  0.7436 -0.3807
15748TIP3    H168659   4.438   4.310   0.844 -0.7625  1.0661 -1.6442
15748TIP3    H268660   4.515   4.382   0.952 -1.6144 -0.2448 -0.1257
15749TIP3   OH268661   5.912   5.059   3.677 -0.2349 -0.1665 -0.3602
15749TIP3    H168662   5.917   5.002   3.600 -1.6421 -0.5941 -0.1700
15749TIP3    H268663   5.831   5.110   3.663 -0.4477 -0.1661  0.7756
15750TIP3   OH268664   2.645   2.797  13.015  0.1508  0.2994 -0.6434
15750TIP3    H168665   2.675   2.839  12.935 -1.8373  1.7749 -0.6848
15750TIP3    H268666   2.720   2.804  13.075  0.6672  1.9017 -1.4131
15751TIP3   OH268667   6.617   2.808  12.169  0.2892 -0.3760 -0.4091
15751TIP3    H168668   6.667   2.890  12.159 -0.5469  0.0546 -1.2253
15751TIP3    H268669   6.546   2.816  12.105 -1.7209 -0.3297  1.7250
15752TIP3   OH268670   5.396   5.461  15.374 -0.0741  0.0400 -0.4868
15752TIP3    H168671   5.385   5.395  15.305  0.9573  0.0518 -0.6781
15752TIP3    H268672   5.344   5.536  15.344 -0.4114 -0.3099 -0.7768
15753TIP3   OH268673   2.721   3.994   4.031 -0.1950  0.4710  0.2560
15753TIP3    H168674   2.661   4.051   3.984  1.9998  0.0155 -3.6070
15753TIP3    H268675   2.677   3.909   4.032 -1.2367  1.0017  1.1699
15754TIP3   OH268676   3.965   0.861   2.138 -0.1835 -0.7350 -0.3671
15754TIP3    H168677   4.010   0.828   2.215  1.9375 -1.2673 -1.7411
15754TIP3    H268678   4.035   0.901   2.085 -1.9011  1.6892 -0.9808
15755TIP3   OH268679   4.505   4.293  16.125  0.5280 -0.1446  0.3447
15755TIP3    H168680   4.428   4.242  16.099  0.6150 -1.2698  2.1242
15755TIP3    H268681   4.470   4.367  16.173  0.4943  0.3468 -0.4250
15756TIP3   OH268682   0.289   3.165  11.374 -0.2009  0.1091  0.5884
15756TIP3    H168683   0.274   3.079  11.414 -1.7912 -0.6158 -1.3271
15756TIP3    H268684   0.296   3.146  11.280 -1.8372  2.1587 -0.0343
15757TIP3   OH268685   1.535   3.992  14.140  0.5782  0.7144  0.4075
15757TIP3    H168686   1.580   3.956  14.217  1.5030 -0.4685 -0.6388
15757TIP3    H268687   1.533   3.920  14.078 -1.1200  1.3269 -0.3046
15758TIP3   OH268688   2.202   5.259   5.563 -0.1354  0.0530 -0.1369
15758TIP3    H168689   2.167   5.183   5.517 -0.9827  1.1733 -1.4034
15758TIP3    H268690   2.136   5.281   5.629 -0.5744  0.5297 -0.7226
15759TIP3   OH268691   6.623   0.574  12.860  0.5823  0.0373  0.2100
15759TIP3    H168692   6.567   0.503  12.828 -1.7220  2.2729 -1.0186
15759TIP3    H268693   6.568   0.622  12.921  1.4461  1.7995 -0.3357
15760TIP3   OH268694   4.914   1.939   5.120 -0.3107  0.1500 -0.3331
15760TIP3    H168695   4.838   1.943   5.179 -1.5930 -2.7464 -1.6000
15760TIP3    H268696   4.876   1.941   5.032  0.9232 -2.0884 -1.0017
15761TIP3   OH268697   4.125   4.587  17.002  0.3070  0.1897  0.4540
15761TIP3    H168698   4.153   4.651  17.067 -1.5304  0.3626  1.1225
15761TIP3    H268699   4.043   4.551  17.036 -1.1511  0.8369 -2.0807
15762TIP3   OH268700   4.314   1.734  15.823  0.4814 -0.0363 -0.0178
15762TIP3    H168701   4.267   1.817  15.825  1.0431  0.4025 -2.2809
15762TIP3    H268702   4.373   1.738  15.898  0.1803  1.4070  0.1657
15763TIP3   OH268703   3.353   0.035  16.153 -0.2858  0.4316  0.1024
15763TIP3    H168704   3.417   0.002  16.215 -1.5680 -0.8979  0.7925
15763TIP3    H268705   3.371  -0.012  16.071  0.0591  0.5941  0.0852
15764TIP3   OH268706   1.181   3.961   0.902  0.4266 -0.0698  0.1427
15764TIP3    H168707   1.264   3.918   0.882 -0.2776 -1.2522 -0.3499
15764TIP3    H268708   1.141   3.977   0.817  0.2444  0.7157  0.3668
15765TIP3   OH268709   5.625   2.743   1.010 -0.4926 -0.2677 -0.4173
15765TIP3    H168710   5.630   2.810   0.941 -1.0434  0.4115  0.1914
15765TIP3    H268711   5.532   2.725   1.019 -0.2981 -1.6894 -1.1038
15766TIP3   OH268712   6.346   2.711  12.831  0.3398  0.5409  0.2221
15766TIP3    H168713   6.326   2.801  12.856  1.4644  1.0300 -0.5684
15766TIP3    H268714   6.262   2.665  12.841 -0.3382  1.7364  0.3072
15767TIP3   OH268715   0.812   5.220   2.970 -0.3485 -0.4336 -0.4256
15767TIP3    H168716   0.828   5.129   2.945  0.7710 -0.1019 -0.9827
15767TIP3    H268717   0.729   5.218   3.018  0.3246 -1.9389  0.7409
15768TIP3   OH268718   5.005   5.196  16.261 -0.2333  0.4150 -0.3130
15768TIP3    H168719   5.093   5.198  16.300 -1.2975 -1.2478  2.5389
15768TIP3    H268720   4.956   5.263  16.309 -0.9216  0.2061 -0.7143
15769TIP3   OH268721   6.415   4.259   6.030  0.5840  0.3740  0.0180
15769TIP3    H168722   6.338   4.316   6.030  0.8473  0.7319  0.1743
15769TIP3    H268723   6.385   4.177   6.069  0.5748  0.9123  1.1720
15770TIP3   OH268724   1.435   0.263  15.637 -0.1058  0.2447  0.1113
15770TIP3    H168725   1.384   0.252  15.717 -2.3500  0.0541 -1.2743
15770TIP3    H268726   1.485   0.344  15.651 -2.5891  1.7788  0.6366
15771TIP3   OH268727   1.934   3.149  10.813  0.1788  0.0575 -0.1591
15771TIP3    H168728   1.861   3.090  10.797 -1.8869  1.8530  1.7609
15771TIP3    H268729   1.919   3.222  10.754 -1.4692  1.8197  2.2114
15772TIP3   OH268730   1.091   2.999  16.554 -0.3493 -0.7462  0.1290
15772TIP3    H168731   1.134   2.971  16.473  0.0015 -1.0841  0.4312
15772TIP3    H268732   1.092   2.922  16.610 -1.7191 -0.8939  0.0018
15773TIP3   OH268733   3.431   0.868  15.738  0.1081  0.7246 -0.8255
15773TIP3    H168734   3.524   0.867  15.714 -0.6536 -0.5106 -4.2155
15773TIP3    H268735   3.426   0.816  15.818  2.3075  0.7728 -0.6055
15774TIP3   OH268736   4.084   2.691  16.557  0.4777 -0.0390 -0.4344
15774TIP3    H168737   4.099   2.742  16.637  1.7073  0.9281 -1.2471
15774TIP3    H268738   4.133   2.610  16.570 -0.2805 -0.4099  0.2458
15775TIP3   OH268739   1.221   0.328  14.033  0.0816 -0.3524 -0.2861
15775TIP3    H168740   1.155   0.288  13.978  0.0549  1.3715 -1.5834
15775TIP3    H268741   1.183   0.328  14.121 -1.1840 -0.3602 -0.8197
15776TIP3   OH268742   5.855   0.933   6.148 -0.1774  0.1500  0.0748
15776TIP3    H168743   5.911   1.003   6.180  1.3085  0.5807 -3.0521
15776TIP3    H268744   5.891   0.853   6.187  0.5622  0.7521  0.6394
15777TIP3   OH268745   2.144   0.500   2.030 -0.2430  0.0038  0.0662
15777TIP3    H168746   2.071   0.478   1.972 -0.8800 -0.5239  1.0388
15777TIP3    H268747   2.137   0.438   2.102  0.2271  0.9481  0.9634
15778TIP3   OH268748   1.313   3.391  13.542  0.3895  0.7492 -0.4165
15778TIP3    H168749   1.233   3.374  13.493 -0.5081  0.2053  1.1965
15778TIP3    H268750   1.306   3.483  13.568 -0.3930  0.3526  0.8682
15779TIP3   OH268751   2.837   3.478  15.297  0.2291 -0.7459  0.0735
15779TIP3    H168752   2.897   3.435  15.358 -0.2109 -0.4765  0.6971
15779TIP3    H268753   2.874   3.565  15.284  0.1888 -0.7165  0.1531
15780TIP3   OH268754   5.589   6.269  15.531  0.5492 -0.2773 -0.3132
15780TIP3    H168755   5.619   6.338  15.589  0.2285 -0.3751 -0.0288
15780TIP3    H268756   5.504   6.242  15.567  1.1925 -1.6304  0.2722
15781TIP3   OH268757   2.226   5.929  16.703  0.0780  0.1662 -0.2672
15781TIP3    H168758   2.268   5.970  16.778 -0.4107 -2.2234  1.4275
15781TIP3    H268759   2.143   5.976  16.694 -0.0937  0.1601  1.0473
15782TIP3   OH268760   2.120   2.723  16.045 -0.7986  0.0237  0.0810
15782TIP3    H168761   2.079   2.664  15.982 -0.0485  0.7982 -1.1911
15782TIP3    H268762   2.143   2.800  15.993  1.4613 -0.0216  0.9092
15783TIP3   OH268763   1.924   2.378   5.555  0.1434 -0.0284  0.1386
15783TIP3    H168764   1.923   2.449   5.618  0.0599  0.6284 -0.5904
15783TIP3    H268765   1.985   2.407   5.487  0.6303 -0.9461  0.1651
15784TIP3   OH268766   1.460   4.357  17.098 -0.3162  0.2706  0.2758
15784TIP3    H168767   1.404   4.354  17.021  0.2287  1.1825 -0.1749
15784TIP3    H268768   1.543   4.320  17.069 -0.2710  0.1304  0.5775
15785TIP3   OH268769   4.929   4.216  12.408  1.1850  0.2757  0.1198
15785TIP3    H168770   4.933   4.187  12.317 -0.2291  2.5215 -0.7371
15785TIP3    H268771   4.960   4.141  12.459  1.9399 -1.0572 -2.1885
15786TIP3   OH268772   3.749   3.140   5.911  0.3434  0.6213 -0.0212
15786TIP3    H168773   3.706   3.224   5.896  1.2860  1.0346 -0.5219
15786TIP3    H268774   3.694   3.096   5.977 -0.3466  1.4796 -0.0054
15787TIP3   OH268775   6.511   4.410   3.624 -0.0931  0.2865 -0.1341
15787TIP3    H168776   6.434   4.389   3.677 -0.6756  0.8386 -0.7377
15787TIP3    H268777   6.514   4.341   3.558  0.2873 -0.0694  0.2485
15788TIP3   OH268778   6.617   5.392   0.919 -0.2995  0.7753  0.5107
15788TIP3    H168779   6.643   5.421   0.831 -0.3794 -0.1523  0.1727
15788TIP3    H268780   6.632   5.298   0.919  0.3758  0.8637  1.7440
15789TIP3   OH268781   0.471   4.953  15.638  0.0993  0.7614 -0.2934
15789TIP3    H168782   0.470   5.021  15.571 -1.0446 -0.0082 -1.1191
15789TIP3    H268783   0.493   4.998  15.719  1.1742  1.7763 -1.1296
15790TIP3   OH268784   5.788   0.495   5.352  0.2261 -0.0505  0.4504
15790TIP3    H168785   5.851   0.567   5.345 -0.0860  0.2760  0.9099
15790TIP3    H268786   5.716   0.521   5.294 -1.5633  1.8146  3.2284
15791TIP3   OH268787   2.853   6.033  16.414 -0.0333 -0.7844 -0.0228
15791TIP3    H168788   2.923   6.098  16.409 -0.6772 -0.0375  0.5140
15791TIP3    H268789   2.831   6.016  16.322  2.0167 -2.3539 -0.2901
15792TIP3   OH268790   6.141   1.690  14.506 -0.5445 -0.3406 -0.3009
15792TIP3    H168791   6.070   1.649  14.555 -0.2962  0.4600  0.7687
15792TIP3    H268792   6.097   1.754  14.449 -0.9960 -2.4270 -2.4551
15793TIP3   OH268793   2.856   4.133   4.233  0.5493 -0.5572 -0.6354
15793TIP3    H168794   2.814   4.070   4.175  0.9941 -0.8858 -0.6028
15793TIP3    H268795   2.827   4.107   4.321 -0.7327  0.3932 -0.7386
15794TIP3   OH268796   2.278   0.097   3.249 -0.2764 -0.2888 -0.3212
15794TIP3    H168797   2.263   0.009   3.284  1.5337 -0.1340  1.0019
15794TIP3    H268798   2.312   0.083   3.161 -0.4887 -0.8861 -0.3115
15795TIP3   OH268799   4.079   2.034   3.816  0.0245 -0.0740  0.0404
15795TIP3    H168800   4.084   2.050   3.721  0.8872 -0.8228 -0.0576
15795TIP3    H268801   4.002   2.083   3.845  0.3864  1.0711 -0.8652
15796TIP3   OH268802   4.566   2.558   3.800 -0.1390 -0.4465  0.0229
15796TIP3    H168803   4.546   2.574   3.708  0.0579 -0.2894  0.0061
15796TIP3    H268804   4.650   2.513   3.799  0.8835  1.3477  0.1978
15797TIP3   OH268805   4.041   5.249   1.022 -0.1367 -0.3067 -0.2429
15797TIP3    H168806   4.063   5.235   0.930  1.3162 -0.5778  0.1142
15797TIP3    H268807   4.125   5.248   1.067 -0.8541 -0.6750  1.1583
15798TIP3   OH268808   4.781   5.354   2.820  0.4312  0.1210  0.0949
15798TIP3    H168809   4.877   5.350   2.830  0.8635 -2.0942 -3.2367
15798TIP3    H268810   4.748   5.284   2.875  1.0231 -0.6814 -0.5381
15799TIP3   OH268811   4.870   1.510   0.858  0.1613 -0.0205  0.0243
15799TIP3    H168812   4.855   1.573   0.929  2.5419 -1.0429  1.5952
15799TIP3    H268813   4.871   1.563   0.778  1.6107  1.9172  1.2385
15800TIP3   OH268814   2.969   6.226   4.158 -0.3650  0.0040 -0.4543
15800TIP3    H168815   2.996   6.152   4.212 -2.2113 -0.3684  0.0246
15800TIP3    H268816   2.989   6.200   4.069  0.2107 -0.5052 -0.1824
15801TIP3   OH268817   2.807   4.656   1.440 -0.1969 -0.4118  0.2443
15801TIP3    H168818   2.714   4.674   1.425 -0.1380 -0.3592 -0.0823
15801TIP3    H268819   2.852   4.736   1.411 -0.1057 -0.1028  1.2187
15802TIP3   OH268820   1.023   3.544   5.793 -0.3565 -0.8275 -0.2846
15802TIP3    H168821   1.094   3.511   5.738  0.9474  1.9524 -0.4115
15802TIP3    H268822   1.052   3.528   5.882  1.4670  1.9504 -0.2585
15803TIP3   OH268823   3.926   3.940   4.229 -0.7166  0.0148  0.3710
15803TIP3    H168824   4.000   3.989   4.193 -0.5619 -1.5736 -1.6066
15803TIP3    H268825   3.887   4.001   4.292  1.2598  1.5201  0.2804
15804TIP3   OH268826   0.768   4.401  12.717  0.2111 -0.3551 -0.0508
15804TIP3    H168827   0.728   4.486  12.732  0.6842  0.1193 -1.3016
15804TIP3    H268828   0.711   4.338  12.762 -0.8983  0.4818 -0.2670
15805TIP3   OH268829   1.322   4.976   5.051 -0.0850 -0.0210  0.1169
15805TIP3    H168830   1.337   5.064   5.017  0.0629 -0.9029 -2.2460
15805TIP3    H268831   1.247   4.943   5.001 -1.1575 -0.7166  2.0600
15806TIP3   OH268832   1.867   1.387  10.258  0.1110 -0.2367  0.5301
15806TIP3    H168833   1.932   1.349  10.318  1.9549  2.4543  0.4043
15806TIP3    H268834   1.820   1.451  10.312 -1.3231 -0.9390  0.1652
15807TIP3   OH268835   0.595   2.594   1.677 -0.1123  0.2947  0.6409
15807TIP3    H168836   0.550   2.648   1.742 -0.6951 -1.7694  2.0486
15807TIP3    H268837   0.534   2.589   1.603  0.8588  3.2680 -0.4996
15808TIP3   OH268838   0.895   1.256   3.109  0.3167 -0.1115 -0.2298
15808TIP3    H168839   0.928   1.234   3.022 -0.3419 -0.3203 -0.4333
15808TIP3    H268840   0.800   1.262   3.098  0.3056  0.7742  0.2769
15809TIP3   OH268841   5.268   0.350   0.865  0.2365  0.0499  0.0838
15809TIP3    H168842   5.241   0.304   0.945  0.0508  0.7485  0.4257
15809TIP3    H268843   5.305   0.432   0.895 -0.3595  0.5744 -0.5741
15810TIP3   OH268844   2.662   3.311   3.077 -0.6446  0.4336 -0.2637
15810TIP3    H168845   2.738   3.272   3.034 -0.5074 -0.7631  0.9968
15810TIP3    H268846   2.605   3.236   3.096 -1.9509  1.2570 -0.7964
15811TIP3   OH268847   3.628   1.652  13.592  0.1468  0.4260  0.2303
15811TIP3    H168848   3.678   1.618  13.667  2.1914  1.7049 -0.4671
15811TIP3    H268849   3.597   1.574  13.546  1.2715 -0.4274  0.8755
15812TIP3   OH268850   1.590   3.555   5.175 -0.2783  0.3795  0.3284
15812TIP3    H168851   1.670   3.503   5.170 -0.7687 -0.2730 -1.4752
15812TIP3    H268852   1.612   3.638   5.133 -0.3669  0.4227  0.3664
15813TIP3   OH268853   4.808   1.457   3.312  0.1821  0.3455 -0.1139
15813TIP3    H168854   4.826   1.467   3.218 -0.3412  1.3195 -0.1267
15813TIP3    H268855   4.718   1.426   3.316  0.2162  0.2670  0.0655
15814TIP3   OH268856   0.623   0.540  16.374 -0.0964 -0.5160 -0.3319
15814TIP3    H168857   0.707   0.563  16.415  0.8125 -0.9252 -1.8828
15814TIP3    H268858   0.566   0.519  16.447  1.1852 -0.3024  0.7749
15815TIP3   OH268859   4.057   0.760   2.382 -0.1981 -0.2157  0.4798
15815TIP3    H168860   4.013   0.683   2.418  0.4430 -0.3012  1.1068
15815TIP3    H268861   4.017   0.834   2.427  0.5302 -0.3162  1.3343
15816TIP3   OH268862   3.489   5.795  11.156  0.1057 -0.1402  0.0436
15816TIP3    H168863   3.568   5.818  11.106  0.7252 -1.6302  0.2893
15816TIP3    H268864   3.468   5.874  11.205  0.5661  0.7650 -1.1609
15817TIP3   OH268865   0.170   0.768  16.385  0.0485  0.1810  0.2687
15817TIP3    H168866   0.265   0.767  16.386  0.0718  0.0759  2.8715
15817TIP3    H268867   0.145   0.679  16.409 -0.8127 -0.5095 -2.7604
15818TIP3   OH268868   0.155   4.410   6.658  0.2843  0.4589  0.3521
15818TIP3    H168869   0.078   4.467   6.663  0.6664  0.9382  0.9847
15818TIP3    H268870   0.121   4.326   6.628 -0.6013  0.4628  1.2780
15819TIP3   OH268871   3.128   0.779   0.370  0.1895  1.2391  0.0895
15819TIP3    H168872   3.159   0.720   0.302 -1.2213  0.6839 -0.1057
15819TIP3    H268873   3.203   0.835   0.389  0.7404  1.1350 -1.6135
15820TIP3   OH268874   0.914   3.475  11.534 -0.0810 -0.1646  0.2745
15820TIP3    H168875   1.004   3.448  11.517  0.6960  3.6570 -3.3706
15820TIP3    H268876   0.920   3.530  11.612  0.2313 -1.6804  1.3637
15821TIP3   OH268877   0.402   2.895   4.107 -0.3764 -0.1509  0.1773
15821TIP3    H168878   0.437   2.825   4.051 -2.3256 -0.6887 -0.4781
15821TIP3    H268879   0.312   2.907   4.076 -0.9338  0.8305  2.0200
15822TIP3   OH268880   6.524   6.515   5.529  0.0140  0.0389 -0.2708
15822TIP3    H168881   6.448   6.563   5.564 -0.1096  0.3363 -0.9269
15822TIP3    H268882   6.571   6.581   5.478  0.1900 -0.3888 -0.6583
15823TIP3   OH268883   5.088   0.547   1.706  0.4190 -0.0552  0.1131
15823TIP3    H168884   5.149   0.520   1.638 -0.3528  1.8210 -1.4304
15823TIP3    H268885   5.061   0.636   1.680  1.0593  1.3099  3.5236
15824TIP3   OH268886   4.015   1.921   0.692 -1.0383 -0.8276  0.1507
15824TIP3    H168887   4.087   1.919   0.755 -0.4853 -0.0002 -0.4376
15824TIP3    H268888   3.964   1.998   0.715 -2.3121 -1.9145  1.1512
15825TIP3   OH268889   1.138   2.125  15.948  0.5682 -0.5467  0.0851
15825TIP3    H168890   1.170   2.087  15.867 -0.6628  0.9468 -1.1702
15825TIP3    H268891   1.062   2.072  15.971  1.4003 -1.4859  0.7594
15826TIP3   OH268892   3.594   5.065   3.236 -0.3193  0.1687 -0.6172
15826TIP3    H168893   3.586   5.112   3.319 -1.2918 -0.7379 -0.1786
15826TIP3    H268894   3.677   5.096   3.200  0.0688  0.6751  0.6312
15827TIP3   OH268895   0.801   1.036   6.197  0.2758  0.3169 -0.3209
15827TIP3    H168896   0.726   1.085   6.163  1.1881  1.7385 -0.3802
15827TIP3    H268897   0.862   1.103   6.229  1.2375 -0.8186  0.3502
15828TIP3   OH268898   4.135   1.648   1.079 -0.0205  0.2175 -0.3968
15828TIP3    H168899   4.051   1.630   1.121 -0.3920  0.3838 -1.0484
15828TIP3    H268900   4.128   1.606   0.993  0.7212 -0.1201 -0.3013
15829TIP3   OH268901   0.904   2.442   1.252 -0.1846  0.1304  0.5468
15829TIP3    H168902   0.832   2.437   1.314 -0.7694 -2.2600 -0.2346
15829TIP3    H268903   0.981   2.412   1.301 -0.3660 -0.4006  0.5096
15830TIP3   OH268904   4.299   2.225   5.446 -0.3803 -0.8191  0.3331
15830TIP3    H168905   4.227   2.236   5.508 -0.1038 -1.1309  0.7117
15830TIP3    H268906   4.378   2.229   5.499 -0.1570 -1.6423  0.0874
15831TIP3   OH268907   0.638   0.060   0.150  0.2811 -0.0748 -0.3390
15831TIP3    H168908   0.565   0.005   0.122 -0.2193  0.5125 -0.2271
15831TIP3    H268909   0.674   0.016   0.227  0.1023 -0.4159 -0.4483
15832TIP3   OH268910   3.388   6.535   3.709  0.1929  0.4789  0.2168
15832TIP3    H168911   3.462   6.506   3.763  0.3483 -0.2875 -0.3961
15832TIP3    H268912   3.397   6.631   3.707  1.3068  0.3822 -0.0458
15833TIP3   OH268913   0.332   4.583   6.422 -0.2625  0.3458  0.3477
15833TIP3    H168914   0.371   4.552   6.341 -1.5036  0.8651 -0.4822
15833TIP3    H268915   0.281   4.508   6.455 -1.0520  0.6196 -0.2168
15834TIP3   OH268916   4.246   3.399  14.618 -0.2059  0.3791  0.6482
15834TIP3    H168917   4.151   3.405  14.611 -0.4658 -2.3586  0.6341
15834TIP3    H268918   4.279   3.436  14.537 -1.4368 -1.0504 -0.5625
15835TIP3   OH268919   0.730   1.895  11.580 -0.8676 -0.6215 -0.0046
15835TIP3    H168920   0.717   1.923  11.489 -0.6037 -0.0332  0.1367
15835TIP3    H268921   0.665   1.945  11.629 -0.5520 -0.4396  0.2219
15836TIP3   OH268922   6.666   3.758   5.053 -0.1289 -0.2088 -0.2732
15836TIP3    H168923   6.614   3.823   5.006  0.3727 -0.2778 -0.9357
15836TIP3    H268924   6.730   3.809   5.103 -0.4764 -0.1494  0.1215
15837TIP3   OH268925   0.396   0.429   0.074 -0.2896  0.2902  0.4535
15837TIP3    H168926   0.317   0.427   0.129  0.2923  0.8623  1.3230
15837TIP3    H268927   0.362   0.432  -0.016 -1.2554  0.4358  0.8103
15838TIP3   OH268928   4.794   0.220   0.859 -0.3144 -0.3500 -0.3684
15838TIP3    H168929   4.788   0.251   0.950  1.5044  0.3936 -0.4599
15838TIP3    H268930   4.728   0.151   0.853 -2.1201  1.1482  0.8528
15839TIP3   OH268931   0.440   0.682   2.818  0.4916 -0.0660 -0.0935
15839TIP3    H168932   0.399   0.596   2.829 -0.5096  0.1819 -1.6431
15839TIP3    H268933   0.495   0.673   2.741  0.7784  0.5491  0.0348
15840TIP3   OH268934   4.150   6.387   5.120 -0.2923  0.1604  0.3581
15840TIP3    H168935   4.060   6.365   5.092 -0.8459  2.1722  0.4053
15840TIP3    H268936   4.199   6.392   5.038 -0.6154  0.6295  0.1880
15841TIP3   OH268937   5.344   2.359  10.954  0.0638  0.9744  0.3898
15841TIP3    H168938   5.264   2.373  10.904 -0.6825 -1.5778  0.7370
15841TIP3    H268939   5.391   2.291  10.906  0.5498  0.2888  1.7772
15842TIP3   OH268940   3.427   6.279   0.027 -0.6222 -0.4194  0.1991
15842TIP3    H168941   3.450   6.189   0.051  0.1838  0.1697  1.8753
15842TIP3    H268942   3.331   6.280   0.026 -0.6712 -0.9897  1.6014
15843TIP3   OH268943   2.668   3.735   0.991  0.6763 -0.0354  0.5244
15843TIP3    H168944   2.586   3.725   0.943  0.2112  0.8851  1.1176
15843TIP3    H268945   2.736   3.719   0.925  0.0334 -1.0353  0.0812
15844TIP3   OH268946   4.959   1.271  16.223  0.9440  0.0875  0.2672
15844TIP3    H168947   4.990   1.181  16.234  0.1932 -0.0635  1.2849
15844TIP3    H268948   4.882   1.277  16.279  0.1730  0.9782 -0.8314
15845TIP3   OH268949   1.334   4.955   1.012  0.4394 -0.6169  0.3204
15845TIP3    H168950   1.260   5.014   1.025  0.1975  0.2359 -3.5442
15845TIP3    H268951   1.306   4.873   1.053 -0.2906  1.1218  3.5920
15846TIP3   OH268952   1.767   1.390   5.476  0.4292  0.2662  0.1267
15846TIP3    H168953   1.817   1.455   5.426 -0.8338  0.4230 -1.0160
15846TIP3    H268954   1.825   1.364   5.547  1.0284  2.5559  0.5702
15847TIP3   OH268955   6.526   4.738   5.894 -0.5365 -0.0231 -0.1025
15847TIP3    H168956   6.560   4.650   5.879 -1.0831 -0.0371 -1.3991
15847TIP3    H268957   6.589   4.778   5.953 -1.4346 -2.0119  2.4415
15848TIP3   OH268958   1.692   5.311  15.222  0.1612 -0.9681 -0.1914
15848TIP3    H168959   1.684   5.224  15.261  0.3591 -0.9548 -0.1191
15848TIP3    H268960   1.602   5.342  15.213  0.1335 -0.7000  0.8667
15849TIP3   OH268961   3.757   4.283  14.547  0.1655 -0.2345 -0.3856
15849TIP3    H168962   3.671   4.298  14.509 -0.6681 -1.8352  0.7145
15849TIP3    H268963   3.738   4.254  14.637  2.0062  3.1672  1.2710
15850TIP3   OH268964   1.141   2.722   3.887 -0.4210  0.3248  0.2102
15850TIP3    H168965   1.235   2.735   3.895 -0.3065 -0.2635 -0.1507
15850TIP3    H268966   1.128   2.629   3.905 -0.5295 -0.3868 -2.9677
15851TIP3   OH268967   3.259   1.903   3.956  0.3357  0.9402 -0.2280
15851TIP3    H168968   3.307   1.860   3.885 -1.2559  1.1054 -1.4361
15851TIP3    H268969   3.310   1.982   3.974  1.5938  0.1298 -0.1109
15852TIP3   OH268970   4.336   2.010   2.012 -0.3811  0.2761 -0.1154
15852TIP3    H168971   4.407   2.072   1.995  0.4528 -0.5585  0.2204
15852TIP3    H268972   4.307   1.983   1.924  0.7788 -0.5368 -0.2751
15853TIP3   OH268973   3.858   4.559  17.180 -0.0793  0.0661 -0.0980
15853TIP3    H168974   3.821   4.641  17.215 -0.7265  0.0895 -0.8257
15853TIP3    H268975   3.810   4.543  17.099  0.0037 -1.0746  0.0626
15854TIP3   OH268976   3.287   0.964   0.540 -0.4728 -0.1346  0.2282
15854TIP3    H168977   3.281   0.960   0.636  0.3704  0.5316  0.3215
15854TIP3    H268978   3.248   1.048   0.517  1.3529  0.7643  0.2082
15855TIP3   OH268979   4.103   5.125  11.647 -0.0647  0.1489  0.0942
15855TIP3    H168980   4.035   5.191  11.659  0.7032  0.7969  1.0044
15855TIP3    H268981   4.108   5.114  11.552 -2.5379 -1.1250  0.0166
15856TIP3   OH268982   1.069   6.343  15.814  0.2383 -0.4493  0.1993
15856TIP3    H168983   1.145   6.298  15.779 -0.1426 -1.2097  0.3386
15856TIP3    H268984   1.071   6.430  15.773  0.9623 -0.5961 -0.0820
15857TIP3   OH268985   5.087   2.941  17.181 -0.2377  0.7135  0.3842
15857TIP3    H168986   4.995   2.960  17.202 -1.0034 -1.7006 -0.4184
15857TIP3    H268987   5.082   2.877  17.110  2.0776 -0.0448  0.8362
15858TIP3   OH268988   6.637   1.576   3.622 -0.2959 -0.1307  0.0919
15858TIP3    H168989   6.635   1.642   3.691 -0.1962  0.8361 -0.8021
15858TIP3    H268990   6.561   1.520   3.639 -0.6177  0.4697  0.6252
15859TIP3   OH268991   3.381   1.162  13.137 -0.2545 -0.0664  0.0401
15859TIP3    H168992   3.400   1.077  13.099 -1.1871 -0.1217 -0.3320
15859TIP3    H268993   3.374   1.221  13.061 -1.0021  0.0508  0.1938
15860TIP3   OH268994   5.516   5.494  14.778  0.5506 -0.2789  0.0191
15860TIP3    H168995   5.516   5.452  14.864 -0.9850  0.4711  0.4150
15860TIP3    H268996   5.473   5.431  14.721  1.6679 -0.8237 -0.2525
15861TIP3   OH268997   6.557   1.376   1.204  0.5059  0.0536 -0.1023
15861TIP3    H168998   6.543   1.424   1.286 -2.2064  0.5196 -0.7471
15861TIP3    H268999   6.652   1.366   1.198  1.0308  3.1075  1.3481
15862TIP3   OH269000   2.422   0.292   0.513 -0.4256 -0.2142 -0.5775
15862TIP3    H169001   2.365   0.310   0.587 -0.3732  0.3454 -0.6696
15862TIP3    H269002   2.368   0.310   0.436 -0.3308 -0.3385 -0.6750
15863TIP3   OH269003   1.909   5.135  16.014  0.0742 -0.5811 -0.6073
15863TIP3    H169004   1.854   5.212  16.026  0.5785 -0.0445 -1.6525
15863TIP3    H269005   1.900   5.086  16.096 -1.6536 -0.3269 -0.6095
15864TIP3   OH269006   2.122   2.059  13.267  0.3784 -0.0681 -0.3214
15864TIP3    H169007   2.134   1.985  13.208 -0.7808  0.7157 -1.5890
15864TIP3    H269008   2.210   2.098  13.274  0.2512  0.8908 -3.0380
15865TIP3   OH269009   5.758   2.452  10.515  0.0280 -0.6492 -0.8909
15865TIP3    H169010   5.808   2.371  10.522 -2.3703 -2.2387 -0.8062
15865TIP3    H269011   5.674   2.432  10.558 -0.3268  2.1869 -0.0496
15866TIP3   OH269012   6.514   4.375  17.160  0.5380 -0.2742  0.1250
15866TIP3    H169013   6.509   4.326  17.242  0.9906  1.3021  1.1359
15866TIP3    H269014   6.423   4.402  17.143  0.2940 -1.4012 -0.4200
15867TIP3   OH269015   6.324   1.428   2.715  0.2434  0.6097  0.6062
15867TIP3    H169016   6.296   1.475   2.637 -2.2652  0.3617  1.2731
15867TIP3    H269017   6.348   1.341   2.682 -0.1775  0.7089  0.0069
15868TIP3   OH269018   4.011   5.751  13.280  0.3241 -0.0817 -0.8235
15868TIP3    H169019   4.054   5.672  13.313  0.3181  0.0109 -0.5913
15868TIP3    H269020   3.929   5.719  13.243 -1.5856  0.1669  2.6783
15869TIP3   OH269021   3.087   0.930   3.183  0.5030 -0.0717 -0.1170
15869TIP3    H169022   3.005   0.965   3.148  0.6730  1.0505  0.5480
15869TIP3    H269023   3.060   0.876   3.257  0.3588  0.2671  0.0803
15870TIP3   OH269024   5.825   5.492   0.050  0.0705  0.4389 -0.7446
15870TIP3    H169025   5.748   5.514   0.103 -0.4034  1.6019 -1.8752
15870TIP3    H269026   5.889   5.560   0.070  0.2540  0.3234 -0.9318
15871TIP3   OH269027   0.222   5.373  15.645  0.3438  0.2040  0.4234
15871TIP3    H169028   0.139   5.380  15.691 -0.0220 -1.4162  0.0709
15871TIP3    H269029   0.289   5.375  15.714 -0.0504  0.3501  0.8002
15872TIP3   OH269030   1.574   4.921  11.637 -0.3772 -0.1560  0.5562
15872TIP3    H169031   1.541   4.937  11.549  0.1414 -2.1802 -0.0711
15872TIP3    H269032   1.503   4.875  11.682  0.1535 -1.0839  0.4634
15873TIP3   OH269033   3.846   3.597  13.116 -0.9504  0.3353 -0.0591
15873TIP3    H169034   3.764   3.645  13.110 -0.4121  1.4230  0.8283
15873TIP3    H269035   3.904   3.656  13.164  0.3160 -0.4557 -0.5727
15874TIP3   OH269036   0.879   4.999   5.987 -0.1480 -0.8965 -0.2868
15874TIP3    H169037   0.969   5.016   6.015 -0.3371 -2.0460  1.1635
15874TIP3    H269038   0.844   5.085   5.964  0.9618 -0.2840  0.2409
15875TIP3   OH269039   2.703   1.588  17.187  0.2800  0.4776 -0.3338
15875TIP3    H169040   2.753   1.597  17.268  0.4893 -2.9210  0.0706
15875TIP3    H269041   2.744   1.649  17.126  2.7794  0.2155  0.9505
15876TIP3   OH269042   2.732   4.739  16.851 -0.1489  0.0825 -0.3143
15876TIP3    H169043   2.757   4.733  16.943 -0.7495 -0.2542 -0.1670
15876TIP3    H269044   2.648   4.784  16.852  0.4171  1.1962 -0.8020
15877TIP3   OH269045   3.209   0.316  16.857 -0.1125 -0.5271  0.5365
15877TIP3    H169046   3.276   0.367  16.813 -1.3154 -0.8271 -1.8164
15877TIP3    H269047   3.257   0.251  16.908  1.3997  1.7589  2.2218
15878TIP3   OH269048   0.443   3.981  12.171  0.3836 -0.5340 -0.1268
15878TIP3    H169049   0.512   3.923  12.203 -0.2425 -0.8806  0.6278
15878TIP3    H269050   0.425   4.039  12.245 -0.0909 -0.4065 -0.3385
15879TIP3   OH269051   1.056   0.240   4.613  0.0476 -0.0592  0.0539
15879TIP3    H169052   1.028   0.286   4.692 -0.1113  2.3234 -1.2862
15879TIP3    H269053   1.083   0.153   4.643  0.0699  0.7926  2.7102
15880TIP3   OH269054   3.577   5.048   4.538  0.2120  0.3377 -0.5179
15880TIP3    H169055   3.658   5.003   4.563  0.6064  1.0551 -0.4987
15880TIP3    H269056   3.579   5.052   4.443  0.4103  0.7426 -0.4972
15881TIP3   OH269057   2.742   0.586   3.616 -0.3033  0.4811 -0.5134
15881TIP3    H169058   2.829   0.549   3.635 -1.0408 -0.4316  1.3271
15881TIP3    H269059   2.687   0.510   3.599 -1.3372  0.8510  1.0359
15882TIP3   OH269060   2.941   3.272  17.140 -0.5360 -0.0852 -0.1220
15882TIP3    H169061   2.902   3.199  17.093  0.8768 -0.2350 -1.1206
15882TIP3    H269062   2.985   3.232  17.215 -0.8248 -0.0999  0.0442
15883TIP3   OH269063   4.352   3.428   0.545  0.0945  0.3397 -0.1684
15883TIP3    H169064   4.410   3.377   0.601  0.0611 -0.3089 -0.7025
15883TIP3    H269065   4.409   3.490   0.501 -0.0338  1.5988  1.3739
15884TIP3   OH269066   5.953   4.507   2.266 -0.1119 -0.0552  0.0359
15884TIP3    H169067   5.912   4.479   2.348 -0.9972  0.4976 -0.2059
15884TIP3    H269068   5.981   4.426   2.224 -0.5536 -0.4085  0.4177
15885TIP3   OH269069   6.411   4.916  15.937  0.0300 -0.1584 -0.5000
15885TIP3    H169070   6.392   4.997  15.890 -1.7425 -1.2194 -1.7072
15885TIP3    H269071   6.463   4.864  15.875  1.2000  0.0338  0.2861
15886TIP3   OH269072   0.500   4.271   5.494  0.0338  0.5474 -0.1826
15886TIP3    H169073   0.534   4.266   5.405  0.0455 -0.5156 -0.1212
15886TIP3    H269074   0.577   4.290   5.548  0.6156 -1.9989 -0.0251
15887TIP3   OH269075   4.623   1.217  15.886  0.0133  0.4299 -0.2592
15887TIP3    H169076   4.595   1.148  15.947  1.0761 -1.2089 -1.5244
15887TIP3    H269077   4.584   1.191  15.802  2.5754 -0.1909 -1.3550
15888TIP3   OH269078   6.737   5.601   4.583  0.7761  0.2633 -0.0326
15888TIP3    H169079   6.699   5.594   4.495 -1.5664  1.6534  0.7522
15888TIP3    H269080   6.787   5.521   4.594 -1.8705 -1.7473 -1.3092
15889TIP3   OH269081   5.696   4.695   1.139 -0.1417  0.3766 -0.9191
15889TIP3    H169082   5.632   4.707   1.069 -0.1131  0.5357 -0.9184
15889TIP3    H269083   5.742   4.614   1.117 -1.1377 -0.3767 -0.3024
15890TIP3   OH269084   1.350   3.992  13.309  0.7866  0.1625  0.1116
15890TIP3    H169085   1.257   3.973  13.298  0.9675  0.2222 -1.7912
15890TIP3    H269086   1.386   3.990  13.220  2.7534 -0.5860  0.8620
15891TIP3   OH269087   5.381   3.412  13.578 -0.0366  0.4293 -0.3505
15891TIP3    H169088   5.408   3.370  13.660 -0.7351  0.6773  0.0126
15891TIP3    H269089   5.447   3.481  13.564 -0.6917  1.3300  0.7745
15892TIP3   OH269090   0.054   2.185   2.435  0.1585 -0.8719  0.0150
15892TIP3    H169091   0.026   2.161   2.523  0.0565 -1.9710 -0.3075
15892TIP3    H269092   0.097   2.107   2.401 -0.2221 -0.6242 -1.0834
15893TIP3   OH269093   3.863   3.985   1.184  0.1315  0.5401 -0.4956
15893TIP3    H169094   3.781   4.015   1.224 -0.3620 -1.8370  0.4783
15893TIP3    H269095   3.923   3.976   1.258 -0.3635 -2.5674 -0.3172
15894TIP3   OH269096   0.680   4.403  13.025  0.2179  0.0689  0.0684
15894TIP3    H169097   0.774   4.407  13.008  0.5000 -1.5133  1.0306
15894TIP3    H269098   0.665   4.467  13.094  0.3473  1.2204 -0.9416
15895TIP3   OH269099   1.124   1.082  14.429 -0.3575  0.4015 -0.3955
15895TIP3    H169100   1.089   1.131  14.503  0.6425  1.1045 -0.3647
15895TIP3    H269101   1.147   1.148  14.364 -0.3061 -0.1326 -0.9396
15896TIP3   OH269102   3.365   1.591  12.296  0.2540 -0.4301 -0.0903
15896TIP3    H169103   3.381   1.633  12.381  1.1266 -0.8203 -0.0504
15896TIP3    H269104   3.334   1.662  12.240 -1.2820 -0.3386  0.7944
15897TIP3   OH269105   5.365   0.827   0.474  0.2092 -0.4265 -0.1903
15897TIP3    H169106   5.319   0.767   0.533 -1.3760  0.4391 -0.4990
15897TIP3    H269107   5.436   0.864   0.528 -0.0299 -1.0790  0.5816
15898TIP3   OH269108   1.687   2.055  14.654 -0.3443  0.2841  0.4696
15898TIP3    H169109   1.659   2.143  14.679 -0.3080  0.4792 -0.1625
15898TIP3    H269110   1.771   2.069  14.610 -0.7913  0.0252 -0.4678
15899TIP3   OH269111   0.773   5.907   3.824 -0.4856 -0.3212 -0.9071
15899TIP3    H169112   0.686   5.932   3.795 -0.7065 -0.3279 -0.2663
15899TIP3    H269113   0.767   5.813   3.842 -0.2052 -0.4275 -1.3627
15900TIP3   OH269114   2.087   1.658  15.701 -0.0811 -0.1986  0.4337
15900TIP3    H169115   2.136   1.729  15.743 -2.6239  0.4348  2.6121
15900TIP3    H269116   2.146   1.583  15.705  1.6024  1.0664  0.7033
15901TIP3   OH269117   4.209   3.108  15.005  0.0886  0.0695  0.3028
15901TIP3    H169118   4.226   3.052  14.930 -1.4920  1.2720 -1.0234
15901TIP3    H269119   4.202   3.048  15.079  3.2464 -1.0321 -0.1374
15902TIP3   OH269120   0.262   0.679  16.882  0.8237 -0.4024 -0.3464
15902TIP3    H169121   0.175   0.647  16.858  0.1926  0.5985  0.4942
15902TIP3    H269122   0.298   0.717  16.802 -0.4115  1.0857 -0.2499
15903TIP3   OH269123   0.726   4.176  12.381 -0.5417  0.3499  0.2675
15903TIP3    H169124   0.753   4.085  12.376 -2.7790 -0.3524 -0.0564
15903TIP3    H269125   0.807   4.224  12.398  0.7273 -1.6462  0.1826
15904TIP3   OH269126   4.039   2.510   5.881  0.5649 -0.5737  0.1292
15904TIP3    H169127   4.045   2.579   5.815 -1.7060 -0.9327 -0.5526
15904TIP3    H269128   3.983   2.547   5.950 -1.0265 -1.7959 -0.4330
15905TIP3   OH269129   2.806   3.556   2.589  0.7478  0.1384  0.3761
15905TIP3    H169130   2.843   3.539   2.502 -3.1834 -1.9135 -1.1282
15905TIP3    H269131   2.785   3.649   2.589  0.7541  0.1496 -0.8979
15906TIP3   OH269132   2.134   0.584  11.768 -0.2412  0.1344 -0.4238
15906TIP3    H169133   2.081   0.579  11.848 -0.5734  0.4094 -0.6222
15906TIP3    H269134   2.224   0.574  11.798 -0.3802  0.0099 -0.0393
15907TIP3   OH269135   4.965   6.327  16.995 -0.2002 -0.3947 -0.1359
15907TIP3    H169136   4.989   6.385  16.923  0.6293 -1.4609 -0.7464
15907TIP3    H269137   5.041   6.327  17.053 -1.0714  0.9014  1.0834
15908TIP3   OH269138   1.635   4.694  16.477 -0.2725  0.0387  0.3508
15908TIP3    H169139   1.545   4.684  16.447 -0.4034  0.5561  0.5642
15908TIP3    H269140   1.666   4.604  16.490 -0.8681 -0.1303  0.6142
15909TIP3   OH269141   2.487   6.356  13.216  0.0322 -0.3116 -0.7702
15909TIP3    H169142   2.392   6.351  13.212 -0.1611  0.2924  1.5474
15909TIP3    H269143   2.510   6.433  13.164 -0.7667 -0.2397 -1.0188
15910TIP3   OH269144   1.916   1.769   6.099 -1.2119  0.0232 -0.1024
15910TIP3    H169145   1.845   1.816   6.142 -0.5253 -0.8002  2.0963
15910TIP3    H269146   1.873   1.700   6.050 -2.0586  1.2699 -1.2006
15911TIP3   OH269147   2.572   1.843   1.683  0.5930 -0.3007 -0.4247
15911TIP3    H169148   2.613   1.882   1.606  2.5932 -0.2658  0.5878
15911TIP3    H269149   2.623   1.764   1.700  0.1021 -0.3801  0.7636
15912TIP3   OH269150   0.727   1.035   5.858 -0.0381  0.0272 -0.3715
15912TIP3    H169151   0.674   1.070   5.930  0.6081  0.7172 -0.2185
15912TIP3    H269152   0.817   1.057   5.882  0.3042 -0.8622 -0.7789
15913TIP3   OH269153   0.951   1.936   4.440 -0.0889  0.3884 -0.0930
15913TIP3    H169154   1.043   1.909   4.434  0.5961  2.6078 -0.6849
15913TIP3    H269155   0.936   1.951   4.534  0.8551  2.0561 -0.1678
15914TIP3   OH269156   2.600   0.530  14.093 -0.4550  0.1635  0.1108
15914TIP3    H169157   2.637   0.618  14.081 -0.2186  0.1215  0.5085
15914TIP3    H269158   2.523   0.529  14.037  1.2487 -0.4491 -2.4237
15915TIP3   OH269159   3.415   4.894  14.263 -0.1764  0.9583 -0.1749
15915TIP3    H169160   3.361   4.902  14.184  0.3729 -1.5844 -0.8851
15915TIP3    H269161   3.356   4.921  14.334 -1.5957  0.6358 -1.1740
15916TIP3   OH269162   6.217   3.967   1.275 -0.2188 -0.1207 -0.2903
15916TIP3    H169163   6.131   3.994   1.243 -0.0257  0.5411 -0.2809
15916TIP3    H269164   6.268   3.952   1.196 -0.0153  0.6115 -0.3122
15917TIP3   OH269165   3.709   3.694  12.133 -0.6745  0.0236  0.1696
15917TIP3    H169166   3.786   3.739  12.167 -1.1744 -0.2853  1.7689
15917TIP3    H269167   3.736   3.602  12.128 -0.3717  0.1544 -1.0133
15918TIP3   OH269168   3.743   6.087  16.884  0.4118  0.2909 -0.6065
15918TIP3    H169169   3.833   6.082  16.914  0.0666  0.8199  0.6151
15918TIP3    H269170   3.723   6.000  16.851 -0.2620 -1.6214  4.0996
15919TIP3   OH269171   0.240   0.270   0.630 -0.4508 -0.8485 -0.1706
15919TIP3    H169172   0.213   0.325   0.704 -1.6481 -1.0633 -0.4313
15919TIP3    H269173   0.302   0.208   0.668 -0.3988 -0.4121  0.4741
15920TIP3   OH269174   0.707   0.544  15.911 -0.0708  0.0958  0.4531
15920TIP3    H169175   0.643   0.532  15.981  1.1545 -4.6097  1.0579
15920TIP3    H269176   0.774   0.477  15.927  1.6628  0.5064 -3.7703
15921TIP3   OH269177   0.189   4.315  11.687 -0.8485  1.0057  0.3163
15921TIP3    H169178   0.154   4.281  11.768 -0.3399  0.6899  0.4096
15921TIP3    H269179   0.117   4.310  11.625 -0.8572 -0.0263  0.3914
15922TIP3   OH269180   1.509   6.230   3.989 -0.5684 -0.0923 -0.2085
15922TIP3    H169181   1.504   6.271   3.903 -0.0266 -1.0669 -0.7193
15922TIP3    H269182   1.500   6.303   4.051 -2.7415  0.4040 -1.0534
15923TIP3   OH269183   0.246   5.515   5.335  0.7066 -0.3650  0.3638
15923TIP3    H169184   0.293   5.440   5.372  0.1578  0.2072  2.3549
15923TIP3    H269185   0.154   5.487   5.335  0.8668 -1.1716 -2.7326
15924TIP3   OH269186   0.865   1.999  15.972  0.3563 -0.4018 -0.4686
15924TIP3    H169187   0.792   2.040  15.926  0.9949  0.2028 -0.9694
15924TIP3    H269188   0.844   2.007  16.065  0.3448  0.8406 -0.5652
15925TIP3   OH269189   6.442   0.372  13.704 -0.0315 -0.3492  0.0095
15925TIP3    H169190   6.517   0.431  13.712 -1.2311  1.0986  1.3069
15925TIP3    H269191   6.444   0.319  13.784  0.2902 -1.1868 -0.5370
15926TIP3   OH269192   3.465   6.127  16.937  0.1321  0.0496  0.3134
15926TIP3    H169193   3.552   6.127  16.898 -0.6661  0.0129 -1.5961
15926TIP3    H269194   3.440   6.220  16.941 -1.4659 -0.0217 -3.5123
15927TIP3   OH269195   1.894   3.934   1.010  0.9758  0.1497  0.2916
15927TIP3    H169196   1.939   3.893   0.936  3.4468 -1.2216  2.3866
15927TIP3    H269197   1.925   4.025   1.009 -1.2640  0.9986 -1.9218
15928TIP3   OH269198   5.107   2.610   4.770 -0.0205 -0.4138 -0.9995
15928TIP3    H169199   5.117   2.533   4.827 -2.2965 -0.5895 -0.7304
15928TIP3    H269200   5.090   2.682   4.831  1.5619  0.2137 -1.2820
15929TIP3   OH269201   3.396   5.075  15.994  0.1194 -0.0245  0.9326
15929TIP3    H169202   3.351   5.114  16.068 -0.4190 -0.2752  0.7380
15929TIP3    H269203   3.409   5.148  15.933  0.3700  0.1361  1.1729
15930TIP3   OH269204   4.263   6.761  14.510 -0.0944  0.4233 -0.0708
15930TIP3    H169205   4.176   6.721  14.519 -0.1078  0.7821  1.7519
15930TIP3    H269206   4.250   6.853  14.533  0.5155  0.8311 -1.2443
15931TIP3   OH269207   2.708   1.290   1.271 -0.1210  0.0117  0.1743
15931TIP3    H169208   2.725   1.196   1.269 -2.5454 -0.4766 -0.5845
15931TIP3    H269209   2.777   1.328   1.216  0.9745 -1.2670  0.5885
15932TIP3   OH269210   5.875   5.744  16.391 -0.0738  0.5589 -0.2988
15932TIP3    H169211   5.894   5.808  16.460 -0.6627 -1.4966  1.9049
15932TIP3    H269212   5.961   5.717  16.359  0.3951 -0.5195  1.7122
15933TIP3   OH269213   0.700   0.894  11.372  0.1351  0.4325  0.7010
15933TIP3    H169214   0.759   0.962  11.405  2.3142 -0.6799 -0.6844
15933TIP3    H269215   0.673   0.926  11.285 -1.2494  0.8555  1.2557
15934TIP3   OH269216   6.440   0.349  14.415 -0.4620  0.6116 -0.0142
15934TIP3    H169217   6.512   0.315  14.468 -0.4131 -0.0621 -0.4882
15934TIP3    H269218   6.470   0.434  14.384 -0.6897  1.2319  1.4167
15935TIP3   OH269219   1.045   4.892  13.191  0.5542 -0.1078 -0.3292
15935TIP3    H169220   1.136   4.897  13.161  1.1338 -1.5677  1.0711
15935TIP3    H269221   1.049   4.915  13.284 -0.7965  1.5755 -0.6412
15936TIP3   OH269222   0.224   6.468   3.539 -0.1297 -0.5757  0.2775
15936TIP3    H169223   0.147   6.478   3.594  1.1743 -1.3115  2.3752
15936TIP3    H269224   0.298   6.490   3.597  1.3298 -1.5282 -1.1379
15937TIP3   OH269225   4.715   4.641  16.652 -0.1262 -0.7454 -0.1459
15937TIP3    H169226   4.807   4.670  16.650 -0.1636 -0.6289 -1.5458
15937TIP3    H269227   4.698   4.611  16.563 -1.8223  0.4121 -0.2630
15938TIP3   OH269228   2.030   3.443  17.163  0.1125  0.2641 -0.3776
15938TIP3    H169229   1.962   3.377  17.149 -0.0129  0.5382 -1.0695
15938TIP3    H269230   2.104   3.414  17.109 -0.0369  0.8310 -0.8840
15939TIP3   OH269231   3.513   1.164  13.359 -0.5673  0.0726  0.4770
15939TIP3    H169232   3.599   1.131  13.329 -0.2725 -0.3674  1.7433
15939TIP3    H269233   3.462   1.171  13.278  0.2772 -0.8132 -0.1791
15940TIP3   OH269234   4.716   5.983  15.290 -0.3205  0.1101  0.4969
15940TIP3    H169235   4.623   5.999  15.306 -0.3533  1.7100 -1.0807
15940TIP3    H269236   4.719   5.897  15.248 -1.1174  0.1739  0.2963
15941TIP3   OH269237   3.136   4.035  15.409  0.5186  0.2703 -0.2396
15941TIP3    H169238   3.222   4.011  15.444 -0.5044 -2.3323  0.8247
15941TIP3    H269239   3.122   3.974  15.337 -0.6905  0.1909  0.0420
15942TIP3   OH269240   6.063   0.445  12.255  0.2258 -0.2107 -0.9438
15942TIP3    H169241   6.102   0.532  12.250  1.1565 -0.5666 -0.0640
15942TIP3    H269242   6.099   0.406  12.334  0.5769 -1.7717 -1.8248
15943TIP3   OH269243   2.667   6.701   2.242 -0.2252  0.7200  0.5078
15943TIP3    H169244   2.602   6.761   2.277 -1.4571 -0.0136 -0.4450
15943TIP3    H269245   2.619   6.619   2.228  1.6874 -1.0086  3.1229
15944TIP3   OH269246   5.009   4.825   2.527 -0.2926 -0.4664 -0.4064
15944TIP3    H169247   5.002   4.736   2.494 -1.1209 -0.7289  0.4356
15944TIP3    H269248   4.970   4.879   2.458 -2.7213 -1.0754  0.3837
15945TIP3   OH269249   6.447   5.073  15.438  0.5416  0.2154  0.4679
15945TIP3    H169250   6.517   5.010  15.422  0.8833  0.9434 -1.0478
15945TIP3    H269251   6.439   5.075  15.534  1.6138 -0.9278  0.6110
15946TIP3   OH269252   1.641   5.795   0.977  0.6382 -0.6203  0.1748
15946TIP3    H169253   1.719   5.844   1.003  1.6412 -0.7903 -2.1831
15946TIP3    H269254   1.572   5.861   0.973  0.9038 -0.2573  1.2455
15947TIP3   OH269255   6.171   2.737  13.132 -0.1333  0.4611  0.2141
15947TIP3    H169256   6.086   2.775  13.154 -0.8216 -2.1327  2.6807
15947TIP3    H269257   6.234   2.784  13.187 -0.4597  0.2989  0.7322
15948TIP3   OH269258   3.873   5.008  15.217  0.1437 -0.0310 -0.0143
15948TIP3    H169259   3.868   5.094  15.177  0.7410  0.1528  0.2843
15948TIP3    H269260   3.791   4.965  15.194 -1.1451  1.3966  1.6264
15949TIP3   OH269261   4.648   3.454  13.380  0.3188  0.5237 -0.4220
15949TIP3    H169262   4.605   3.452  13.465  2.2839 -1.3652  0.6028
15949TIP3    H269263   4.655   3.548  13.359  1.4557  1.1629  2.4095
15950TIP3   OH269264   5.300   1.206   4.606 -0.0946  0.0063  0.2425
15950TIP3    H169265   5.335   1.151   4.676 -0.2196  0.4393  0.6511
15950TIP3    H269266   5.215   1.236   4.638 -0.3897 -0.2115 -0.3156
15951TIP3   OH269267   6.252   4.875  15.457 -0.3558  0.3058  0.1469
15951TIP3    H169268   6.166   4.918  15.449 -0.2237  0.3505 -1.3023
15951TIP3    H269269   6.312   4.934  15.413  0.7289  1.0020  2.4373
15952TIP3   OH269270   2.085   3.241   1.015  0.0023 -0.1350  0.2198
15952TIP3    H169271   2.171   3.273   0.987 -0.3387 -0.7879 -1.7969
15952TIP3    H269272   2.037   3.319   1.042  0.6995  0.4513 -0.2045
15953TIP3   OH269273   3.328   3.454  14.130 -0.1273 -0.1897  0.3340
15953TIP3    H169274   3.338   3.370  14.175 -1.6308 -1.1150 -0.9395
15953TIP3    H269275   3.324   3.519  14.200 -2.7889 -1.5980  1.6314
15954TIP3   OH269276   5.914   2.187   2.397  0.3771 -0.8295 -0.3942
15954TIP3    H169277   5.890   2.265   2.348  2.5579 -0.4871 -1.0551
15954TIP3    H269278   5.832   2.155   2.433 -0.6297  1.6885 -0.2031
15955TIP3   OH269279   1.784   6.660   1.853 -0.5562 -0.5565  0.0420
15955TIP3    H169280   1.794   6.635   1.761  0.2173 -1.1990  0.2887
15955TIP3    H269281   1.866   6.706   1.874 -0.6272 -0.6250  0.4742
15956TIP3   OH269282   4.424   6.158  13.758 -0.1416  0.3787  0.3502
15956TIP3    H169283   4.518   6.140  13.764 -0.0145  0.6740 -0.5821
15956TIP3    H269284   4.400   6.189  13.845  0.2856 -1.2010  1.0714
15957TIP3   OH269285   1.161   5.272   2.867 -0.0060 -0.4300  0.5273
15957TIP3    H169286   1.124   5.188   2.895 -3.5137 -0.5673 -3.4332
15957TIP3    H269287   1.090   5.335   2.881  1.5294  1.3255  0.7897
15958TIP3   OH269288   5.990   2.420  14.545 -0.1345 -0.0277  0.2779
15958TIP3    H169289   5.993   2.491  14.481  2.1943  0.4258  0.8150
15958TIP3    H269290   6.063   2.437  14.604 -0.8659 -1.6681  1.7507
15959TIP3   OH269291   4.568   5.754   5.914  0.6952  0.4141  0.6159
15959TIP3    H169292   4.660   5.768   5.892  0.3177  1.5821 -0.2981
15959TIP3    H269293   4.533   5.701   5.843  0.0629  2.1618 -0.4422
15960TIP3   OH269294   2.535   4.952  15.531  0.2129 -0.5005 -0.4200
15960TIP3    H169295   2.460   4.945  15.472 -0.2945  0.1422  0.1265
15960TIP3    H269296   2.559   5.045  15.528  0.4102 -0.5297  0.1039
15961TIP3   OH269297   6.088   0.056   2.188 -0.4973 -0.1361 -0.3747
15961TIP3    H169298   6.177   0.025   2.204 -0.3945  0.6634  0.8388
15961TIP3    H269299   6.066   0.025   2.101  1.5227  0.8641 -1.3161
15962TIP3   OH269300   6.623   5.438   4.085  0.3359 -0.0723 -0.4015
15962TIP3    H169301   6.563   5.454   4.013 -1.8833  0.9958  1.5496
15962TIP3    H269302   6.607   5.347   4.110  0.8857 -0.3493 -1.0551
15963TIP3   OH269303   6.616   4.766  13.885 -0.2577  0.1940 -0.0969
15963TIP3    H169304   6.680   4.727  13.945 -1.0272 -0.3717  0.3871
15963TIP3    H269305   6.649   4.746  13.798 -1.1643 -2.5772  0.1009
15964TIP3   OH269306   3.009   5.564   6.541  0.1743  0.0620  0.4321
15964TIP3    H169307   3.063   5.639   6.515 -0.1504  0.9473  2.2048
15964TIP3    H269308   3.067   5.511   6.596  0.0741 -0.4608  0.0464
15965TIP3   OH269309   3.764   3.576   5.305  0.0592  0.0043  0.4678
15965TIP3    H169310   3.685   3.532   5.274 -0.0302 -0.4947  1.3969
15965TIP3    H269311   3.759   3.664   5.266 -0.4076 -0.3632 -0.3348
15966TIP3   OH269312   3.236   3.942  16.804  0.1041 -0.0484  0.0359
15966TIP3    H169313   3.315   3.980  16.841  0.0020 -1.1886  1.4905
15966TIP3    H269314   3.180   3.924  16.879 -0.4419 -1.7065 -0.7313
15967TIP3   OH269315   0.960   4.196   6.644  0.7295 -0.3924 -0.0900
15967TIP3    H169316   1.016   4.159   6.575  0.0709 -0.2635 -0.7058
15967TIP3    H269317   0.932   4.120   6.696 -0.2449 -0.7313 -1.0729
15968TIP3   OH269318   3.132   6.775   5.402  1.0396 -0.0390 -0.2698
15968TIP3    H169319   3.135   6.735   5.315 -1.5248 -1.3699  0.1370
15968TIP3    H269320   3.063   6.841   5.396  2.0594  1.1224  0.3248
15969TIP3   OH269321   0.929   4.670  11.696  0.1411  0.0962  0.2946
15969TIP3    H169322   0.981   4.746  11.672 -0.2172  0.4085  0.5135
15969TIP3    H269323   0.905   4.684  11.787 -1.3518  0.5429 -0.1364
15970TIP3   OH269324   3.750   2.496   6.513  0.2988  0.4195 -0.1487
15970TIP3    H169325   3.685   2.531   6.574 -0.8733  1.3152 -1.8492
15970TIP3    H269326   3.822   2.559   6.515 -0.0942  0.8755 -0.2916
15971TIP3   OH269327   0.260   1.216  17.008  0.4939  0.4731 -0.2301
15971TIP3    H169328   0.186   1.253  16.960  1.0550  0.0274 -1.4985
15971TIP3    H269329   0.253   1.122  16.995 -0.2416  0.1678  1.9548
15972TIP3   OH269330   3.819   0.773  12.568  0.4611 -0.7181  0.2712
15972TIP3    H169331   3.753   0.775  12.498  0.3091  2.6184  0.3572
15972TIP3    H269332   3.903   0.772  12.521  0.4411 -2.9623  0.1621
15973TIP3   OH269333   4.478   2.476   0.013 -0.0315 -0.0524 -0.1560
15973TIP3    H169334   4.571   2.493  -0.002  0.5651 -0.8361  2.2686
15973TIP3    H269335   4.472   2.382   0.031 -1.3113 -0.0359 -0.3682
15974TIP3   OH269336   4.660   4.899   3.437  0.0266 -0.1719  0.1002
15974TIP3    H169337   4.710   4.980   3.430 -0.1510  0.2240  2.4064
15974TIP3    H269338   4.572   4.922   3.408  0.5396 -0.2415 -1.6392
15975TIP3   OH269339   6.470   6.323   6.016  0.3621  0.2849  0.1757
15975TIP3    H169340   6.397   6.385   6.017 -1.2061 -1.4430  1.5240
15975TIP3    H269341   6.479   6.296   6.108  0.8833 -1.5611 -0.3872
15976TIP3   OH269342   0.357   0.693   2.512 -0.8705 -0.3911  0.1746
15976TIP3    H169343   0.364   0.616   2.456 -0.5904  0.4707 -1.0230
15976TIP3    H269344   0.447   0.708   2.544 -0.4992  0.5438 -1.1839
15977TIP3   OH269345   5.903   3.638   0.660  0.0251  0.5380 -0.3820
15977TIP3    H169346   5.964   3.614   0.589  0.7298  1.0039  0.0503
15977TIP3    H269347   5.823   3.663   0.615  0.8049  1.8555 -1.1119
15978TIP3   OH269348   2.257   4.683   6.343  0.0631  0.3871  1.0431
15978TIP3    H169349   2.209   4.701   6.424  2.2760  0.8211  2.3481
15978TIP3    H269350   2.268   4.770   6.303 -0.2439  0.2820  0.7235
15979TIP3   OH269351   5.533   6.658  15.104 -0.0800  0.1488 -0.2786
15979TIP3    H169352   5.485   6.625  15.028  0.5317 -0.1617 -0.5426
15979TIP3    H269353   5.556   6.579  15.153 -0.0521  0.3143 -0.0238
15980TIP3   OH269354   0.197   2.741  10.405 -0.2298  0.1000  0.2556
15980TIP3    H169355   0.165   2.789  10.481 -1.8089 -1.1388  0.4223
15980TIP3    H269356   0.119   2.720  10.355  0.4780 -1.5384 -0.2408
15981TIP3   OH269357   6.122   2.979   3.301 -0.1014  0.4637 -0.8670
15981TIP3    H169358   6.217   2.974   3.311 -0.3128  0.7109  2.3844
15981TIP3    H269359   6.109   3.040   3.228  2.1977  0.6343 -1.2277
15982TIP3   OH269360   1.123   2.558  11.702 -0.6495  0.9832  0.1323
15982TIP3    H169361   1.193   2.590  11.646  0.9375 -0.3953  1.2283
15982TIP3    H269362   1.121   2.463  11.687 -2.0663  0.9501  0.3654
15983TIP3   OH269363   1.402   2.525   6.252 -0.0283 -0.5987 -1.1001
15983TIP3    H169364   1.385   2.443   6.299 -1.4756  0.9653  1.3733
15983TIP3    H269365   1.327   2.534   6.193 -2.1269  0.7056  1.4994
15984TIP3   OH269366   6.619   4.558  15.301 -0.0415  0.6519  0.2765
15984TIP3    H169367   6.595   4.528  15.213 -1.1439 -1.2760  1.1774
15984TIP3    H269368   6.656   4.481  15.344  0.3813  1.5302  1.5528
15985TIP3   OH269369   4.344   5.640  14.713 -0.2900  0.1738  0.4161
15985TIP3    H169370   4.367   5.675  14.799 -3.9472  1.0402  1.2359
15985TIP3    H269371   4.330   5.718  14.658 -1.5601 -0.2139  0.1561
15986TIP3   OH269372   2.161   2.820   3.214 -0.4343 -0.0227 -0.8879
15986TIP3    H169373   2.088   2.878   3.236 -0.5031 -0.6595  0.6882
15986TIP3    H269374   2.233   2.879   3.192 -0.1420  0.7757  1.8330
15987TIP3   OH269375   6.082   5.743   6.011 -0.0678 -0.1794 -0.5162
15987TIP3    H169376   5.990   5.757   6.030  0.0062  0.4748 -0.6127
15987TIP3    H269377   6.088   5.650   5.988 -0.0541 -1.2311  3.1108
15988TIP3   OH269378   4.019   4.698   3.925  0.5844  0.5105 -0.0548
15988TIP3    H169379   3.952   4.763   3.901  0.7280  0.9671  0.7536
15988TIP3    H269380   4.000   4.623   3.869  1.4070  1.8152 -2.2307
15989TIP3   OH269381   4.840   0.684  10.245 -0.1835 -0.1474 -0.1640
15989TIP3    H169382   4.782   0.653  10.175  1.8388  0.6655 -2.3181
15989TIP3    H269383   4.827   0.778  10.247 -1.6404 -0.3062  2.0088
15990TIP3   OH269384   0.329   0.973   0.260  0.2283 -0.2747  0.0957
15990TIP3    H169385   0.387   0.988   0.185  1.9008 -0.9937  1.1887
15990TIP3    H269386   0.377   1.010   0.334 -2.2718  2.2639  0.6012
15991TIP3   OH269387   4.534   3.721   3.244  0.5886 -0.0311 -0.6874
15991TIP3    H169388   4.470   3.787   3.216  0.9926  1.2908  1.2544
15991TIP3    H269389   4.511   3.642   3.196 -4.0172 -0.3511  1.5162
15992TIP3   OH269390   4.618   3.912  14.206 -0.4865 -0.3220  0.2536
15992TIP3    H169391   4.713   3.918  14.193 -0.2660 -1.8338  0.8915
15992TIP3    H269392   4.581   3.975  14.144  0.8867 -0.5786 -0.8820
15993TIP3   OH269393   2.376   6.743   6.756  0.7578  0.2861  0.2748
15993TIP3    H169394   2.422   6.776   6.678  1.8247 -0.5308  0.5264
15993TIP3    H269395   2.307   6.687   6.720  1.6611 -0.6280 -0.1154
15994TIP3   OH269396   2.133   3.318   4.392 -0.4599 -0.1876 -0.2998
15994TIP3    H169397   2.117   3.402   4.349  0.9935  0.9445  1.2366
15994TIP3    H269398   2.081   3.321   4.472 -0.1124 -0.5773 -0.0499
15995TIP3   OH269399   1.214   2.454   4.516  0.1139  0.0569  0.4720
15995TIP3    H169400   1.162   2.533   4.527  2.6832  1.9571 -0.1059
15995TIP3    H269401   1.216   2.415   4.603 -2.6334 -0.4537  0.4115
15996TIP3   OH269402   3.506   4.850  14.895  0.2764  0.3145  0.2244
15996TIP3    H169403   3.585   4.809  14.930  0.1871  0.7758  1.0020
15996TIP3    H269404   3.505   4.826  14.803  0.9098 -0.3433  0.3802
15997TIP3   OH269405   0.321   2.915   1.542  0.1291 -0.3701  0.0619
15997TIP3    H169406   0.237   2.943   1.504  0.7747  0.4554 -0.7908
15997TIP3    H269407   0.319   2.820   1.535 -1.0928 -0.4246  0.8264
15998TIP3   OH269408   3.929   5.970   2.992  0.9766 -0.4117 -0.5050
15998TIP3    H169409   3.886   5.888   3.018  0.2320  0.1233 -0.0124
15998TIP3    H269410   3.907   5.981   2.900 -2.2055  1.1648  0.3260
15999TIP3   OH269411   4.073   6.642   5.197 -0.4114 -0.6079 -0.1986
15999TIP3    H169412   4.102   6.640   5.289 -1.8198 -1.8566  0.2758
15999TIP3    H269413   4.088   6.553   5.166 -1.2531 -0.5834 -0.7181
16000TIP3   OH269414   4.852   1.960   4.550  0.3289 -0.0135 -0.0248
16000TIP3    H169415   4.845   1.867   4.568 -1.9041  0.2593  0.8584
16000TIP3    H269416   4.770   1.982   4.506  1.1824  1.4007 -1.0176
16001TIP3   OH269417   6.509   2.118  12.561  0.7221  0.0463  0.1627
16001TIP3    H169418   6.513   2.035  12.609 -2.7747 -1.1894 -1.3420
16001TIP3    H269419   6.487   2.183  12.627  4.1384  0.1022  1.4918
16002TIP3   OH269420   0.525   3.724  11.518  0.0948 -0.6522  0.0566
16002TIP3    H169421   0.502   3.814  11.495  0.0590 -0.9389 -1.0798
16002TIP3    H269422   0.587   3.697  11.450  2.0809 -0.6678  1.7637
16003TIP3   OH269423   3.532   0.382  16.324 -0.2476 -0.3809  0.1181
16003TIP3    H169424   3.503   0.397  16.234  1.1474 -0.2687 -0.3381
16003TIP3    H269425   3.608   0.440  16.334 -0.0153 -0.8556  1.1597
16004TIP3   OH269426   0.783   2.232   0.057  0.2825 -0.4627  0.0373
16004TIP3    H169427   0.757   2.212   0.146 -1.2980 -2.1700 -0.7346
16004TIP3    H269428   0.713   2.196   0.002  1.8808 -0.7729 -1.9605
16005TIP3   OH269429   2.040   1.124  14.687  0.1454 -0.2851 -1.1899
16005TIP3    H169430   1.964   1.073  14.660 -0.3985  0.9113 -2.0277
16005TIP3    H269431   2.110   1.097  14.628  0.8439 -2.4945  0.5519
16006TIP3   OH269432   6.450   1.579   3.371 -0.1575 -0.1186 -0.0155
16006TIP3    H169433   6.375   1.639   3.376 -1.1412 -1.4250  1.8185
16006TIP3    H269434   6.414   1.499   3.332  0.8507  0.0094 -1.2654
16007TIP3   OH269435   6.232   4.484   6.018  0.4111 -0.0912  0.3312
16007TIP3    H169436   6.253   4.575   5.997  1.1610 -0.4720 -0.5868
16007TIP3    H269437   6.180   4.453   5.944 -0.6348 -0.1507  1.0649
16008TIP3   OH269438   4.109   1.146  11.763  0.2999  0.2282  0.1940
16008TIP3    H169439   4.069   1.118  11.845  1.8629 -0.5281  0.7410
16008TIP3    H269440   4.199   1.170  11.787  1.7484 -2.6884 -1.6483
16009TIP3   OH269441   5.184   4.431  11.141  0.4306 -0.4677  0.8700
16009TIP3    H169442   5.184   4.524  11.164  1.4039 -0.1962 -0.1496
16009TIP3    H269443   5.092   4.405  11.151  0.2811  0.3805  1.9667
16010TIP3   OH269444   4.397   1.754   0.217 -0.2463  0.1529 -0.3077
16010TIP3    H169445   4.314   1.801   0.220 -0.4643 -0.2855  1.7625
16010TIP3    H269446   4.399   1.715   0.129 -1.3881  1.5879 -1.0214
16011TIP3   OH269447   4.520   5.294   0.325  0.0539  0.0849 -0.1788
16011TIP3    H169448   4.510   5.199   0.332 -0.9381  0.0863 -1.3567
16011TIP3    H269449   4.503   5.326   0.413 -1.6091 -0.6808 -0.1935
16012TIP3   OH269450   0.135   0.124   0.958  0.4535 -0.7076 -0.2737
16012TIP3    H169451   0.122   0.031   0.977  0.4883 -0.4790  0.9471
16012TIP3    H269452   0.048   0.162   0.964  0.6403 -0.4146  0.7256
16013TIP3   OH269453   4.974   3.192  15.716  0.3034  0.1863  0.6265
16013TIP3    H169454   5.058   3.231  15.741  1.7455 -1.1345 -1.6922
16013TIP3    H269455   4.951   3.237  15.634  1.3009 -2.6139 -1.3518
16014TIP3   OH269456   0.592   6.763   1.875  0.4473  0.2126  0.2640
16014TIP3    H169457   0.660   6.830   1.866 -0.1497  0.7852 -0.0840
16014TIP3    H269458   0.545   6.788   1.955 -0.7283  1.1141 -0.6700
16015TIP3   OH269459   1.102   4.453  17.230  0.2396 -0.1912 -0.1592
16015TIP3    H169460   1.093   4.358  17.245  0.0303 -0.0215  0.8978
16015TIP3    H269461   1.165   4.481  17.296  0.9006  0.2919 -0.9795
16016TIP3   OH269462   4.901   4.450   0.227 -0.1713 -0.7460 -0.2485
16016TIP3    H169463   4.935   4.512   0.292  0.0040 -0.1521 -0.9086
16016TIP3    H269464   4.900   4.498   0.145 -3.3042 -0.4774 -0.1794
16017TIP3   OH269465   0.328   4.821   3.979  0.1028  0.0774  0.2315
16017TIP3    H169466   0.291   4.738   3.951 -1.4254  0.2313  1.6843
16017TIP3    H269467   0.336   4.872   3.898  0.2781 -1.1551 -0.5531
16018TIP3   OH269468   1.252   1.905  16.779 -0.7404  0.0418  0.6429
16018TIP3    H169469   1.223   1.815  16.790 -0.0097 -0.2399  0.3169
16018TIP3    H269470   1.194   1.941  16.712 -3.4131  0.9341  3.1784
16019TIP3   OH269471   3.996   1.493  17.180 -0.8789  0.0303 -0.3232
16019TIP3    H169472   3.973   1.440  17.104 -0.5562  0.1394 -0.4976
16019TIP3    H269473   3.956   1.578  17.163  0.8565  0.6899 -1.3315
16020TIP3   OH269474   0.190   4.560  12.894 -0.2197  0.2315  0.3994
16020TIP3    H169475   0.108   4.569  12.942 -0.1947  2.2870  0.1457
16020TIP3    H269476   0.258   4.575  12.959 -0.0847 -0.3504  0.3910
16021TIP3   OH269477   0.310   4.969   6.283 -0.1228 -0.2988 -0.4270
16021TIP3    H169478   0.229   4.954   6.331  0.3364 -2.0522 -0.1095
16021TIP3    H269479   0.282   5.008   6.200 -1.0476  1.4056  0.6362
16022TIP3   OH269480   6.680   5.555   0.613 -0.5353  0.5616  0.0855
16022TIP3    H169481   6.680   5.597   0.527  0.2243 -0.2111 -0.3125
16022TIP3    H269482   6.732   5.613   0.668  1.0260 -0.1076 -0.6177
16023TIP3   OH269483   6.127   4.706   5.705 -0.9744  0.0122 -0.6225
16023TIP3    H169484   6.110   4.793   5.668  0.1413  1.0338  1.1248
16023TIP3    H269485   6.129   4.720   5.799 -0.0516 -1.7985 -0.3317
16024TIP3   OH269486   6.511   1.050  14.789  0.4697 -0.0195  0.7794
16024TIP3    H169487   6.468   1.126  14.829  0.3323  1.0604 -1.3195
16024TIP3    H269488   6.439   0.989  14.770  0.5685 -0.6811  2.3595
16025TIP3   OH269489   3.181   4.576   1.990 -0.8874 -0.0666  0.0562
16025TIP3    H169490   3.236   4.632   2.045 -0.5127 -1.4791  1.1774
16025TIP3    H269491   3.229   4.494   1.983 -2.1814 -0.8367 -0.1546
16026TIP3   OH269492   1.734   5.792   6.129  0.3220  0.2391 -0.2053
16026TIP3    H169493   1.790   5.820   6.201  1.0427 -1.0340 -0.2390
16026TIP3    H269494   1.675   5.865   6.114  1.0076  1.0224  0.8257
16027TIP3   OH269495   1.389   2.078   6.444 -0.1678 -0.8178 -1.1654
16027TIP3    H169496   1.413   1.999   6.397  1.6376 -1.2925  0.4257
16027TIP3    H269497   1.405   2.058   6.536 -2.0318  0.5978 -0.4488
16028TIP3   OH269498   3.189   0.776   4.227  0.5984 -0.2519  0.0226
16028TIP3    H169499   3.138   0.729   4.293  1.1780 -0.1089  0.5775
16028TIP3    H269500   3.200   0.863   4.264  1.2034 -0.2685 -0.1223
16029TIP3   OH269501   2.609   1.019   5.410  1.0688  0.6169  0.3444
16029TIP3    H169502   2.518   0.990   5.417  1.5082 -0.9387  0.0763
16029TIP3    H269503   2.642   1.014   5.500  1.5638 -1.3555  0.1167
16030TIP3   OH269504   6.278   4.257   1.557  0.0527 -0.6793 -0.4727
16030TIP3    H169505   6.237   4.277   1.473  0.4960 -0.8796 -0.7418
16030TIP3    H269506   6.356   4.313   1.558 -2.0704  2.5633  1.6520
16031TIP3   OH269507   3.885   2.070   4.104 -0.2783  0.3060  0.6276
16031TIP3    H169508   3.804   2.063   4.155 -0.9956 -0.1812 -0.5271
16031TIP3    H269509   3.937   2.136   4.150 -0.9367 -0.0342  1.9011
16032TIP3   OH269510   1.074   6.250   3.514 -0.0997  0.4316 -0.1483
16032TIP3    H169511   1.121   6.216   3.590  0.1345 -0.5826 -0.7304
16032TIP3    H269512   0.982   6.231   3.532 -0.1398  0.9901  0.2694
16033TIP3   OH269513   5.738   2.303  13.033  0.0024 -0.0680  0.4028
16033TIP3    H169514   5.834   2.301  13.031  0.2816  1.3168  4.1132
16033TIP3    H269515   5.715   2.386  12.992  0.6039  0.7230  1.6277
16034TIP3   OH269516   2.604   0.435   1.413 -0.8316 -0.3076 -0.2243
16034TIP3    H169517   2.688   0.460   1.452 -0.9040  0.7284 -0.7061
16034TIP3    H269518   2.614   0.453   1.320 -1.9523  0.8924 -0.1417
16035TIP3   OH269519   3.689   2.484   5.324 -0.4181 -0.6600  0.2533
16035TIP3    H169520   3.638   2.419   5.275 -0.8959 -0.0689 -0.0467
16035TIP3    H269521   3.630   2.513   5.394 -0.9938  0.9506 -0.8419
16036TIP3   OH269522   1.900   1.454  11.225 -0.3203  0.8647  0.3469
16036TIP3    H169523   1.884   1.492  11.311 -0.3781 -0.7753  1.1040
16036TIP3    H269524   1.826   1.483  11.172 -1.6698 -0.1688  1.5888
16037TIP3   OH269525   0.501   5.892  11.783 -0.0606  0.3301 -0.4306
16037TIP3    H169526   0.518   5.877  11.876 -0.1184  0.9789 -0.3116
16037TIP3    H269527   0.525   5.809  11.741 -1.4894 -0.5131  0.3345
16038TIP3   OH269528   6.451   0.519   4.050 -0.6970  0.3259  0.2216
16038TIP3    H169529   6.496   0.472   3.980 -0.4988  1.5084 -0.4693
16038TIP3    H269530   6.367   0.475   4.058 -0.6772  0.1035 -0.6825
16039TIP3   OH269531   0.452   6.344  13.227 -0.7493 -0.2362  0.0502
16039TIP3    H169532   0.405   6.372  13.306 -0.8181  2.1513 -0.7536
16039TIP3    H269533   0.538   6.387  13.235 -0.7061 -0.0938 -1.1086
16040TIP3   OH269534   1.702   0.788  13.035  0.1176 -0.0144 -0.1219
16040TIP3    H169535   1.687   0.700  13.070  0.9333  0.4521  1.5116
16040TIP3    H269536   1.719   0.774  12.942 -1.8784 -1.3495 -0.3460
16041TIP3   OH269537   5.796   4.610   4.743 -0.0528  0.1375 -0.6337
16041TIP3    H169538   5.707   4.579   4.757 -0.1810  0.8551  0.2193
16041TIP3    H269539   5.832   4.620   4.831  1.1107 -0.8042 -0.9726
16042TIP3   OH269540   0.683   4.653  14.929  0.2650 -0.2019 -0.2032
16042TIP3    H169541   0.750   4.712  14.892  0.5866 -1.0017 -0.9390
16042TIP3    H269542   0.709   4.643  15.020 -0.7390  2.0964  0.4096
16043TIP3   OH269543   2.580   1.494   1.389 -0.1195  0.1111  0.4222
16043TIP3    H169544   2.546   1.478   1.477 -1.8208  0.9668 -0.0255
16043TIP3    H269545   2.622   1.412   1.363  0.0643 -0.2726  1.8716
16044TIP3   OH269546   4.230   4.132   1.057  0.0414  0.2283  0.2375
16044TIP3    H169547   4.139   4.118   1.032 -0.0634  0.5341  0.4568
16044TIP3    H269548   4.263   4.043   1.073  0.5593 -0.1773 -2.4952
16045TIP3   OH269549   3.238   6.160   1.138 -0.2694  0.2045  0.5326
16045TIP3    H169550   3.149   6.186   1.113 -0.1794  0.5779  0.6046
16045TIP3    H269551   3.291   6.181   1.061  0.0180  1.3974  1.0295
16046TIP3   OH269552   5.106   3.461   3.577  0.0160  0.1151 -0.0189
16046TIP3    H169553   5.110   3.496   3.488 -0.4425 -0.5955 -0.3241
16046TIP3    H269554   5.012   3.446   3.593  0.0434  0.7119  0.7747
16047TIP3   OH269555   4.113   0.971  15.982 -0.0326 -0.1352 -0.1328
16047TIP3    H169556   4.176   0.900  15.968  0.1438 -0.0959  0.4769
16047TIP3    H269557   4.069   0.949  16.064  0.2101  0.6028  0.2011
16048TIP3   OH269558   5.356   5.979  12.688 -0.4505 -0.5904  0.1842
16048TIP3    H169559   5.264   5.985  12.662 -0.4257 -2.0016 -0.2984
16048TIP3    H269560   5.399   5.935  12.615  0.2393 -1.7185  1.2374
16049TIP3   OH269561   5.073   6.520   3.699  0.2294 -0.2032  0.2629
16049TIP3    H169562   5.131   6.590   3.731  0.2445 -0.5429  1.0016
16049TIP3    H269563   5.018   6.499   3.774 -0.0069 -0.7534 -0.0610
16050TIP3   OH269564   6.515   3.936   1.782 -0.4041  0.0116 -0.3284
16050TIP3    H169565   6.435   3.950   1.731 -0.5881 -0.1640 -0.0931
16050TIP3    H269566   6.510   4.002   1.851 -0.2634  0.1078 -0.4099
16051TIP3   OH269567   0.889   0.487  16.635 -0.1610 -0.0460  0.2310
16051TIP3    H169568   0.886   0.545  16.711  0.5739 -1.3340  1.2898
16051TIP3    H269569   0.811   0.432  16.644 -0.0139 -0.2759  0.0943
16052TIP3   OH269570   5.331   2.829  13.429  0.0718  0.4580 -0.5823
16052TIP3    H169571   5.382   2.907  13.406  1.9016 -0.7902 -0.9597
16052TIP3    H269572   5.390   2.756  13.413 -0.8216 -0.9140  1.8568
16053TIP3   OH269573   5.937   0.560   1.164 -0.3187  0.7051  0.0123
16053TIP3    H169574   5.958   0.623   1.095  2.5149 -0.0506  0.0589
16053TIP3    H269575   5.999   0.580   1.234 -0.8916 -0.6770  0.9671
16054TIP3   OH269576   3.241   3.059  15.605  0.0229  0.0638  0.5428
16054TIP3    H169577   3.290   3.010  15.671 -0.1602 -0.3166  0.4036
16054TIP3    H269578   3.294   3.137  15.588 -0.0932  0.3320  1.3720
16055TIP3   OH269579   1.727   3.804   5.900  0.1681  0.3921  0.4355
16055TIP3    H169580   1.780   3.858   5.841  0.2738 -0.7484 -0.5513
16055TIP3    H269581   1.672   3.866   5.947 -0.3517  1.3129 -1.3038
16056TIP3   OH269582   3.061   3.657  11.926 -0.0512 -0.3312  0.7973
16056TIP3    H169583   3.090   3.584  11.981 -1.9252 -0.5696  1.5321
16056TIP3    H269584   3.056   3.732  11.986 -0.7424 -0.2559  0.6559
16057TIP3   OH269585   2.755   4.395  16.506  0.0799  0.6828  0.0620
16057TIP3    H169586   2.722   4.443  16.582 -1.1027  0.8881 -0.5530
16057TIP3    H269587   2.759   4.304  16.534  0.7115  0.9009  0.7048
16058TIP3   OH269588   2.462   1.612   5.777  0.4723  0.0551  0.2705
16058TIP3    H169589   2.520   1.626   5.702  0.8278  0.4659  0.6152
16058TIP3    H269590   2.520   1.604   5.852  0.0834  1.4499  0.7712
16059TIP3   OH269591   2.653   4.551  12.582 -0.3404 -0.3753 -0.6395
16059TIP3    H169592   2.628   4.461  12.604 -0.9200  0.0646  0.6118
16059TIP3    H269593   2.735   4.565  12.629  0.6019 -0.7414 -2.1084
16060TIP3   OH269594   1.259   5.575  11.974 -0.2041  0.2317  0.0334
16060TIP3    H169595   1.227   5.610  12.057  2.5276 -1.1587  1.8178
16060TIP3    H269596   1.222   5.486  11.970  0.0928  0.1065  0.0403
16061TIP3   OH269597   6.645   4.113   2.796 -0.4071  0.6530  0.2405
16061TIP3    H169598   6.731   4.143   2.767 -0.4021  1.5109  1.0807
16061TIP3    H269599   6.613   4.057   2.725  0.8378  0.3207 -0.0737
16062TIP3   OH269600   1.720   3.858  15.656  0.4391  0.1025  0.4136
16062TIP3    H169601   1.678   3.891  15.736  0.4893 -0.8305  0.8340
16062TIP3    H269602   1.801   3.908  15.650  0.1047  0.6703  0.5654
16063TIP3   OH269603   0.005   1.250   1.361  0.0333  0.6275  0.1312
16063TIP3    H169604  -0.073   1.200   1.339  0.4330  0.2133 -0.3826
16063TIP3    H269605   0.059   1.189   1.412  0.0701  0.8738  0.3897
16064TIP3   OH269606   3.804   1.626  15.343  0.5993 -0.0333 -0.2230
16064TIP3    H169607   3.793   1.713  15.305  0.4448 -0.0069 -0.1178
16064TIP3    H269608   3.898   1.620  15.363  0.1945  1.2501  2.4939
16065TIP3   OH269609   2.211   4.970  14.967  0.1874  0.5180  0.0335
16065TIP3    H169610   2.134   5.024  14.950  0.1978  0.6033  0.2526
16065TIP3    H269611   2.187   4.883  14.934 -0.0664  0.5037  0.2512
16066TIP3   OH269612   1.744   2.781   0.647 -0.2110 -0.3403 -0.3094
16066TIP3    H169613   1.667   2.818   0.689  0.8637  1.9704 -0.2478
16066TIP3    H269614   1.810   2.778   0.717  0.8207  1.1621 -1.1590
16067TIP3   OH269615   5.138   5.760   0.838 -0.0601 -0.0841  0.3657
16067TIP3    H169616   5.196   5.783   0.765 -0.0279 -2.4275 -0.4360
16067TIP3    H269617   5.127   5.665   0.831 -1.6900 -0.1026  2.2352
16068TIP3   OH269618   2.802   2.907   1.554 -0.2030  0.6440  0.1630
16068TIP3    H169619   2.892   2.921   1.584  0.8029 -0.5378 -2.0365
16068TIP3    H269620   2.768   2.840   1.613 -0.0772  1.8994  1.7232
16069TIP3   OH269621   1.526   1.013  14.542  0.3508  0.2393  0.8206
16069TIP3    H169622   1.525   1.108  14.533 -3.8143  0.4945  1.7471
16069TIP3    H269623   1.525   0.998  14.637 -0.8985 -0.5995  0.6986
16070TIP3   OH269624   4.323   4.635   2.734  0.1676 -0.7605 -0.5615
16070TIP3    H169625   4.244   4.603   2.778 -0.4245 -1.2775 -1.9378
16070TIP3    H269626   4.322   4.730   2.748 -1.6175 -0.5341 -1.9445
16071TIP3   OH269627   4.019   2.849   4.621  0.1928 -0.3544 -0.2556
16071TIP3    H169628   3.976   2.810   4.698  0.1969 -0.0068 -0.0705
16071TIP3    H269629   3.974   2.933   4.610  1.4498  0.4499  0.5167
16072TIP3   OH269630   2.510   0.428  16.457  0.1400  0.2505  0.5082
16072TIP3    H169631   2.491   0.518  16.482 -0.7217  0.3034 -0.2727
16072TIP3    H269632   2.593   0.408  16.500  0.0128  1.1900  1.2323
16073TIP3   OH269633   3.161   4.124  12.934  0.0456 -0.3485  0.2996
16073TIP3    H169634   3.248   4.133  12.894 -0.2457  0.2758 -0.2211
16073TIP3    H269635   3.178   4.082  13.018  0.6514 -1.8933 -0.5630
16074TIP3   OH269636   5.457   3.906  11.928 -0.7756 -0.0451 -0.2737
16074TIP3    H169637   5.442   3.857  12.009 -0.9000 -1.2907 -1.0297
16074TIP3    H269638   5.518   3.976  11.953 -0.3925 -0.7316  0.7835
16075TIP3   OH269639   4.766   2.291  14.288 -0.1777 -0.2688  0.7277
16075TIP3    H169640   4.685   2.259  14.327 -2.3770  0.3771 -2.8660
16075TIP3    H269641   4.809   2.212  14.256  0.5889 -0.5896  2.4250
16076TIP3   OH269642   0.122   4.579   6.069 -0.5760 -0.1621  0.3257
16076TIP3    H169643   0.174   4.557   5.992  1.6423  1.0633  1.3756
16076TIP3    H269644   0.117   4.498   6.119  1.8622  0.0158  0.9924
16077TIP3   OH269645   3.414   1.705  12.554  0.6212  0.2542 -0.1422
16077TIP3    H169646   3.374   1.784  12.519 -0.7937  0.6193  2.0878
16077TIP3    H269647   3.508   1.720  12.547  0.5851 -0.2061 -4.6540
16078TIP3   OH269648   5.168   1.802  16.205 -0.4028  0.0581 -0.4418
16078TIP3    H169649   5.196   1.716  16.174  0.5888  0.0259  0.4776
16078TIP3    H269650   5.181   1.798  16.300  0.5196  1.5198 -0.4754
16079TIP3   OH269651   3.703   5.656   4.309  0.6202  0.6126  0.2944
16079TIP3    H169652   3.740   5.670   4.396 -0.7993  1.2787  0.8321
16079TIP3    H269653   3.759   5.707   4.250  1.4761  0.3138  0.8372
16080TIP3   OH269654   4.930   4.943   1.256 -0.1150 -0.6571  0.2574
16080TIP3    H169655   5.005   4.978   1.208 -0.8117 -2.0399 -2.0246
16080TIP3    H269656   4.965   4.868   1.304  0.0183 -1.2839 -0.7806
16081TIP3   OH269657   5.343   2.374  16.595  0.4592  0.0113  0.2547
16081TIP3    H169658   5.254   2.351  16.568  0.2627  0.6756  0.3065
16081TIP3    H269659   5.364   2.452  16.544  1.7501 -1.2089 -1.1774
16082TIP3   OH269660   2.619   1.824   4.434  0.7289  0.2289 -0.5518
16082TIP3    H169661   2.619   1.911   4.394 -1.9097  0.0521 -1.1692
16082TIP3    H269662   2.634   1.764   4.361  0.5929  0.0918 -0.4683
16083TIP3   OH269663   0.699   3.770   3.950  0.1178  0.2521  0.6046
16083TIP3    H169664   0.699   3.720   4.032  0.2791 -0.9866 -0.1232
16083TIP3    H269665   0.773   3.829   3.958  1.8762 -1.7798  0.2558
16084TIP3   OH269666   6.712   2.442  12.969  0.5527  0.2110  0.0519
16084TIP3    H169667   6.633   2.418  13.018  0.1557 -0.4413 -0.8768
16084TIP3    H269668   6.687   2.521  12.921  1.3828  1.6974  1.9326
16085TIP3   OH269669   3.946   0.213   0.673  0.6329  0.2449  0.3293
16085TIP3    H169670   3.885   0.286   0.661  2.3259  1.8348  0.9786
16085TIP3    H269671   3.925   0.153   0.601  0.9392  2.6324 -1.8829
16086TIP3   OH269672   2.270   0.101   5.249 -0.1917  0.0924 -0.1441
16086TIP3    H169673   2.294   0.022   5.201  0.2017  0.9849 -1.4845
16086TIP3    H269674   2.343   0.116   5.308 -0.8645 -1.2467  1.0956
16087TIP3   OH269675   4.066   3.199   5.326  0.1897 -0.5504  0.0838
16087TIP3    H169676   4.132   3.268   5.314  0.1644 -0.8316 -2.1383
16087TIP3    H269677   4.102   3.124   5.279  0.0218 -1.9667  2.1180
16088TIP3   OH269678   4.923   0.655  10.499 -0.1159 -0.4465  0.3822
16088TIP3    H169679   4.843   0.666  10.550 -0.3977 -0.2985 -0.0947
16088TIP3    H269680   4.897   0.670  10.409  0.2328 -1.4443  0.1023
16089TIP3   OH269681   0.179   6.674  15.242 -0.2086  1.0697 -0.5469
16089TIP3    H169682   0.120   6.599  15.233  0.1216  0.7783 -0.3240
16089TIP3    H269683   0.261   6.645  15.201  1.1184 -0.0452  2.5605
16090TIP3   OH269684   5.750   1.589   5.192  0.8563  0.4271  0.0548
16090TIP3    H169685   5.722   1.569   5.103  1.9884 -0.5775 -0.0977
16090TIP3    H269686   5.809   1.663   5.183  1.7419 -0.2928 -0.1626
16091TIP3   OH269687   5.302   5.665  15.852  0.2950 -0.7681 -0.3392
16091TIP3    H169688   5.386   5.682  15.894 -0.8296 -0.9314  2.1210
16091TIP3    H269689   5.297   5.729  15.782  2.9753 -1.5441 -1.3903
16092TIP3   OH269690   4.869   2.050  14.795 -0.1959 -0.2349  0.0940
16092TIP3    H169691   4.915   2.124  14.755  1.1220 -0.3924  1.2375
16092TIP3    H269692   4.787   2.087  14.826 -0.1400  0.4419 -0.5225
16093TIP3   OH269693   0.057   6.128  13.468 -0.4100 -0.0391  0.0055
16093TIP3    H169694   0.072   6.108  13.376  0.0105  0.7981 -0.1102
16093TIP3    H269695  -0.009   6.064  13.495  2.8098 -3.5811  0.4139
16094TIP3   OH269696   1.440   4.499   4.358  0.3210  0.8189 -0.5326
16094TIP3    H169697   1.440   4.425   4.298 -1.3019  0.8955 -0.6707
16094TIP3    H269698   1.359   4.491   4.407  1.6193  0.7175  1.7599
16095TIP3   OH269699   1.383   5.834  15.263  0.4297  0.4250  0.2185
16095TIP3    H169700   1.398   5.740  15.270  1.4364  0.6770  1.8232
16095TIP3    H269701   1.287   5.842  15.262  0.2328 -0.7357 -2.8398
16096TIP3   OH269702   2.681   1.295  11.631 -0.0685 -0.5417  0.2774
16096TIP3    H169703   2.688   1.375  11.579 -2.2765 -0.2323  0.3573
16096TIP3    H269704   2.740   1.308  11.705  0.2371  0.6290 -0.1603
16097TIP3   OH269705   0.716   2.931  14.967 -0.0575 -0.3905  0.0470
16097TIP3    H169706   0.744   2.858  14.912  2.9118  1.1078 -0.6326
16097TIP3    H269707   0.716   3.007  14.908 -0.0432  0.6873  1.3862
16098TIP3   OH269708   1.683   1.544  15.411 -0.6450  0.1606  0.4461
16098TIP3    H169709   1.611   1.586  15.366 -0.1308  0.1572 -0.4040
16098TIP3    H269710   1.716   1.610  15.472 -0.4560  0.6628 -0.1940
16099TIP3   OH269711   4.205   1.859   5.062  0.1444  0.0246  0.1662
16099TIP3    H169712   4.237   1.921   5.128  1.3784 -0.1407 -0.2583
16099TIP3    H269713   4.129   1.818   5.103 -0.2157  1.2353  0.7675
16100TIP3   OH269714   1.257   3.976   0.002 -0.2762 -0.3622 -0.0496
16100TIP3    H169715   1.315   3.970  -0.075 -0.3383 -0.0739 -0.1216
16100TIP3    H269716   1.315   4.003   0.073 -0.3233 -0.0426 -0.1286
16101TIP3   OH269717   4.498   6.114  15.456 -0.1780 -0.7704 -0.9921
16101TIP3    H169718   4.544   6.180  15.404 -1.7039  0.6681 -0.5872
16101TIP3    H269719   4.559   6.092  15.527  1.2570 -1.5349 -2.3899
16102TIP3   OH269720   4.644   0.216  11.517 -0.5936  0.6936 -0.8144
16102TIP3    H169721   4.602   0.217  11.431 -0.5597 -0.3248 -0.8481
16102TIP3    H269722   4.706   0.289  11.513 -2.4759  2.4112 -0.6663
16103TIP3   OH269723   1.082   6.754  15.464 -0.3368 -0.5622  0.2145
16103TIP3    H169724   1.095   6.772  15.371 -1.9363  1.0417  0.2573
16103TIP3    H269725   1.168   6.772  15.504 -0.3369  1.4347 -0.5954
16104TIP3   OH269726   3.800   2.897   3.441 -0.0478 -0.0823 -0.7341
16104TIP3    H169727   3.771   2.832   3.376  0.4155  0.1368 -1.1701
16104TIP3    H269728   3.774   2.861   3.525 -0.2641 -0.5855 -1.0155
16105TIP3   OH269729   5.726   1.192  15.562 -0.1476 -0.6159 -0.1692
16105TIP3    H169730   5.761   1.258  15.503  1.7842 -1.0380  0.4214
16105TIP3    H269731   5.638   1.223  15.584  0.6914  1.7431  0.0967
16106TIP3   OH269732   2.342   1.859   6.076 -0.1343  0.2887 -0.0573
16106TIP3    H169733   2.409   1.880   6.141  0.2334  0.0614 -0.3571
16106TIP3    H269734   2.324   1.942   6.032 -0.1773  0.3856  0.1446
16107TIP3   OH269735   4.078   2.758   2.901 -0.1123 -0.0976 -0.3884
16107TIP3    H169736   4.014   2.771   2.971 -1.1497  0.1366 -1.3534
16107TIP3    H269737   4.079   2.663   2.887 -2.8433  0.0618 -2.6322
16108TIP3   OH269738   1.600   0.574   0.924  0.1543 -0.6671  0.4199
16108TIP3    H169739   1.582   0.667   0.933  1.8677 -0.4622  2.8050
16108TIP3    H269740   1.539   0.544   0.857 -0.7119  2.0660 -0.1521
16109TIP3   OH269741   0.966   3.698   4.300 -0.2895  0.8937 -0.5677
16109TIP3    H169742   0.881   3.662   4.274 -0.2747  1.1019 -0.9142
16109TIP3    H269743   1.028   3.659   4.238 -0.2274  1.2481 -0.7336
16110TIP3   OH269744   0.077   2.329   5.397  0.0007  0.3517 -0.5803
16110TIP3    H169745   0.090   2.371   5.483  1.3840 -0.0356 -0.5817
16110TIP3    H269746   0.165   2.303   5.370 -0.5246 -0.2103 -1.7815
16111TIP3   OH269747   3.397   0.064  12.566 -0.0429  0.1346  0.2987
16111TIP3    H169748   3.342   0.039  12.640 -1.7447 -0.0775 -0.9558
16111TIP3    H269749   3.444  -0.016  12.542 -0.6726 -0.2077  0.1956
16112TIP3   OH269750   1.553   2.048   2.931  0.7816  0.1997 -0.2663
16112TIP3    H169751   1.633   2.100   2.921 -0.0161  1.8553  1.3354
16112TIP3    H269752   1.546   2.033   3.025  0.5707 -2.2752 -0.5929
16113TIP3   OH269753   3.376   6.229   0.442  0.2150 -0.5605 -0.3640
16113TIP3    H169754   3.451   6.239   0.383 -0.3219 -2.6524 -1.4783
16113TIP3    H269755   3.304   6.275   0.397  0.6326  0.9846  0.4551
16114TIP3   OH269756   3.721   6.719  11.378 -0.1400 -0.1672 -1.2183
16114TIP3    H169757   3.782   6.647  11.394  0.0969  0.1864 -0.4809
16114TIP3    H269758   3.648   6.679  11.330 -0.9662 -1.3395  0.8818
16115TIP3   OH269759   6.480   5.121  11.657 -0.6660 -0.8552  0.0236
16115TIP3    H169760   6.533   5.173  11.596  0.9125  0.4732  2.3766
16115TIP3    H269761   6.402   5.097  11.606  0.1113  0.9511 -2.2070
16116TIP3   OH269762   4.872   6.479   1.642  0.0886 -0.0922  0.2972
16116TIP3    H169763   4.893   6.387   1.630  2.3392  0.3552  0.3082
16116TIP3    H269764   4.897   6.520   1.559 -0.6044  0.5593  0.3961
16117TIP3   OH269765   2.640   4.821   2.147  0.0154  0.6775 -0.4331
16117TIP3    H169766   2.552   4.794   2.120 -0.1524 -0.5368  1.1880
16117TIP3    H269767   2.690   4.740   2.151  0.8521  1.1959 -0.0471
16118TIP3   OH269768   6.769   5.233  11.966 -0.0751 -0.5098 -0.2845
16118TIP3    H169769   6.829   5.263  11.898 -0.6685 -0.0467 -0.6112
16118TIP3    H269770   6.703   5.302  11.972  1.0976  0.5618  2.2715
16119TIP3   OH269771   0.423   1.644   0.726 -0.5907  0.4109  0.2319
16119TIP3    H169772   0.345   1.698   0.740 -3.3382 -2.9676 -0.4677
16119TIP3    H269773   0.426   1.630   0.632 -0.0382 -0.7092  0.4047
16120TIP3   OH269774   0.009   5.524  17.047 -0.3690  0.1866  0.0301
16120TIP3    H169775  -0.001   5.570  16.964 -0.8169 -0.2799 -0.1785
16120TIP3    H269776  -0.080   5.519  17.082  0.0848  2.7299  1.8371
16121TIP3   OH269777   6.584   4.793  16.726 -1.2491  0.1212 -0.0860
16121TIP3    H169778   6.605   4.887  16.730 -2.7100  0.4618  0.1083
16121TIP3    H269779   6.567   4.769  16.817 -0.3909 -0.4672 -0.0703
16122TIP3   OH269780   2.821   2.648   4.961  0.4318  0.7700  0.0388
16122TIP3    H169781   2.846   2.587   4.891 -1.0989  1.0820 -0.8416
16122TIP3    H269782   2.746   2.606   5.003 -1.2195  2.3418 -1.1442
16123TIP3   OH269783   4.928   4.668  12.393  0.4466 -0.0894  0.0309
16123TIP3    H169784   4.962   4.585  12.428 -1.0659 -0.4640  0.6850
16123TIP3    H269785   4.893   4.644  12.307 -3.0583 -0.9627  1.5413
16124TIP3   OH269786   0.750   4.209   2.868  0.3902  0.4767 -0.1224
16124TIP3    H169787   0.761   4.222   2.962 -1.0158  0.6668  0.0373
16124TIP3    H269788   0.712   4.122   2.860  1.3276  0.0894 -0.5963
16125TIP3   OH269789   2.655   2.408  13.899  0.6895  0.4824 -0.1842
16125TIP3    H169790   2.631   2.385  13.809  1.8001  1.0483 -0.6390
16125TIP3    H269791   2.692   2.328  13.936  0.2559  0.2569 -0.2358
16126TIP3   OH269792   4.703   5.303  12.338 -0.7509 -0.1585 -0.4566
16126TIP3    H169793   4.634   5.365  12.361 -0.7216 -1.2117  3.1239
16126TIP3    H269794   4.657   5.229  12.299 -1.5037 -0.1581  0.3915
16127TIP3   OH269795   3.472   2.301   0.756 -0.0276 -0.1458 -0.0711
16127TIP3    H169796   3.503   2.272   0.671  1.2126  1.6898 -0.3182
16127TIP3    H269797   3.503   2.233   0.817  2.0976  0.1730 -0.6920
16128TIP3   OH269798   5.290   1.271   0.227 -0.1568  0.2590 -0.0101
16128TIP3    H169799   5.298   1.217   0.306 -0.2771  0.8484  0.4182
16128TIP3    H269800   5.271   1.210   0.157  2.4110 -0.5924 -0.0609
16129TIP3   OH269801   0.476   1.203  11.351 -0.4594  0.1879 -0.7988
16129TIP3    H169802   0.555   1.254  11.334 -1.0958  1.2122 -0.8084
16129TIP3    H269803   0.435   1.194  11.265 -0.0358 -0.9211 -0.9056
16130TIP3   OH269804   2.371   6.028  14.171  0.1242  0.3285  0.8035
16130TIP3    H169805   2.454   5.984  14.150  0.0476  0.4982  0.1347
16130TIP3    H269806   2.331   5.972  14.237  1.0670  0.5811  1.6112
16131TIP3   OH269807   4.408   4.964  11.428  0.1599 -0.1381  0.5890
16131TIP3    H169808   4.476   4.983  11.493 -0.5122  0.3006  1.1667
16131TIP3    H269809   4.362   5.046  11.416  1.1823  0.2023 -1.5475
16132TIP3   OH269810   3.980   3.311  15.801  0.4332 -0.0302 -0.1217
16132TIP3    H169811   3.936   3.396  15.795 -0.5880 -0.5081  0.3217
16132TIP3    H269812   4.009   3.293  15.711  0.3416  0.6245 -0.2863
16133TIP3   OH269813   5.428   3.562   5.400  0.1321  0.3604  0.3248
16133TIP3    H169814   5.353   3.507   5.421 -0.2140  0.4048 -0.7237
16133TIP3    H269815   5.501   3.501   5.390  0.3022  0.3382  1.5752
16134TIP3   OH269816   2.973   1.617   5.107  0.8223  0.0680 -0.0477
16134TIP3    H169817   2.981   1.653   5.018  2.6947  0.2555  0.1639
16134TIP3    H269818   2.993   1.524   5.097  0.8427  0.0515  0.1547
16135TIP3   OH269819   6.609   4.888   3.789  0.1501 -0.0777 -0.0786
16135TIP3    H169820   6.578   4.881   3.880 -0.9319  0.6141 -0.3687
16135TIP3    H269821   6.628   4.981   3.778 -1.3197  0.1467 -1.0243
16136TIP3   OH269822   0.130   0.229  15.281  0.8213 -0.0251  0.1947
16136TIP3    H169823   0.041   0.194  15.279  0.6210  0.4401  0.6240
16136TIP3    H269824   0.181   0.168  15.229  0.1782 -0.0932 -0.3667
16137TIP3   OH269825   2.814   3.424   5.362  0.0100  0.7480 -0.7588
16137TIP3    H169826   2.835   3.502   5.311 -0.5589  0.3514 -1.6200
16137TIP3    H269827   2.784   3.360   5.298 -0.9594  0.3112  0.0889
16138TIP3   OH269828   0.833   1.347  14.837  0.1080 -0.3737 -0.1811
16138TIP3    H169829   0.869   1.290  14.904 -0.5359  0.3201  0.7905
16138TIP3    H269830   0.824   1.432  14.880 -2.3454 -0.4305 -0.4292
16139TIP3   OH269831   5.633   0.169   1.612  0.0742 -0.2573  0.7459
16139TIP3    H169832   5.642   0.077   1.587 -0.8713 -0.5986  1.5698
16139TIP3    H269833   5.683   0.177   1.693 -2.9560 -1.0808  2.8805
16140TIP3   OH269834   1.554   4.768   6.089  1.0132 -0.7371  0.0670
16140TIP3    H169835   1.642   4.803   6.074  0.5540  0.1552 -0.6091
16140TIP3    H269836   1.530   4.727   6.005 -0.4459  1.8083 -0.8719
16141TIP3   OH269837   2.302   4.001  15.508  0.0491 -0.3170  0.1855
16141TIP3    H169838   2.310   4.009  15.413  0.7566 -0.6274  0.2080
16141TIP3    H269839   2.391   4.017  15.541 -0.1939 -0.1869  0.7967
16142TIP3   OH269840   5.807   0.455   1.727 -0.1456 -0.1016  0.2491
16142TIP3    H169841   5.865   0.530   1.742  1.2030 -0.9258 -0.5606
16142TIP3    H269842   5.851   0.405   1.658 -1.0431 -1.5981  0.7171
16143TIP3   OH269843   0.687   4.964  12.300  0.2701  0.5051 -0.1189
16143TIP3    H169844   0.637   5.005  12.230 -0.1370  1.0457  0.4844
16143TIP3    H269845   0.632   4.891  12.329 -1.3155  2.4308  2.0921
16144TIP3   OH269846   0.673   3.064   2.330  0.8232  0.4235  0.3394
16144TIP3    H169847   0.751   3.024   2.292  0.8645  0.9023 -0.0910
16144TIP3    H269848   0.605   2.996   2.320  1.1376  0.0779  0.5472
16145TIP3   OH269849   2.334   3.503   6.111 -0.5233  0.4944 -0.2295
16145TIP3    H169850   2.303   3.415   6.091 -0.0580  0.0343  0.9607
16145TIP3    H269851   2.359   3.499   6.203 -1.8754  2.2832  0.2769
16146TIP3   OH269852   4.413   5.024   4.125 -0.6097  0.4542 -0.2605
16146TIP3    H169853   4.396   5.108   4.082 -1.5496  0.9931  1.0721
16146TIP3    H269854   4.330   4.977   4.119  0.1422 -0.8012 -1.7613
16147TIP3   OH269855   5.620   2.100  16.517  0.0625 -0.5796  0.3857
16147TIP3    H169856   5.618   2.012  16.480 -0.1518 -0.4707  0.1347
16147TIP3    H269857   5.580   2.155  16.450  0.8599 -0.1749  0.2354
16148TIP3   OH269858   4.672   5.676   5.417  0.0475 -0.1124  0.0213
16148TIP3    H169859   4.725   5.748   5.382  0.3901 -0.6311 -0.5592
16148TIP3    H269860   4.726   5.599   5.403  0.5645 -0.2679  2.4798
16149TIP3   OH269861   4.715   3.480   1.867  0.1401  0.2427  0.6994
16149TIP3    H169862   4.759   3.413   1.814  0.1320  0.5710  0.2659
16149TIP3    H269863   4.678   3.432   1.941 -1.4970 -0.5518 -0.5710
16150TIP3   OH269864   5.154   5.699   1.955  0.0834  0.2401  0.4970
16150TIP3    H169865   5.096   5.774   1.958  1.3644  1.2335  1.9603
16150TIP3    H269866   5.097   5.624   1.971 -1.0657  0.9722 -0.0072
16151TIP3   OH269867   2.977   4.807   2.109 -0.0451  0.1046  0.0670
16151TIP3    H169868   2.966   4.749   2.033 -0.8432  1.8876 -1.2541
16151TIP3    H269869   3.070   4.829   2.109  0.5003 -1.9679  1.2461
16152TIP3   OH269870   3.292   1.960   1.834 -0.3048  0.1114 -0.2698
16152TIP3    H169871   3.290   1.986   1.926 -0.5812  1.5532 -0.6663
16152TIP3    H269872   3.202   1.971   1.804 -0.2952 -0.7189 -0.6273
16153TIP3   OH269873   0.953   0.647  11.661 -0.3941  0.2339 -0.0518
16153TIP3    H169874   0.921   0.620  11.747 -1.1482 -0.7192 -0.6150
16153TIP3    H269875   0.928   0.576  11.602  1.1711  0.3046 -0.8660
16154TIP3   OH269876   6.502   1.688  17.135 -0.2774 -0.4526  0.4955
16154TIP3    H169877   6.479   1.779  17.120  0.6225 -0.2778  0.1531
16154TIP3    H269878   6.515   1.681  17.229  1.3792  0.2005  0.3441
16155TIP3   OH269879   2.827   5.353  16.153 -0.0695 -0.1282  0.0938
16155TIP3    H169880   2.881   5.423  16.115 -0.5996  0.1531 -0.1444
16155TIP3    H269881   2.746   5.354  16.102 -0.2490 -0.6451  0.3580
16156TIP3   OH269882   3.719   4.770  12.092  0.0511 -0.2085 -0.0087
16156TIP3    H169883   3.741   4.856  12.127  0.8825  0.0658 -1.1671
16156TIP3    H269884   3.781   4.756  12.020 -0.7053 -1.3455 -0.4708
16157TIP3   OH269885   5.044   3.359   2.878 -0.0166 -0.0227 -0.3997
16157TIP3    H169886   5.138   3.341   2.887 -0.4235 -1.2270  2.9158
16157TIP3    H269887   5.029   3.364   2.783  3.1757 -0.8763 -1.0574
16158TIP3   OH269888   1.906   3.084  16.690 -0.3409  0.2906  0.1726
16158TIP3    H169889   1.899   3.166  16.740  1.5894  1.0934 -0.7658
16158TIP3    H269890   1.996   3.056  16.704 -0.5813 -0.9468 -0.6435
16159TIP3   OH269891   4.745   4.507  12.068 -0.1037 -0.1694 -0.3723
16159TIP3    H169892   4.821   4.468  12.025 -0.1185  1.3443 -1.8958
16159TIP3    H269893   4.671   4.454  12.037  0.1521 -0.6564 -0.1628
16160TIP3   OH269894   0.105   3.086  12.523  0.1517  0.6290 -0.0273
16160TIP3    H169895   0.067   3.173  12.514  1.0754  0.9318 -1.3082
16160TIP3    H269896   0.159   3.092  12.602 -0.0278  1.1268  0.0611
16161TIP3   OH269897   2.073   4.498  12.882 -0.1703  0.4691  0.1442
16161TIP3    H169898   2.037   4.486  12.970 -2.0164  0.9875 -0.4949
16161TIP3    H269899   2.125   4.419  12.866  0.2464  0.4023  1.7169
16162TIP3   OH269900   3.371   1.134   1.805 -0.2472 -0.3615  0.2043
16162TIP3    H169901   3.289   1.119   1.853 -0.2532  1.0470  0.6856
16162TIP3    H269902   3.439   1.128   1.872  0.5394 -4.9142 -0.6756
16163TIP3   OH269903   6.393   4.969   4.341 -0.5955  0.7107  0.1386
16163TIP3    H169904   6.315   5.014   4.372 -1.2420  0.1379 -0.5930
16163TIP3    H269905   6.384   4.880   4.375 -0.0582  0.7458  0.3819
16164TIP3   OH269906   4.759   0.036  15.139  0.0575 -0.0575 -0.6720
16164TIP3    H169907   4.738  -0.036  15.200 -0.4036 -0.1159 -0.8898
16164TIP3    H269908   4.674   0.059  15.101  0.0779  1.1206 -0.0494
16165TIP3   OH269909   0.652   4.669  16.264 -0.5440 -0.1229 -0.4029
16165TIP3    H169910   0.714   4.740  16.245  1.1941 -1.3294  0.4882
16165TIP3    H269911   0.614   4.693  16.349  0.0771 -0.2591 -0.0779
16166TIP3   OH269912   6.209   6.649   3.894  0.3271 -0.1121 -0.6932
16166TIP3    H169913   6.186   6.564   3.857 -3.1851  0.9697 -1.3533
16166TIP3    H269914   6.189   6.712   3.824 -2.5904  1.6588  1.5086
16167TIP3   OH269915   3.014   3.172  15.531  0.2704  0.2439  0.1057
16167TIP3    H169916   3.049   3.216  15.452  0.5936  1.2850  0.8036
16167TIP3    H269917   3.091   3.133  15.572  0.3731  1.0614  0.7263
16168TIP3   OH269918   2.437   6.589   4.265  0.0272  0.0247  0.3723
16168TIP3    H169919   2.477   6.646   4.331 -0.4347 -0.5367  1.1503
16168TIP3    H269920   2.422   6.506   4.311 -1.8100  0.1492  0.0380
16169TIP3   OH269921   2.987   0.215   5.321  0.0588 -0.1332  0.4146
16169TIP3    H169922   2.902   0.179   5.344  0.2680 -1.3326 -0.5470
16169TIP3    H269923   2.991   0.301   5.364 -0.7325 -0.9851  2.2453
16170TIP3   OH269924   3.991   6.139  11.140 -0.3307 -0.1991 -0.3534
16170TIP3    H169925   3.896   6.142  11.128 -0.6013  0.1922  1.4794
16170TIP3    H269926   4.003   6.154  11.234  1.6001  0.9510 -0.7287
16171TIP3   OH269927   3.406   2.209   5.652 -0.1997  0.3365 -0.2406
16171TIP3    H169928   3.402   2.216   5.747  0.3949  2.3484 -0.3349
16171TIP3    H269929   3.319   2.175   5.627  0.0395 -1.3584  1.0493
16172TIP3   OH269930   2.048   1.052  14.982  0.0698 -0.3862  0.7172
16172TIP3    H169931   2.022   0.960  14.970  0.1470 -0.1632 -1.5597
16172TIP3    H269932   2.064   1.084  14.893 -0.5866  2.0327  1.4021
16173TIP3   OH269933   4.419   1.748  10.792 -0.0977 -0.2040  0.4561
16173TIP3    H169934   4.474   1.690  10.739  1.5498 -0.2732  2.1380
16173TIP3    H269935   4.444   1.836  10.765 -0.2544 -0.2405  0.1829
16174TIP3   OH269936   0.190   0.774  16.072 -0.1679 -0.0830  0.1127
16174TIP3    H169937   0.282   0.791  16.092 -0.3050  1.7977 -0.5826
16174TIP3    H269938   0.185   0.680  16.057  1.8327 -0.1103 -0.6989
16175TIP3   OH269939   1.194   1.358  15.683  0.1994 -0.5055  0.6490
16175TIP3    H169940   1.120   1.418  15.698 -2.0143 -2.7629 -0.5336
16175TIP3    H269941   1.179   1.286  15.744  0.6390 -1.6388 -0.5347
16176TIP3   OH269942   6.547   0.643   5.690 -0.0695 -0.2957  0.5955
16176TIP3    H169943   6.581   0.726   5.656 -0.6798 -0.2470  0.0740
16176TIP3    H269944   6.578   0.639   5.780  0.0795  0.4340  0.5832
16177TIP3   OH269945   1.111   5.584   5.683  0.0186  0.1654 -0.2005
16177TIP3    H169946   1.204   5.567   5.698 -0.2629 -0.1395  1.3429
16177TIP3    H269947   1.099   5.675   5.712  0.1646  0.8701 -2.1401
16178TIP3   OH269948   0.026   3.419   5.124 -0.3499 -0.1687  0.2145
16178TIP3    H169949   0.107   3.402   5.172 -0.3185 -2.8178 -0.6093
16178TIP3    H269950  -0.018   3.488   5.174  2.3518  1.3315  0.6898
16179TIP3   OH269951   2.051   4.271   5.106 -0.0106 -0.4565  0.0309
16179TIP3    H169952   2.022   4.319   5.029 -1.3871 -0.5939  0.4378
16179TIP3    H269953   2.073   4.183   5.074  1.8672  0.2027 -0.6000
16180TIP3   OH269954   3.156   3.365  16.616 -0.4601  0.2392  0.8629
16180TIP3    H169955   3.062   3.382  16.611 -1.0190 -2.2671  1.2662
16180TIP3    H269956   3.195   3.451  16.633 -2.5000  1.5936 -0.7899
16181TIP3   OH269957   4.180   5.774   1.802  0.2906 -0.5353  0.2892
16181TIP3    H169958   4.104   5.832   1.795 -0.0666 -1.0133  0.0848
16181TIP3    H269959   4.143   5.686   1.793  0.8336 -0.7896  0.4900
16182TIP3   OH269960   2.063   2.853  16.277 -0.0333 -0.3894 -0.2894
16182TIP3    H169961   2.125   2.811  16.336  1.0269  1.5174  0.0588
16182TIP3    H269962   2.072   2.806  16.194  1.0880 -0.8330  0.0745
16183TIP3   OH269963   4.408   4.217   6.204  0.2670 -0.9042  0.2508
16183TIP3    H169964   4.498   4.250   6.195 -0.1822  0.1861 -0.5994
16183TIP3    H269965   4.385   4.186   6.116 -0.9872  1.0832 -0.1975
16184TIP3   OH269966   5.562   3.883   1.306 -0.3243 -0.6502  0.2841
16184TIP3    H169967   5.618   3.873   1.229 -0.9164 -0.4999 -0.1696
16184TIP3    H269968   5.525   3.796   1.320 -1.3720 -0.3472 -0.5015
16185TIP3   OH269969   1.998   3.176  11.460  0.1948  0.1334  0.1064
16185TIP3    H169970   2.068   3.224  11.503  0.8887 -1.4100  0.7927
16185TIP3    H269971   2.044   3.112  11.404 -0.6622 -0.3846 -0.0305
16186TIP3   OH269972   2.909   6.658  13.103  0.8416 -0.2849  0.1500
16186TIP3    H169973   2.852   6.581  13.107 -1.3141  1.2526  1.4344
16186TIP3    H269974   2.937   6.672  13.194  0.5728  0.8716  0.0691
16187TIP3   OH269975   5.466   0.980   3.959 -0.1098 -0.3526 -0.2517
16187TIP3    H169976   5.420   0.954   3.879  1.7804 -1.4022 -1.0444
16187TIP3    H269977   5.418   0.936   4.029 -1.5439  0.2420 -0.8225
16188TIP3   OH269978   2.964   1.447   0.658  0.1369  0.6071  0.3879
16188TIP3    H169979   3.000   1.536   0.653  0.7697  0.5141  2.3763
16188TIP3    H269980   3.036   1.394   0.693 -0.7041 -0.4009  0.6549
16189TIP3   OH269981   3.892   0.170  14.400  0.2296  0.3223  1.0394
16189TIP3    H169982   3.898   0.182  14.305 -2.1703  1.0430  0.9247
16189TIP3    H269983   3.952   0.098  14.419  0.3941 -0.1458 -1.0808
16190TIP3   OH269984   2.657   6.762   3.369 -0.0358  0.3503 -0.4152
16190TIP3    H169985   2.578   6.723   3.332 -1.8568  2.2750  1.2390
16190TIP3    H269986   2.655   6.737   3.461  1.2213  0.5662 -0.3111
16191TIP3   OH269987   1.739   4.141  15.095 -0.4838  0.2426 -0.4534
16191TIP3    H169988   1.800   4.136  15.021 -1.7166 -1.8911 -1.4247
16191TIP3    H269989   1.787   4.190  15.162  1.3328  0.7770 -2.0292
16192TIP3   OH269990   3.974   2.467  12.281 -0.6489 -0.2388  0.0990
16192TIP3    H169991   4.019   2.451  12.364  1.4859  2.0086 -0.4980
16192TIP3    H269992   3.952   2.560  12.284 -1.3625 -0.3381 -1.4805
16193TIP3   OH269993   3.023   0.377   0.729  0.3148  0.5858  0.2512
16193TIP3    H169994   2.929   0.358   0.725  0.5310 -0.3526 -2.2847
16193TIP3    H269995   3.034   0.452   0.670  0.9411  1.9646  2.0421
16194TIP3   OH269996   2.100   4.740   0.353 -0.2456 -0.1848 -0.3060
16194TIP3    H169997   2.025   4.680   0.352 -0.7894  0.4821 -0.0170
16194TIP3    H269998   2.088   4.794   0.275 -0.2601  0.1499 -0.0741
16195TIP3   OH269999   4.024   6.009  15.093 -0.5885  0.2254 -0.2561
16195TIP3    H170000   4.026   6.026  15.187 -0.1488 -1.7572  0.1296
16195TIP3    H270001   3.933   6.027  15.068 -0.9982 -0.3180  0.7812
16196TIP3   OH270002   1.534   4.239  10.687 -0.4383  0.0697  0.2867
16196TIP3    H170003   1.479   4.314  10.706 -1.4590 -0.4471 -0.5121
16196TIP3    H270004   1.498   4.203  10.606  0.1536 -1.1514  0.5396
16197TIP3   OH270005   0.442   2.528   5.442  0.2513  0.0454 -0.0028
16197TIP3    H170006   0.412   2.517   5.351  1.8656  1.7022 -0.8201
16197TIP3    H270007   0.367   2.565   5.488 -1.3854 -3.0064  0.0136
16198TIP3   OH270008   4.417   0.819  13.775  0.5275 -0.5830  0.4337
16198TIP3    H170009   4.398   0.861  13.860  0.1975 -0.3003  0.2259
16198TIP3    H270010   4.449   0.890  13.720 -0.9743 -0.3707 -0.2271
16199TIP3   OH270011   1.806   1.508  16.718 -0.5084 -0.9210 -0.5430
16199TIP3    H170012   1.805   1.421  16.757 -0.2018 -0.8817 -0.4454
16199TIP3    H270013   1.720   1.517  16.677 -0.4063 -1.4092 -0.8705
16200TIP3   OH270014   4.195   5.387  14.507  0.8480 -0.2210  0.2598
16200TIP3    H170015   4.137   5.356  14.576  0.6929 -0.7825 -0.1167
16200TIP3    H270016   4.264   5.320  14.501  1.9608  0.7869  1.1956
16201TIP3   OH270017   0.506   5.049  12.128  0.1908 -0.2042  1.0382
16201TIP3    H170018   0.454   5.129  12.121 -0.3141 -0.6346 -0.4764
16201TIP3    H270019   0.441   4.979  12.136  0.4424 -0.7897 -1.2373
16202TIP3   OH270020   2.079   1.745  12.685 -0.4072  0.4165  0.0298
16202TIP3    H170021   2.006   1.773  12.740 -0.3760 -2.4257  1.7260
16202TIP3    H270022   2.075   1.650  12.687  0.3732  0.1290 -3.9948
16203TIP3   OH270023   6.664   4.078   0.626 -0.0359 -0.2044 -0.1188
16203TIP3    H170024   6.594   4.078   0.691 -1.4531  1.1108 -1.5399
16203TIP3    H270025   6.659   3.992   0.585 -0.0278 -0.5456  0.5869
16204TIP3   OH270026   3.623   5.143   5.526  0.1203 -0.0039 -1.0727
16204TIP3    H170027   3.598   5.189   5.446  1.7211  1.5614 -0.7291
16204TIP3    H270028   3.699   5.191   5.558  2.5124 -3.3801 -1.1554
16205TIP3   OH270029   2.726   4.065   4.464  0.6421  0.5092  0.8964
16205TIP3    H170030   2.646   4.112   4.486 -2.0275 -2.4995 -1.2979
16205TIP3    H270031   2.741   4.007   4.539 -1.7271 -1.6808 -0.1585
16206TIP3   OH270032   3.403   5.899  13.322 -0.5869 -0.1231  0.1400
16206TIP3    H170033   3.408   5.809  13.290 -1.5644 -0.5686  1.1698
16206TIP3    H270034   3.322   5.933  13.285 -0.6916  0.0210  0.4921
16207TIP3   OH270035   6.344   2.906  13.595  0.4849  0.3235  0.0327
16207TIP3    H170036   6.292   2.887  13.673  0.0188  0.4221 -0.2473
16207TIP3    H270037   6.338   2.825  13.543  0.6656  0.3109  0.0334
16208TIP3   OH270038   6.632   3.386   1.539  0.6580 -0.5660 -0.0709
16208TIP3    H170039   6.640   3.370   1.445 -3.9031  0.6177 -0.8799
16208TIP3    H270040   6.630   3.482   1.546  0.0624 -0.6562  1.1276
16209TIP3   OH270041   4.442   5.899   4.016 -0.1132  0.2576 -0.2161
16209TIP3    H170042   4.441   5.979   3.963  2.0177  0.0486 -0.6410
16209TIP3    H270043   4.533   5.871   4.016 -0.1347 -0.1412  3.0075
16210TIP3   OH270044   0.261   6.629  13.820 -0.4399 -0.0131 -0.0900
16210TIP3    H170045   0.247   6.631  13.725 -1.9697 -0.0917  0.0998
16210TIP3    H270046   0.336   6.571  13.833  1.0975  1.5874 -1.3635
16211TIP3   OH270047   5.046   1.455   4.414  0.3009  0.5691 -0.1372
16211TIP3    H170048   5.107   1.516   4.455 -0.2426  0.1561  1.3437
16211TIP3    H270049   5.098   1.377   4.397  0.2045  0.2229  1.1089
16212TIP3   OH270050   2.429   3.375   4.024 -0.6385 -0.6090  0.7030
16212TIP3    H170051   2.350   3.362   4.077  0.1196 -1.6282  1.6349
16212TIP3    H270052   2.501   3.351   4.083  0.4303  1.0054  0.1206
16213TIP3   OH270053   5.524   2.398   6.189 -0.2542 -0.1532  0.8099
16213TIP3    H170054   5.593   2.465   6.187  2.2591 -2.5452  0.3291
16213TIP3    H270055   5.517   2.370   6.098 -0.6571 -1.0864  1.1240
16214TIP3   OH270056   6.545   0.514   5.013 -0.3881  0.5883  0.4131
16214TIP3    H170057   6.630   0.553   4.993 -0.6538  1.8927  1.6593
16214TIP3    H270058   6.554   0.482   5.103 -0.7511 -0.6635  0.0263
16215TIP3   OH270059   0.735   6.209   6.690  0.0054  0.1269 -0.9258
16215TIP3    H170060   0.693   6.292   6.714 -0.3707 -0.2404 -0.2686
16215TIP3    H270061   0.712   6.196   6.598  0.2242  0.8448 -1.0858
16216TIP3   OH270062   5.500   4.113   1.099 -0.1282 -0.0668 -0.3284
16216TIP3    H170063   5.436   4.184   1.092  0.1960  0.1167 -1.7630
16216TIP3    H270064   5.517   4.105   1.193  0.2131  2.1223 -0.1413
16217TIP3   OH270065   0.177   0.396   3.387 -0.1324  0.8634 -0.0916
16217TIP3    H170066   0.105   0.458   3.374 -1.2226 -0.3576 -0.0934
16217TIP3    H270067   0.160   0.358   3.473  0.7176  0.7996  0.0556
16218TIP3   OH270068   4.344   2.178   2.829 -0.4226 -0.1465  0.6595
16218TIP3    H170069   4.363   2.112   2.896  1.6423 -0.9546 -0.6137
16218TIP3    H270070   4.282   2.237   2.870 -0.3214 -1.4167  2.7747
16219TIP3   OH270071   2.563   6.589  13.063 -0.5075  0.0018  0.5690
16219TIP3    H170072   2.651   6.556  13.046 -0.0431  0.5850  1.7297
16219TIP3    H270073   2.550   6.656  12.996  0.3828  0.6795  1.0446
16220TIP3   OH270074   6.617   0.272   2.209  0.0727 -0.0425  0.3131
16220TIP3    H170075   6.633   0.362   2.179  0.1681  0.2262  1.1342
16220TIP3    H270076   6.527   0.274   2.241 -0.0621 -0.3502 -0.0479
16221TIP3   OH270077   4.529   0.858  12.216  0.3784  0.4247  0.4364
16221TIP3    H170078   4.511   0.806  12.138 -3.8277  0.8303  0.9497
16221TIP3    H270079   4.537   0.948  12.184 -0.6171  0.4959  0.3669
16222TIP3   OH270080   0.484   3.324   3.892  0.1488 -0.5298 -0.5556
16222TIP3    H170081   0.403   3.277   3.873 -0.7436  1.4841 -2.1848
16222TIP3    H270082   0.529   3.329   3.808  0.9466  0.1584 -0.1004
16223TIP3   OH270083   3.447   5.975   2.470  0.2465 -0.0384  0.6131
16223TIP3    H170084   3.414   5.908   2.530  0.2911  1.1993  2.0554
16223TIP3    H270085   3.434   6.058   2.516 -1.0068  1.1282 -1.6412
16224TIP3   OH270086   4.871   0.829   3.916  0.1013  0.3212  0.3148
16224TIP3    H170087   4.870   0.832   3.820  0.3028 -0.6258  0.2796
16224TIP3    H270088   4.840   0.916   3.942 -0.5281  0.3919 -0.6031
16225TIP3   OH270089   6.418   6.712   0.149  0.2178 -0.2320 -0.2065
16225TIP3    H170090   6.420   6.754   0.064 -0.6233 -1.4167 -0.8344
16225TIP3    H270091   6.503   6.668   0.156  0.2901 -0.1268 -0.4312
16226TIP3   OH270092   6.415   5.897  15.375  0.3131 -0.4973 -0.3679
16226TIP3    H170093   6.335   5.917  15.325  0.5826  0.7088 -0.3660
16226TIP3    H270094   6.461   5.831  15.323  0.6880  0.8689 -1.8619
16227TIP3   OH270095   1.881   5.045   1.278  0.2383  0.2984  0.0499
16227TIP3    H170096   1.813   5.112   1.286 -0.2831 -0.3437  1.2185
16227TIP3    H270097   1.836   4.971   1.238  0.0157 -0.4290  1.6098
16228TIP3   OH270098   5.162   6.337   1.389  0.0651  0.7723 -0.9903
16228TIP3    H170099   5.087   6.277   1.382  0.5865  0.2762 -2.7563
16228TIP3    H270100   5.200   6.316   1.474 -0.0367 -1.1203 -1.3583
16229TIP3   OH270101   1.816   1.997   2.645 -0.2335 -0.2028 -0.1530
16229TIP3    H170102   1.830   1.924   2.584  2.3784  1.7857 -2.1406
16229TIP3    H270103   1.769   2.062   2.593 -0.2015  0.5770  0.7820
16230TIP3   OH270104   5.690   1.605   4.590 -0.0990 -0.1080 -0.4533
16230TIP3    H170105   5.683   1.695   4.559  0.8784  0.3871  0.6820
16230TIP3    H270106   5.609   1.589   4.637 -0.0330  0.3838 -0.1723
16231TIP3   OH270107   3.799   2.587  12.600 -0.3574 -0.7397  0.2334
16231TIP3    H170108   3.854   2.517  12.566 -1.3420 -1.5332  0.2334
16231TIP3    H270109   3.861   2.648  12.641  0.6451 -0.8814 -0.9941
16232TIP3   OH270110   1.428   1.477  15.606  0.1786  0.3543  0.3575
16232TIP3    H170111   1.361   1.409  15.611  1.2306 -0.7366 -0.1377
16232TIP3    H270112   1.409   1.523  15.524  0.6777 -0.6570 -0.3406
16233TIP3   OH270113   0.894   1.350  11.465 -0.8346  0.0870 -0.0599
16233TIP3    H170114   0.912   1.443  11.450 -1.5636  0.3087  0.4073
16233TIP3    H270115   0.805   1.337  11.434 -0.6082 -0.5483 -0.4719
16234TIP3   OH270116   6.581   2.382  11.400  0.6652 -0.1224  0.6936
16234TIP3    H170117   6.497   2.357  11.439  0.2175 -1.8195 -1.1741
16234TIP3    H270118   6.583   2.478  11.404 -0.3145 -0.1419  2.7689
16235TIP3   OH270119   0.226   4.085  15.222 -0.1260 -0.6696 -0.0345
16235TIP3    H170120   0.285   4.157  15.244  0.3579 -0.6738 -1.2305
16235TIP3    H270121   0.262   4.010  15.269 -0.0449 -0.3505  0.4179
16236TIP3   OH270122   5.676   5.444  17.072 -0.5677 -0.5855 -0.3637
16236TIP3    H170123   5.597   5.472  17.120  0.2674 -1.7822  1.8642
16236TIP3    H270124   5.740   5.425  17.141  0.9646 -1.7447 -2.0265
16237TIP3   OH270125   4.457   1.016   1.711 -0.2032 -0.2664 -1.2641
16237TIP3    H170126   4.484   1.030   1.621  0.4130  0.2736 -1.0122
16237TIP3    H270127   4.400   1.090   1.731  1.9360  1.2420 -0.3606
16238TIP3   OH270128   2.462   2.591   4.372 -0.3247  0.1538 -0.0402
16238TIP3    H170129   2.529   2.638   4.322 -0.0480  0.5520  0.6810
16238TIP3    H270130   2.393   2.572   4.309  0.6079 -0.5612 -0.8794
16239TIP3   OH270131   5.483   3.211   4.948 -0.1652  0.5957 -0.0112
16239TIP3    H170132   5.445   3.123   4.945 -0.7110  0.7526  1.6217
16239TIP3    H270133   5.574   3.197   4.976  0.6473  0.3521 -2.5009
16240TIP3   OH270134   2.401   2.285   4.866 -0.9217  0.0424  0.2468
16240TIP3    H170135   2.414   2.242   4.781  0.4037 -1.7265  1.2705
16240TIP3    H270136   2.325   2.240   4.905  0.3065 -1.3157  1.2069
16241TIP3   OH270137   6.397   3.219  15.246  0.1492  0.0655 -0.1687
16241TIP3    H170138   6.412   3.308  15.215 -1.7462  1.6873  3.0498
16241TIP3    H270139   6.482   3.192  15.281  0.8541  0.3993 -1.5570
16242TIP3   OH270140   6.758   3.080  11.828  0.2682  0.8160  0.5497
16242TIP3    H170141   6.852   3.097  11.833  0.7322 -1.4320  0.5520
16242TIP3    H270142   6.742   3.057  11.737 -0.2242  0.8855  0.6152
16243TIP3   OH270143   6.042   3.526   1.211  0.2065  0.6140  0.5175
16243TIP3    H170144   6.120   3.578   1.189  1.4911 -1.0398  0.9474
16243TIP3    H270145   6.065   3.437   1.185 -1.4102  0.0108  1.0469
16244TIP3   OH270146   6.058   4.862   0.415 -0.5112  0.1335 -0.4860
16244TIP3    H170147   6.104   4.794   0.465 -2.1794  0.1580  1.1520
16244TIP3    H270148   5.973   4.824   0.396 -1.2891  1.5702  0.0099
16245TIP3   OH270149   4.456   3.474  14.764  0.0722  0.8935 -0.0966
16245TIP3    H170150   4.452   3.428  14.848  0.8335  0.3106 -0.3724
16245TIP3    H270151   4.392   3.430  14.709 -2.4449  2.9932  0.9707
16246TIP3   OH270152   3.264   5.915   3.740 -0.1534 -0.1253 -0.4653
16246TIP3    H170153   3.204   5.877   3.676 -0.0938  0.5323 -0.9267
16246TIP3    H270154   3.218   5.907   3.823 -0.7276  0.0480 -0.7583
16247TIP3   OH270155   1.867   1.839  14.937 -0.2042  0.4751 -0.3209
16247TIP3    H170156   1.801   1.906  14.922  0.8692  2.1593  1.8740
16247TIP3    H270157   1.840   1.796  15.018 -0.1854 -0.9195 -1.0221
16248TIP3   OH270158   4.689   0.756   2.910 -0.2938  0.0394  0.6121
16248TIP3    H170159   4.619   0.702   2.946 -1.1509  1.4248  1.0986
16248TIP3    H270160   4.648   0.804   2.838  0.2223  0.6524  0.7189
16249TIP3   OH270161   3.340   1.695   1.733  0.4092 -0.0575  0.0064
16249TIP3    H170162   3.336   1.767   1.670 -0.7590 -1.4345 -1.5664
16249TIP3    H270163   3.432   1.669   1.735  0.3514 -0.5045 -1.7762
16250TIP3   OH270164   6.009   5.902  11.890  0.3287 -0.0346 -0.7108
16250TIP3    H170165   5.922   5.888  11.852  0.6596  0.5278 -1.7037
16250TIP3    H270166   6.035   5.989  11.859  1.9726 -0.8891 -1.8891
16251TIP3   OH270167   6.704   0.346  12.320 -0.4809 -0.4055 -0.0277
16251TIP3    H170168   6.631   0.332  12.381 -1.0420 -0.0739 -0.6160
16251TIP3    H270169   6.664   0.347  12.234  0.6983 -4.1149 -0.7699
16252TIP3   OH270170   6.108   1.250   2.486  0.6992 -0.2205  0.0383
16252TIP3    H170171   6.083   1.270   2.576  1.7065 -0.4024  0.3672
16252TIP3    H270172   6.095   1.156   2.478 -1.7567  0.1081 -0.7886
16253TIP3   OH270173   0.708   2.311   1.850 -0.0547 -0.6359  0.4139
16253TIP3    H170174   0.650   2.284   1.921 -0.5857 -0.3900  0.0825
16253TIP3    H270175   0.757   2.385   1.886 -0.7949 -0.0854  0.3217
16254TIP3   OH270176   3.500   1.177  15.912  0.0674  0.0090 -0.1055
16254TIP3    H170177   3.525   1.241  15.979  0.1295 -0.0431 -0.0790
16254TIP3    H270178   3.416   1.209  15.878  0.7974  0.8980 -1.1116
16255TIP3   OH270179   1.065   3.832  17.099 -0.2035  0.2242 -0.0851
16255TIP3    H170180   1.105   3.889  17.166 -0.4770  0.7353 -0.3477
16255TIP3    H270181   0.992   3.789  17.144 -1.3316  1.7019 -0.4220
16256TIP3   OH270182   5.297   4.004   1.630  0.2439  0.1133  0.3238
16256TIP3    H170183   5.369   3.940   1.634  0.9651  0.8489 -0.5824
16256TIP3    H270184   5.310   4.059   1.707  0.5052  0.0972  0.2914
16257TIP3   OH270185   2.210   1.591   5.240 -0.0218 -0.1886 -0.1880
16257TIP3    H170186   2.239   1.657   5.177 -0.4114 -1.3535 -1.6139
16257TIP3    H270187   2.210   1.509   5.192  1.1871 -1.4073  1.7557
16258TIP3   OH270188   4.052   3.951  12.491  0.1566  0.2889 -0.7799
16258TIP3    H170189   4.125   3.921  12.545 -0.4749 -1.1205 -0.6639
16258TIP3    H270190   4.011   4.019  12.544 -0.0178 -0.5625  0.2247
16259TIP3   OH270191   4.302   3.826   4.855 -0.4630 -0.2116  0.0367
16259TIP3    H170192   4.297   3.801   4.763 -0.0333  1.4895 -0.4976
16259TIP3    H270193   4.229   3.781   4.896 -0.1693 -1.6583 -0.9598
16260TIP3   OH270194   0.689   0.352  11.340 -0.2994 -0.1692  0.2871
16260TIP3    H170195   0.746   0.425  11.317 -2.2906  1.2957 -0.2213
16260TIP3    H270196   0.682   0.357  11.436 -0.3460  0.2336  0.2648
16261TIP3   OH270197   0.796   6.437  13.040 -0.3836  0.2878  0.3195
16261TIP3    H170198   0.802   6.482  12.956 -0.7785  1.3118  0.8271
16261TIP3    H270199   0.822   6.347  13.021  1.3580  0.9279 -0.5500
16262TIP3   OH270200   0.942   4.267   2.353 -0.6343 -0.2025  0.2342
16262TIP3    H170201   0.873   4.332   2.368  0.7069  1.6304 -1.0901
16262TIP3    H270202   1.023   4.315   2.367  0.4446 -2.2869  1.7189
16263TIP3   OH270203   2.358   5.688   0.042  0.0415  0.1539  0.2716
16263TIP3    H170204   2.311   5.769   0.065 -0.2395  0.9938 -2.8647
16263TIP3    H270205   2.336   5.627   0.113 -4.4997  0.9978 -0.1107
16264TIP3   OH270206   2.022   5.655   4.782 -0.2122  0.7017 -0.4608
16264TIP3    H170207   1.954   5.702   4.830 -1.1820 -1.5902  0.5621
16264TIP3    H270208   2.093   5.645   4.845  0.0992  0.9914 -0.7605
16265TIP3   OH270209   2.308   4.097   2.109 -0.4471  0.0555  0.2518
16265TIP3    H170210   2.387   4.113   2.057  0.3073 -1.8759  0.6896
16265TIP3    H270211   2.236   4.124   2.052  0.4259 -0.5102 -1.1844
16266TIP3   OH270212   6.523   5.731   5.801 -0.2828 -0.3486  0.6139
16266TIP3    H170213   6.439   5.773   5.818 -1.1002 -1.6643  0.0136
16266TIP3    H270214   6.537   5.674   5.877  0.6548  0.6891  1.2623
16267TIP3   OH270215   3.002   6.211   0.974  0.1073  0.3246  0.4883
16267TIP3    H170216   3.021   6.293   0.930 -0.1336 -0.7103 -1.6637
16267TIP3    H270217   2.919   6.227   1.020  0.0321  1.2595  0.0463
16268TIP3   OH270218   4.206   0.857   4.630 -0.2643  0.4968 -0.3006
16268TIP3    H170219   4.208   0.769   4.667  2.3894  0.7044  0.2577
16268TIP3    H270220   4.220   0.845   4.536 -1.1438  0.2917 -0.4160
16269TIP3   OH270221   5.030   0.467   5.412 -0.0655 -0.2508 -0.1625
16269TIP3    H170222   5.062   0.556   5.400  0.6973 -0.3586  0.8482
16269TIP3    H270223   4.982   0.447   5.332 -0.3388  1.0972 -0.3617
16270TIP3   OH270224   0.096   0.175   3.941 -0.4627 -0.6446 -0.1293
16270TIP3    H170225   0.152   0.228   3.997  0.0333 -0.4499 -0.7931
16270TIP3    H270226   0.127   0.086   3.952  0.0791 -0.5194 -0.6021
16271TIP3   OH270227   4.330   4.726   3.040 -0.3897  0.0007 -0.5340
16271TIP3    H170228   4.316   4.632   3.036 -0.4354 -0.1325  1.6495
16271TIP3    H270229   4.269   4.756   3.108  1.7125  1.1363  0.9424
16272TIP3   OH270230   4.051   5.649   4.993 -0.3724 -0.0460  0.0127
16272TIP3    H170231   4.113   5.619   5.059 -0.7010  0.3562  0.5183
16272TIP3    H270232   4.058   5.585   4.922 -0.2677 -0.6946  0.5918
16273TIP3   OH270233   4.405   2.569   2.022 -0.2696 -0.2144 -0.2703
16273TIP3    H170234   4.341   2.502   2.001 -1.3369  1.0275 -1.0953
16273TIP3    H270235   4.473   2.523   2.071 -0.6141 -2.0272 -1.4236
16274TIP3   OH270236   1.001   6.196  12.040 -0.0026  0.3063 -0.1456
16274TIP3    H170237   1.095   6.201  12.024  0.0596  1.1300  0.3853
16274TIP3    H270238   0.969   6.130  11.979  1.0347 -0.5339  0.2020
16275TIP3   OH270239   6.358   1.313   3.331  0.1024 -0.6405  0.1176
16275TIP3    H170240   6.275   1.271   3.310  0.2598  0.3258 -2.8617
16275TIP3    H270241   6.423   1.244   3.317  0.1531 -0.1684 -2.5299
16276TIP3   OH270242   4.183   4.394   4.803  0.0269 -0.2846  0.3093
16276TIP3    H170243   4.206   4.367   4.714  0.7413  2.0755 -0.2742
16276TIP3    H270244   4.249   4.352   4.858 -0.1993 -1.4645 -0.2804
16277TIP3   OH270245   2.696   0.893  14.444  0.5489  0.2640  0.1101
16277TIP3    H170246   2.625   0.944  14.483  0.8461  0.2849  0.6453
16277TIP3    H270247   2.697   0.919  14.352  0.2521  0.7127  0.2293
16278TIP3   OH270248   5.460   3.771  16.848 -0.3907  0.0070 -0.4178
16278TIP3    H170249   5.483   3.861  16.824 -0.8938 -0.0049 -0.9514
16278TIP3    H270250   5.453   3.773  16.944 -2.5223  1.0678 -0.5382
16279TIP3   OH270251   1.167   1.079   4.488  0.4446  0.0564  0.1074
16279TIP3    H170252   1.135   1.041   4.570  3.6707 -0.3237  1.3481
16279TIP3    H270253   1.223   1.152   4.515 -1.3537  2.3938 -2.0206
16280TIP3   OH270254   3.259   0.896   2.736 -0.7878 -0.4028 -0.1347
16280TIP3    H170255   3.165   0.887   2.744 -0.5803 -2.3403  0.5155
16280TIP3    H270256   3.293   0.887   2.825  0.2886 -4.7115 -0.7630
16281TIP3   OH270257   6.104   6.360   6.020  0.0757  0.5574 -0.0363
16281TIP3    H170258   6.121   6.277   6.065  0.3331  1.6724  2.0726
16281TIP3    H270259   6.085   6.421   6.091 -0.2880  2.2744 -1.5524
16282TIP3   OH270260   4.871   5.023  17.085  0.1412  0.0594  0.0419
16282TIP3    H170261   4.778   5.003  17.098  0.1441  0.3678  0.5977
16282TIP3    H270262   4.900   5.058  17.170  1.2195 -1.6868  0.4414
16283TIP3   OH270263   0.981   3.301  12.924 -0.5404 -0.0047 -0.3458
16283TIP3    H170264   1.027   3.302  12.840  0.0261 -1.7481 -0.0897
16283TIP3    H270265   1.050   3.308  12.990 -0.8180 -0.4631  0.0002
16284TIP3   OH270266   0.798   0.947  14.723 -0.8578 -0.1855  0.2610
16284TIP3    H170267   0.806   0.854  14.745 -0.5876  0.0655  1.3041
16284TIP3    H270268   0.888   0.979  14.721 -0.8412 -0.2606 -1.6578
16285TIP3   OH270269   1.211   3.098  15.561 -0.4553 -0.9509 -0.2499
16285TIP3    H170270   1.209   3.012  15.517  0.3851 -1.3383  0.4452
16285TIP3    H270271   1.303   3.112  15.580 -0.4552  0.5876 -1.2547
16286TIP3   OH270272   6.203   2.966   2.871 -0.5146  0.0401  0.6159
16286TIP3    H170273   6.294   2.995   2.873 -0.0611 -1.2016 -0.3896
16286TIP3    H270274   6.203   2.884   2.920 -0.8312 -0.5950 -0.4172
16287TIP3   OH270275   5.314   4.807  12.380  0.7489  0.0841 -0.3309
16287TIP3    H170276   5.320   4.819  12.474 -0.5072  1.0006 -0.3423
16287TIP3    H270277   5.242   4.863  12.353  1.0880 -0.1533 -1.8451
16288TIP3   OH270278   6.022   6.738  14.885 -0.0522  0.1430 -0.4046
16288TIP3    H170279   5.998   6.647  14.871 -1.5048  0.1728  1.5495
16288TIP3    H270280   6.100   6.751  14.830 -0.0530 -2.1320 -1.0316
16289TIP3   OH270281   5.124   4.130  13.278 -0.4048 -0.5122 -0.3904
16289TIP3    H170282   5.152   4.042  13.253 -0.2320  0.0226 -2.1935
16289TIP3    H270283   5.202   4.171  13.315  0.4358 -0.0761 -2.5172
16290TIP3   OH270284   4.159   1.734  11.835  0.2024  0.4968  0.1283
16290TIP3    H170285   4.253   1.748  11.824  0.2585  2.5251  2.3668
16290TIP3    H270286   4.122   1.822  11.847 -1.6333 -0.3617  1.3918
16291TIP3   OH270287   0.188   1.813  12.738  0.0078  0.6786  0.3537
16291TIP3    H170288   0.172   1.846  12.649 -1.6487  2.0064  1.0712
16291TIP3    H270289   0.232   1.885  12.782  2.3068 -0.5636  0.2383
16292TIP3   OH270290   1.983   3.673  14.956 -0.4351 -0.1676  0.3779
16292TIP3    H170291   2.020   3.713  15.034 -0.6297  1.3684 -0.2821
16292TIP3    H270292   2.052   3.681  14.890 -1.3325  1.3164 -0.4282
16293TIP3   OH270293   0.961   6.273   0.631 -0.1195 -0.2638 -0.0415
16293TIP3    H170294   1.054   6.287   0.650 -0.1029  0.4602 -0.5826
16293TIP3    H270295   0.960   6.232   0.544 -0.2825 -1.0509  0.3241
16294TIP3   OH270296   2.568   3.406   5.010  0.3735 -0.6123 -0.0943
16294TIP3    H170297   2.649   3.454   5.030 -0.9397  1.3296  0.8645
16294TIP3    H270298   2.532   3.451   4.933 -1.1048  0.3474  1.0893
16295TIP3   OH270299   2.677   6.713   5.053  0.4044 -0.1820  0.1729
16295TIP3    H170300   2.631   6.729   5.135  0.7088  0.8763  0.1543
16295TIP3    H270301   2.622   6.651   5.005 -1.4314  1.6104 -0.1976
16296TIP3   OH270302   2.527   3.748  16.527  0.0237 -0.1155 -0.0789
16296TIP3    H170303   2.443   3.779  16.561  0.4160 -0.0753  0.9055
16296TIP3    H270304   2.539   3.795  16.445  0.0206  1.4367  0.7662
16297TIP3   OH270305   6.242   6.151  13.670 -0.1693 -0.1081  0.5431
16297TIP3    H170306   6.155   6.138  13.708  0.1898 -0.9917  1.0867
16297TIP3    H270307   6.288   6.069  13.686  0.7393  0.3133  0.1722
16298TIP3   OH270308   2.986   1.118  15.822  0.8032  0.2156  0.1842
16298TIP3    H170309   2.954   1.200  15.785  1.5812 -0.4457 -2.1008
16298TIP3    H270310   3.082   1.128  15.822  0.9314 -0.8408 -0.5878
16299TIP3   OH270311   5.792   2.638   1.827  0.3691  0.3606  0.2064
16299TIP3    H170312   5.771   2.621   1.919  1.9724 -0.3470  0.4620
16299TIP3    H270313   5.878   2.679   1.828  0.1348  0.9449 -0.9582
16300TIP3   OH270314   5.758   2.304  11.935  0.1747  0.4964 -0.0856
16300TIP3    H170315   5.805   2.232  11.977 -1.7886 -0.1545  1.1463
16300TIP3    H270316   5.790   2.304  11.845  0.6829 -1.5515  0.0418
16301TIP3   OH270317   2.168   2.349  15.766  0.1433  0.1234 -0.5009
16301TIP3    H170318   2.113   2.387  15.835 -0.0860  0.9291 -1.1192
16301TIP3    H270319   2.243   2.312  15.813  0.3255  1.2567  0.1431
16302TIP3   OH270320   3.582   0.951  14.551  0.4487  0.0051  0.7023
16302TIP3    H170321   3.489   0.959  14.532  0.7178 -0.3386 -0.8378
16302TIP3    H270322   3.591   0.865  14.593  0.1531 -0.1944  0.3565
16303TIP3   OH270323   4.996   1.396  14.987 -0.5764  0.8169  0.1051
16303TIP3    H170324   4.969   1.309  14.957  1.6760  0.3706 -0.7918
16303TIP3    H270325   5.013   1.385  15.081  1.6620 -0.3193 -0.3549
16304TIP3   OH270326   3.937   5.940   1.840  0.3876  0.2280  0.0697
16304TIP3    H170327   3.925   6.012   1.777 -0.7749  1.0337  1.1588
16304TIP3    H270328   3.880   5.870   1.808 -0.7051  0.8730  0.5272
16305TIP3   OH270329   4.850   0.783  10.787 -0.0129  0.0941  0.3193
16305TIP3    H170330   4.787   0.743  10.727 -1.4307  0.3628  1.5610
16305TIP3    H270331   4.885   0.858  10.738 -0.8075  0.0521 -0.3450
16306TIP3   OH270332   2.453   1.563   3.644  0.4242 -0.3878  0.6289
16306TIP3    H170333   2.524   1.531   3.588 -2.1108 -2.2176 -1.8368
16306TIP3    H270334   2.428   1.486   3.697  0.5155  0.3583  1.7913
16307TIP3   OH270335   4.493   6.583  13.244 -0.3122  0.0508  0.1215
16307TIP3    H170336   4.400   6.567  13.256 -0.1859  0.4359  1.8616
16307TIP3    H270337   4.501   6.679  13.246  0.1887  0.0032  0.6823
16308TIP3   OH270338   5.007   4.110  15.021  0.3016 -0.0188 -0.3825
16308TIP3    H170339   5.076   4.111  15.088  0.2755  2.5388 -0.3002
16308TIP3    H270340   4.938   4.056  15.059  0.4676  1.0128  1.5295
16309TIP3   OH270341   3.968   4.453   2.396 -0.4964 -0.3699  0.0383
16309TIP3    H170342   3.941   4.370   2.356 -1.1745  0.0786 -0.4768
16309TIP3    H270343   3.931   4.519   2.338  2.4117  0.3284 -1.1842
16310TIP3   OH270344   3.122   2.835  10.867  0.0187 -0.0831 -0.2138
16310TIP3    H170345   3.135   2.902  10.934 -0.3451  0.4691 -0.6960
16310TIP3    H270346   3.027   2.833  10.854 -0.0727 -1.3389  0.4583
16311TIP3   OH270347   6.121   1.453  15.437  0.3917  0.3035 -1.1051
16311TIP3    H170348   6.066   1.379  15.415 -1.4209  1.2185  0.0755
16311TIP3    H270349   6.146   1.491  15.352 -0.8485 -0.1209 -1.6825
16312TIP3   OH270350   0.926   4.669  13.514  0.2656  0.2285 -0.0476
16312TIP3    H170351   0.985   4.741  13.494  0.9741 -0.4503 -0.4856
16312TIP3    H270352   0.981   4.591  13.507 -0.3186 -0.3098  1.0760
16313TIP3   OH270353   2.468   2.888  12.456 -0.3837 -0.4653 -0.4997
16313TIP3    H170354   2.509   2.973  12.436  0.4625 -0.4756  1.0106
16313TIP3    H270355   2.415   2.868  12.379 -1.9017  2.1948 -0.2774
16314TIP3   OH270356   3.205   3.514   4.692  0.5436  0.2207  0.3225
16314TIP3    H170357   3.121   3.486   4.654  2.0857 -2.8645 -1.2179
16314TIP3    H270358   3.212   3.606   4.669 -2.1291  0.4416 -0.0072
16315TIP3   OH270359   2.273   3.734  15.568 -0.1301  0.1506 -0.2875
16315TIP3    H170360   2.360   3.766  15.588 -0.0930  0.2526 -0.6084
16315TIP3    H270361   2.223   3.813  15.544 -0.4394  0.1536  0.3674
16316TIP3   OH270362   0.138   2.353  14.830  0.0665 -0.2269  0.2415
16316TIP3    H170363   0.067   2.383  14.773 -0.8561  1.5510  2.2035
16316TIP3    H270364   0.211   2.412  14.810 -0.3911  0.6698  1.1377
16317TIP3   OH270365   4.239   1.103  11.239  0.3153  0.1960 -0.2547
16317TIP3    H170366   4.300   1.096  11.166 -0.8219 -0.0635 -1.2010
16317TIP3    H270367   4.168   1.043  11.217 -0.5351  0.8756  0.5715
16318TIP3   OH270368   5.198   5.969  15.463 -1.0373 -0.1717 -0.3197
16318TIP3    H170369   5.182   5.977  15.557 -0.7736 -0.8367 -0.2132
16318TIP3    H270370   5.166   6.052  15.426  1.2692  1.2265  0.6418
16319TIP3   OH270371   3.006   4.538  13.023 -0.0052  0.5692  1.0649
16319TIP3    H170372   2.983   4.549  13.115 -1.1328 -0.9917  1.0124
16319TIP3    H270373   2.937   4.584  12.976  0.0453  0.5616  0.9845
16320TIP3   OH270374   4.878   2.104  14.137 -0.8423  0.5697  0.4882
16320TIP3    H170375   4.958   2.149  14.108 -0.6024 -0.3798 -0.3909
16320TIP3    H270376   4.908   2.045  14.206 -1.2944  2.3036  2.2469
16321TIP3   OH270377   3.043   0.094  12.194  0.2577 -0.3149  0.1260
16321TIP3    H170378   3.063   0.041  12.117 -0.9360  0.7516 -0.9634
16321TIP3    H270379   2.982   0.041  12.244  0.2974 -0.6222 -0.1436
16322TIP3   OH270380   4.489   4.560   5.065 -0.0604  0.0190 -0.2164
16322TIP3    H170381   4.564   4.618   5.058  0.6879 -0.8946 -0.0780
16322TIP3    H270382   4.501   4.516   5.149  0.5757 -1.8752 -1.2249
16323TIP3   OH270383   3.316   4.243   1.249 -0.0138  0.3533 -0.0312
16323TIP3    H170384   3.373   4.313   1.218 -0.8622  1.4292  0.7838
16323TIP3    H270385   3.232   4.259   1.206 -0.9349  1.3162  2.0038
16324TIP3   OH270386   5.872   2.053   6.251 -0.0006  0.0559 -0.3301
16324TIP3    H170387   5.855   1.965   6.284 -2.8338  1.2053  1.6290
16324TIP3    H270388   5.930   2.092   6.316  1.4203 -0.3526 -1.3019
16325TIP3   OH270389   2.139   4.221  12.792  0.1988  0.0959  0.1723
16325TIP3    H170390   2.069   4.164  12.760 -1.0537  1.4203  0.4531
16325TIP3    H270391   2.158   4.190  12.880 -2.0524  1.3999  1.2084
16326TIP3   OH270392   0.933   5.924   4.100  0.6577  0.2694 -0.0741
16326TIP3    H170393   0.974   5.941   4.184  0.0091  2.7825 -0.1697
16326TIP3    H270394   1.005   5.896   4.043  1.7354  1.7166  0.5136
16327TIP3   OH270395   3.417   3.797   1.315 -0.2149 -0.1424 -0.2272
16327TIP3    H170396   3.364   3.852   1.257  0.7824  0.5940 -0.4686
16327TIP3    H270397   3.377   3.809   1.401 -0.0895  0.8865 -0.2934
16328TIP3   OH270398   3.846   5.724   6.808  0.3640  1.2325  0.3417
16328TIP3    H170399   3.807   5.803   6.769  0.1699  0.7730 -0.4069
16328TIP3    H270400   3.935   5.721   6.773 -0.2399  0.0919 -1.1503
16329TIP3   OH270401   0.242   6.350   0.777 -0.9847 -0.2747  0.1251
16329TIP3    H170402   0.323   6.396   0.799  0.3034 -1.6691 -1.4561
16329TIP3    H270403   0.227   6.291   0.851  0.2903 -1.0735 -0.2294
16330TIP3   OH270404   3.699   0.734  11.446  0.2768  0.4921  0.1840
16330TIP3    H170405   3.773   0.698  11.495 -1.0348 -0.2353  1.7164
16330TIP3    H270406   3.695   0.826  11.472 -0.5706  0.0481  1.6998
16331TIP3   OH270407   5.004   0.068  16.533 -0.4907 -0.0976  0.7787
16331TIP3    H170408   5.045   0.024  16.607  2.6522  0.2780 -0.5684
16331TIP3    H270409   4.981  -0.003  16.472 -0.0728 -0.2032  0.7428
16332TIP3   OH270410   4.145   1.934   0.958  0.4532 -0.4658 -0.0517
16332TIP3    H170411   4.184   1.963   1.040  1.3891 -0.0920 -0.6187
16332TIP3    H270412   4.139   1.839   0.967 -0.1819 -0.3587  0.7538
16333TIP3   OH270413   2.095   4.332  16.279  0.1821 -0.4058  0.3132
16333TIP3    H170414   2.122   4.245  16.252  2.1240 -0.0056  0.8250
16333TIP3    H270415   2.174   4.386  16.271 -0.9593  1.3245  0.0050
16334TIP3   OH270416   3.239   4.889   2.060 -0.8614  0.2958  0.1978
16334TIP3    H170417   3.191   4.944   1.997  0.7879 -0.1823 -1.5480
16334TIP3    H270418   3.266   4.813   2.009  1.5311  0.4365  1.1747
16335TIP3   OH270419   1.842   6.456   5.245  0.0586 -0.6806  0.0888
16335TIP3    H170420   1.785   6.416   5.179 -0.9894  0.0303  0.5464
16335TIP3    H270421   1.860   6.544   5.212  0.0640 -0.5483  0.4408
16336TIP3   OH270422   2.935   2.369  15.713  0.6239  0.7641 -0.3081
16336TIP3    H170423   3.031   2.368  15.714  0.8486  4.2568  2.3296
16336TIP3    H270424   2.910   2.284  15.750  2.7928  0.4248  0.5322
16337TIP3   OH270425   1.345   5.041  15.503  0.2360  0.0348  0.4658
16337TIP3    H170426   1.383   4.967  15.456 -1.0773  0.1909 -0.9418
16337TIP3    H270427   1.417   5.076  15.556  2.1031  0.3281 -2.0680
16338TIP3   OH270428   0.150   6.740   1.262 -0.1254  0.1780  0.1188
16338TIP3    H170429   0.191   6.822   1.289  0.5684  0.1774 -0.8884
16338TIP3    H270430   0.058   6.762   1.251  0.3268  1.2687 -1.8152
16339TIP3   OH270431   3.023   0.963  17.183  0.0024  0.9329 -0.2189
16339TIP3    H170432   3.017   1.023  17.258 -0.9096 -0.2486  0.6779
16339TIP3    H270433   2.946   0.983  17.130 -0.1457  0.7445 -0.0729
16340TIP3   OH270434   4.175   5.595   5.833  0.4837 -0.2015  0.7128
16340TIP3    H170435   4.237   5.596   5.906  0.0149  1.0223  1.1256
16340TIP3    H270436   4.091   5.621   5.873 -0.0832 -0.8578 -0.0175
16341TIP3   OH270437   3.291   5.463  12.329 -0.7145  0.0741  0.1753
16341TIP3    H170438   3.331   5.550  12.339 -2.4533  0.9318  0.0838
16341TIP3    H270439   3.316   5.435  12.241  0.0798  0.3589  0.3039
16342TIP3   OH270440   0.782   0.783   5.375 -0.2686 -0.2700  0.0624
16342TIP3    H170441   0.690   0.764   5.394 -0.5967  2.2450  1.4612
16342TIP3    H270442   0.823   0.788   5.461  1.4247 -2.1021 -0.5596
16343TIP3   OH270443   4.965   0.711  14.665  0.1172  0.7486  0.2823
16343TIP3    H170444   4.916   0.656  14.726 -0.6278  0.0537 -0.8897
16343TIP3    H270445   5.041   0.741  14.714 -0.0778 -0.3891  1.3091
16344TIP3   OH270446   4.002   2.234  13.259  0.0279  0.0264 -0.0772
16344TIP3    H170447   4.046   2.157  13.295  0.7200  0.7998  0.7981
16344TIP3    H270448   4.054   2.257  13.182  0.6673  0.4196  0.4562
16345TIP3   OH270449   0.786   4.565   1.192  0.2848  0.7169 -0.3254
16345TIP3    H170450   0.820   4.526   1.272 -1.2989  0.4410  0.2426
16345TIP3    H270451   0.842   4.530   1.122  0.4817 -0.5413  0.4451
16346TIP3   OH270452   4.154   1.947  10.226  0.3237  0.1342 -0.2671
16346TIP3    H170453   4.116   2.010  10.288 -0.8764  0.1968 -1.0411
16346TIP3    H270454   4.197   1.882  10.282 -1.4599 -0.2864  0.6791
16347TIP3   OH270455   5.565   5.636  16.023  0.5098 -0.5348 -0.2800
16347TIP3    H170456   5.650   5.662  15.988  0.9421 -0.5212  0.7521
16347TIP3    H270457   5.521   5.719  16.044 -0.2161 -0.4976 -1.8133
16348TIP3   OH270458   1.499   0.259  13.975  0.5359 -0.4670 -0.3846
16348TIP3    H170459   1.536   0.173  13.997  0.8887  0.0839  1.3431
16348TIP3    H270460   1.420   0.266  14.028 -0.7182 -0.5620 -2.1346
16349TIP3   OH270461   5.481   4.569   1.014  0.4056  0.0351 -0.0263
16349TIP3    H170462   5.502   4.604   0.927 -1.6466 -0.7723 -0.8942
16349TIP3    H270463   5.438   4.485   0.996 -0.0170 -0.1593  1.7741
16350TIP3   OH270464   3.959   0.046  13.568  0.1273 -0.1731  0.5262
16350TIP3    H170465   4.043  -0.000  13.568 -0.0590 -0.5624 -1.0795
16350TIP3    H270466   3.894  -0.022  13.584 -0.0942 -0.4271 -1.2163
16351TIP3   OH270467   2.465   2.477  14.120  0.3201 -0.4560  0.0719
16351TIP3    H170468   2.528   2.487  14.049 -0.2595 -1.6622 -0.6574
16351TIP3    H270469   2.415   2.559  14.120  0.7640 -0.1817 -0.4744
16352TIP3   OH270470   6.589   3.149   0.261  0.6307 -0.3488 -0.0595
16352TIP3    H170471   6.634   3.222   0.218  0.7992 -1.8571 -2.6853
16352TIP3    H270472   6.558   3.185   0.344  1.0516  2.5624 -1.0489
16353TIP3   OH270473   2.521   4.548  10.801  0.1619 -0.4924  0.1172
16353TIP3    H170474   2.457   4.488  10.840  0.0346 -1.4099 -1.4060
16353TIP3    H270475   2.604   4.500  10.806  0.1605 -0.5876 -0.6231
16354TIP3   OH270476   1.052   3.883  16.589  0.3071 -0.3272 -0.3783
16354TIP3    H170477   1.041   3.955  16.527  0.4528 -0.2644 -0.3309
16354TIP3    H270478   1.034   3.804  16.538 -0.2374 -0.2383 -0.3359
16355TIP3   OH270479   5.192   5.229   0.312 -0.0309 -0.3321  0.4851
16355TIP3    H170480   5.102   5.234   0.344 -0.4757  0.1345 -0.7574
16355TIP3    H270481   5.202   5.307   0.257  0.8982 -0.7459  0.0403
16356TIP3   OH270482   5.607   4.606   1.699 -0.3990 -0.4090  0.3124
16356TIP3    H170483   5.661   4.549   1.754  0.3528 -0.4164 -0.4196
16356TIP3    H270484   5.646   4.599   1.612  0.1421  1.7598  0.3314
16357TIP3   OH270485   5.608   5.539   3.404 -0.8734  0.5080 -0.5283
16357TIP3    H170486   5.576   5.620   3.446 -0.6055  1.1888 -1.6063
16357TIP3    H270487   5.703   5.549   3.402 -0.7437 -0.3654  0.3506
16358TIP3   OH270488   0.888   4.398   1.380 -0.3512  0.0592  0.5180
16358TIP3    H170489   0.822   4.349   1.331  1.4400  0.9672 -3.1021
16358TIP3    H270490   0.971   4.379   1.336  0.9710  3.3200  1.2709
16359TIP3   OH270491   6.237   0.754  13.432  0.3706  0.5492 -0.5063
16359TIP3    H170492   6.191   0.673  13.411 -0.3896  0.3113  1.7828
16359TIP3    H270493   6.182   0.823  13.397  0.0531  0.1539 -0.8001
16360TIP3   OH270494   3.291   6.390   2.907  0.5766 -0.1263  0.2202
16360TIP3    H170495   3.210   6.430   2.941  0.4952  0.0192 -0.1441
16360TIP3    H270496   3.358   6.456   2.924  0.2723  0.6116 -1.2911
16361TIP3   OH270497   3.462   2.694   2.287 -0.5230  0.3903 -0.5678
16361TIP3    H170498   3.520   2.769   2.278  1.3377 -0.8817  0.1117
16361TIP3    H270499   3.460   2.653   2.200  2.1213 -1.2230  0.0035
16362TIP3   OH270500   2.501   5.879  15.884  0.3007  0.2931 -0.1215
16362TIP3    H170501   2.446   5.937  15.830  0.2758  1.0769  0.7233
16362TIP3    H270502   2.478   5.791  15.855  0.5540  0.6937 -1.6551
16363TIP3   OH270503   1.735   4.146   1.235  0.5101 -0.2675 -0.1961
16363TIP3    H170504   1.654   4.140   1.184  0.1889  0.4829  0.2007
16363TIP3    H270505   1.805   4.144   1.169  0.1296  0.0094 -0.6158
16364TIP3   OH270506   5.002   3.741   3.465 -0.7179  0.3160  0.0536
16364TIP3    H170507   4.928   3.692   3.499 -0.3607 -1.4283 -1.4683
16364TIP3    H270508   5.035   3.686   3.393  1.3692  1.5568 -0.0053
16365TIP3   OH270509   6.433   4.981   5.940 -0.2250  0.0399  0.6233
16365TIP3    H170510   6.451   4.889   5.922  1.4475  0.1101  1.7662
16365TIP3    H270511   6.509   5.029   5.907  0.2333  0.6996  2.4569
16366TIP3   OH270512   4.796   6.293  14.017  0.1434 -0.2628  0.0871
16366TIP3    H170513   4.801   6.358  13.946  0.7632 -0.6708 -0.2477
16366TIP3    H270514   4.817   6.342  14.096 -2.8812  0.7594  0.3716
16367TIP3   OH270515   4.422   5.364  15.228 -0.3780 -0.0922  0.5545
16367TIP3    H170516   4.411   5.353  15.133  2.9518  0.1961  0.0000
16367TIP3    H270517   4.346   5.320  15.266 -2.5605  0.9652 -2.2166
16368TIP3   OH270518   1.374   4.088  10.519 -0.1055  0.1884 -0.3111
16368TIP3    H170519   1.394   3.998  10.494 -1.0442 -0.1469  0.0879
16368TIP3    H270520   1.301   4.113  10.462  0.1660  0.7129 -0.4405
16369TIP3   OH270521   1.936   2.283  13.477 -0.8301  0.1759  0.2279
16369TIP3    H170522   1.994   2.254  13.547  0.5777  1.0794 -0.5237
16369TIP3    H270523   1.869   2.335  13.522  1.4635  2.9392  0.7876
16370TIP3   OH270524   1.288   3.640  16.932 -0.1003  0.5014  0.4195
16370TIP3    H170525   1.281   3.731  16.962  0.7430  1.1347 -1.1446
16370TIP3    H270526   1.315   3.591  17.009  0.0422  1.7048  1.1595
16371TIP3   OH270527   5.326   4.783   1.073 -0.2055  0.1594 -0.6650
16371TIP3    H170528   5.383   4.815   1.003 -0.0357 -0.6235 -0.8989
16371TIP3    H270529   5.366   4.700   1.100  1.4080  1.7424  2.3727
16372TIP3   OH270530   6.698   5.373   1.560  0.4699  0.7513 -0.3228
16372TIP3    H170531   6.622   5.322   1.586  2.0179 -1.2893  0.4310
16372TIP3    H270532   6.755   5.371   1.637  2.1137  0.5810 -1.5101
16373TIP3   OH270533   1.795   1.025   0.420 -0.2442 -0.0976  0.0069
16373TIP3    H170534   1.821   0.978   0.341 -0.5843 -0.2800  0.0002
16373TIP3    H270535   1.768   1.112   0.388  1.7457  0.6299  0.1774
16374TIP3   OH270536   0.694   3.087  16.498 -0.5521  0.4660 -0.4485
16374TIP3    H170537   0.721   3.121  16.583  0.9538  1.6602 -1.3609
16374TIP3    H270538   0.747   3.134  16.434 -1.1077 -0.9218 -2.0287
16375TIP3   OH270539   6.195   1.047  15.742  0.1626  0.1063 -0.9291
16375TIP3    H170540   6.221   1.105  15.814  0.5661 -0.1843 -0.8358
16375TIP3    H270541   6.115   1.086  15.707 -0.4774 -0.1677  0.1739
16376TIP3   OH270542   0.182   1.610   0.979  0.1119 -0.3576 -0.2824
16376TIP3    H170543   0.089   1.624   0.965  0.2358 -1.8599 -3.6269
16376TIP3    H270544   0.188   1.523   1.019  0.0693  0.4270  1.4936
16377TIP3   OH270545   1.424   1.986   3.573  0.2006 -0.3565  0.1927
16377TIP3    H170546   1.476   2.053   3.528  2.2814 -0.7516  1.8312
16377TIP3    H270547   1.409   1.918   3.508 -0.7564  1.0443 -1.1072
16378TIP3   OH270548   5.181   3.571   5.990 -0.1191  0.1062  0.1333
16378TIP3    H170549   5.236   3.643   6.024  0.5657 -0.1779 -0.3477
16378TIP3    H270550   5.102   3.574   6.045  1.2146 -0.7539  2.2538
16379TIP3   OH270551   5.739   1.286   4.773  0.2896  0.2287  0.8088
16379TIP3    H170552   5.663   1.229   4.765  1.2237 -1.3221  2.2503
16379TIP3    H270553   5.811   1.227   4.797  1.2419  2.0152  2.7384
16380TIP3   OH270554   0.292   3.248  14.145  0.0493  0.1334  0.6206
16380TIP3    H170555   0.271   3.322  14.088  2.4408  0.8727  0.6062
16380TIP3    H270556   0.266   3.171  14.094 -0.4969  0.8881 -0.2667
16381TIP3   OH270557   2.681   3.129  13.462 -0.2412  0.2892 -0.1428
16381TIP3    H170558   2.717   3.131  13.374 -3.3052 -2.3252 -1.6721
16381TIP3    H270559   2.630   3.209  13.470 -0.0992  0.4476 -0.7917
16382TIP3   OH270560   1.196   5.696  12.240 -0.0175  0.0534  0.3521
16382TIP3    H170561   1.221   5.776  12.286  2.3955  0.3226 -1.2472
16382TIP3    H270562   1.261   5.631  12.268 -0.6820 -0.7606  0.0443
16383TIP3   OH270563   4.824   0.776   2.199  0.4047 -0.0785 -0.6465
16383TIP3    H170564   4.881   0.841   2.158  0.0734  0.0776 -0.8686
16383TIP3    H270565   4.871   0.693   2.190  2.0565  0.4566  1.9112
16384TIP3   OH270566   3.136   1.872  11.587  0.0336  0.4484 -0.0705
16384TIP3    H170567   3.206   1.937  11.586  0.4460  0.0098 -0.8254
16384TIP3    H270568   3.118   1.855  11.495 -1.2894  0.7763  0.1084
16385TIP3   OH270569   2.217   1.563   3.863  0.8465  0.2418  0.2793
16385TIP3    H170570   2.253   1.608   3.787  2.1102 -0.1594  0.6140
16385TIP3    H270571   2.189   1.478   3.830  1.6589 -0.0448  0.2917
16386TIP3   OH270572   0.176   6.301   5.292  0.1303  0.1973  0.4175
16386TIP3    H170573   0.128   6.282   5.211 -1.9947 -0.5097  1.7553
16386TIP3    H270574   0.227   6.222   5.308 -1.1660 -0.5997  0.8584
16387TIP3   OH270575   4.394   0.071  16.056 -0.8120  0.1580 -0.9091
16387TIP3    H170576   4.370   0.005  15.991  0.8407 -0.8325 -0.5931
16387TIP3    H270577   4.486   0.091  16.036 -0.9285  1.4642 -0.2262
16388TIP3   OH270578   3.330   0.386   0.089 -0.6851  0.2607  0.3175
16388TIP3    H170579   3.371   0.472   0.093 -1.4976  0.6179  1.2469
16388TIP3    H270580   3.397   0.329   0.051 -0.1302  1.2862 -0.2635
16389TIP3   OH270581   6.071   3.578   4.426  0.2419 -0.1426 -0.4324
16389TIP3    H170582   5.994   3.535   4.463  0.4498  0.0329  0.2233
16389TIP3    H270583   6.040   3.663   4.397  0.2889  0.1268  0.2938
16390TIP3   OH270584   3.576   2.686  11.303  0.0366 -0.0552  0.9420
16390TIP3    H170585   3.663   2.696  11.343 -0.1955 -1.6118  1.9316
16390TIP3    H270586   3.535   2.616  11.353 -2.3755  1.6119  1.4202
16391TIP3   OH270587   4.107   3.749  16.352  0.6165 -1.0204 -0.0392
16391TIP3    H170588   4.154   3.669  16.328 -0.3627 -0.8674 -2.8249
16391TIP3    H270589   4.026   3.745  16.300  0.1578  1.3533  0.4106
16392TIP3   OH270590   0.778   0.189   5.539  0.0263  0.6855 -0.1301
16392TIP3    H170591   0.758   0.098   5.560 -3.3073  1.2877 -0.2067
16392TIP3    H270592   0.814   0.225   5.620 -0.2087 -0.2663  0.4074
16393TIP3   OH270593   2.497   3.601   0.127  0.2664  0.1817 -0.3755
16393TIP3    H170594   2.574   3.627   0.178  0.1827 -1.4926  0.6592
16393TIP3    H270595   2.424   3.645   0.169  0.2295 -0.9981  0.8389
16394TIP3   OH270596   6.192   4.112  15.737  0.2701  0.5749  0.4351
16394TIP3    H170597   6.133   4.076  15.671  1.6594 -0.0370 -0.5304
16394TIP3    H270598   6.166   4.203  15.746 -0.2462  0.5420 -0.6189
16395TIP3   OH270599   0.337   2.866   2.952 -0.3133 -0.3157  0.3047
16395TIP3    H170600   0.340   2.911   2.868  2.1137  0.3279  0.6443
16395TIP3    H270601   0.304   2.779   2.932  1.6937 -0.7088 -1.6143
16396TIP3   OH270602   5.949   5.467  12.770 -0.1806 -0.1569  0.0092
16396TIP3    H170603   5.908   5.548  12.802 -2.5750 -1.1891 -0.2305
16396TIP3    H270604   5.968   5.485  12.678  0.8396  0.6518  0.3503
16397TIP3   OH270605   3.278   5.782  12.788  0.1895  0.1937  0.9555
16397TIP3    H170606   3.336   5.707  12.776 -0.7142 -0.3885  0.0640
16397TIP3    H270607   3.249   5.804  12.699 -0.3051  1.0076  1.3054
16398TIP3   OH270608   0.621   3.185   6.400 -0.2751 -0.0215  0.1323
16398TIP3    H170609   0.533   3.218   6.419  0.0060  1.7522 -1.3473
16398TIP3    H270610   0.612   3.140   6.316  0.4582  1.4554 -0.7827
16399TIP3   OH270611   5.596   1.477  13.401 -0.4795 -0.1737 -0.6448
16399TIP3    H170612   5.527   1.478  13.466  0.2978 -2.8375  0.3919
16399TIP3    H270613   5.655   1.548  13.426 -1.3117  0.2109  0.2693
16400TIP3   OH270614   2.291   1.663  13.680  0.2270 -0.2215  0.0947
16400TIP3    H170615   2.314   1.629  13.594  0.6732  1.2916 -0.3981
16400TIP3    H270616   2.268   1.754  13.665  2.2032  0.6422  1.8349
16401TIP3   OH270617   6.299   5.126  16.914  0.0400 -0.2335 -0.2591
16401TIP3    H170618   6.369   5.188  16.935  1.7317 -2.2938  0.4735
16401TIP3    H270619   6.236   5.137  16.985 -0.1591  1.2820 -0.6441
16402TIP3   OH270620   0.690   4.958   3.856  0.1590  0.3435  0.1737
16402TIP3    H170621   0.765   5.008   3.887 -1.3547  1.7295  1.7908
16402TIP3    H270622   0.705   4.948   3.762  1.3176  2.4628  0.0865
16403TIP3   OH270623   5.550   2.340  13.485  0.3245 -0.1632  0.2860
16403TIP3    H170624   5.559   2.304  13.396 -2.1462  2.4657 -1.2292
16403TIP3    H270625   5.567   2.266  13.543  3.2895 -1.7338 -2.2627
16404TIP3   OH270626   0.535   3.108  14.688 -0.0592 -0.2008  0.1186
16404TIP3    H170627   0.621   3.132  14.722  0.3507  0.9452 -1.5849
16404TIP3    H270628   0.554   3.066  14.604 -1.1570 -0.0139 -0.2412
16405TIP3   OH270629   6.651   4.334   4.335 -0.6213  0.2606 -0.1645
16405TIP3    H170630   6.563   4.332   4.372 -0.6833  0.4696 -0.3054
16405TIP3    H270631   6.696   4.402   4.385 -0.6908  0.5107 -0.4398
16406TIP3   OH270632   4.621   0.255  14.391 -0.3335 -0.2840 -0.2428
16406TIP3    H170633   4.676   0.276  14.314 -0.8255 -0.5223 -0.6631
16406TIP3    H270634   4.644   0.165  14.412  0.9876  0.2805  0.9030
16407TIP3   OH270635   6.610   1.924   2.205 -0.1975  0.6401  0.1350
16407TIP3    H170636   6.585   1.832   2.196  0.3102  0.6362 -1.4249
16407TIP3    H270637   6.703   1.922   2.229  0.5951  0.7191 -2.6104
16408TIP3   OH270638   4.102   3.673  14.838 -0.3316 -0.9385  0.7202
16408TIP3    H170639   4.082   3.715  14.921  3.2329 -0.5312  1.5234
16408TIP3    H270640   4.156   3.598  14.861  3.7934  1.1326 -1.1846
16409TIP3   OH270641   1.662   1.285   3.826 -0.0375  0.4510  0.5362
16409TIP3    H170642   1.671   1.288   3.922  1.3662  0.5012  0.4208
16409TIP3    H270643   1.750   1.271   3.794 -0.3219  1.4957 -0.8114
16410TIP3   OH270644   3.750   1.836  10.993  0.5268 -0.4733  0.7301
16410TIP3    H170645   3.767   1.744  10.972 -0.1687  0.0362 -2.5839
16410TIP3    H270646   3.818   1.885  10.947 -0.5326  0.7573  0.3981
16411TIP3   OH270647   4.954   4.425  15.359 -0.6818  0.0286 -0.0133
16411TIP3    H170648   4.896   4.379  15.299  1.0776 -1.6621 -0.4980
16411TIP3    H270649   5.007   4.482  15.303  1.6471 -2.2756 -0.3190
16412TIP3   OH270650   4.126   5.157   0.243 -0.5900  0.2308 -0.0825
16412TIP3    H170651   4.140   5.189   0.154 -0.4947  2.2280  0.5817
16412TIP3    H270652   4.045   5.106   0.238 -0.7200  0.5189 -1.2689
16413TIP3   OH270653   3.600   5.520   1.953  0.3672  0.2124 -0.2650
16413TIP3    H170654   3.638   5.589   1.899  0.1011  0.5453 -0.0241
16413TIP3    H270655   3.664   5.448   1.947  0.6501  0.4791 -0.5022
16414TIP3   OH270656   0.204   4.354   0.573  0.4193 -0.8494  0.3061
16414TIP3    H170657   0.194   4.449   0.569  3.4036 -0.4002  0.7963
16414TIP3    H270658   0.220   4.335   0.666 -2.5223 -2.2504  0.6500
16415TIP3   OH270659   6.740   6.630   4.940  0.2948 -0.4836 -0.0374
16415TIP3    H170660   6.672   6.590   4.886 -1.0116 -0.7610  1.7095
16415TIP3    H270661   6.820   6.581   4.921 -0.2992 -1.0291 -1.1541
16416TIP3   OH270662   1.050   3.226  12.652 -0.0783 -0.4714  0.8073
16416TIP3    H170663   1.094   3.170  12.587 -1.7291 -1.5832  0.5821
16416TIP3    H270664   0.970   3.254  12.609 -0.4351  0.0967  1.8075
16417TIP3   OH270665   5.934   4.117   1.741  0.5858  0.1654  0.0154
16417TIP3    H170666   5.983   4.069   1.675  0.9571  0.4223  0.0967
16417TIP3    H270667   6.002   4.160   1.794  0.2810  0.2919  0.3072
16418TIP3   OH270668   1.484   0.126  16.564  0.3131  0.2864 -0.3245
16418TIP3    H170669   1.474   0.034  16.539  2.9892  0.0848 -0.9969
16418TIP3    H270670   1.438   0.134  16.648 -2.0785 -1.0065 -1.4347
16419TIP3   OH270671   5.300   6.521   5.413  0.2018  0.3961  0.0800
16419TIP3    H170672   5.382   6.483   5.446  0.1558  0.3340  0.1247
16419TIP3    H270673   5.317   6.615   5.406 -0.1676  0.5710  1.4052
16420TIP3   OH270674   1.695   5.826  15.103 -0.0145 -0.0992  0.1290
16420TIP3    H170675   1.724   5.793  15.018 -0.6605  0.1419 -0.1913
16420TIP3    H270676   1.687   5.748  15.158 -1.8114 -0.5632 -0.7052
16421TIP3   OH270677   3.203   5.895  16.212 -0.1676 -0.9790  0.4573
16421TIP3    H170678   3.290   5.933  16.216 -0.6892  0.1605  1.8775
16421TIP3    H270679   3.193   5.849  16.296 -0.8719 -1.2121  0.2550
16422TIP3   OH270680   1.124   2.912  10.575 -0.6350  0.1994 -0.5129
16422TIP3    H170681   1.133   2.874  10.663 -2.1029 -1.8621 -1.1965
16422TIP3    H270682   1.203   2.966  10.565  0.5955 -1.1335  1.2688
16423TIP3   OH270683   0.807   4.001  16.606  0.2057 -0.4725  0.1644
16423TIP3    H170684   0.806   4.000  16.702  0.7114  0.1968  0.1798
16423TIP3    H270685   0.887   3.954  16.583  0.1924 -0.4474  0.0700
16424TIP3   OH270686   5.716   6.475   0.873 -0.1653  0.4606  0.1813
16424TIP3    H170687   5.732   6.443   0.784 -0.0551 -1.1544  0.7598
16424TIP3    H270688   5.798   6.517   0.899 -0.8333  2.8514 -1.1945
16425TIP3   OH270689   4.892   6.313  12.205 -0.3810  0.0521 -0.2035
16425TIP3    H170690   4.935   6.228  12.214 -0.7382  0.0721  3.3498
16425TIP3    H270691   4.962   6.373  12.180  0.4202 -0.8728 -0.2517
16426TIP3   OH270692   4.832   1.500  15.376 -0.2159  0.5667 -0.3697
16426TIP3    H170693   4.764   1.550  15.331 -0.1656  0.0505 -1.0412
16426TIP3    H270694   4.892   1.473  15.306 -0.5097 -0.8502 -0.1172
16427TIP3   OH270695   2.810   1.794  16.331  0.0461 -0.1894  0.1303
16427TIP3    H170696   2.764   1.791  16.247 -0.4605 -1.6654  0.4358
16427TIP3    H270697   2.789   1.880  16.367  1.4522  1.0727 -1.8765
16428TIP3   OH270698   0.021   3.341   3.378  0.4538  0.1750  0.2137
16428TIP3    H170699  -0.036   3.347   3.454  0.3934 -1.9523  0.4051
16428TIP3    H270700   0.108   3.323   3.414  0.2119 -2.0510 -0.1936
16429TIP3   OH270701   0.470   0.416   2.750 -0.0323 -0.8593 -0.3381
16429TIP3    H170702   0.548   0.416   2.695  0.1265  0.1029 -0.1345
16429TIP3    H270703   0.397   0.403   2.689  0.1586 -0.0509 -0.7497
16430TIP3   OH270704   6.174   6.673   5.014 -0.2394  0.1562  0.7545
16430TIP3    H170705   6.262   6.640   4.996  0.0083  1.0067  0.3800
16430TIP3    H270706   6.184   6.726   5.093 -0.2560  0.9121  0.2553
16431TIP3   OH270707   1.386   3.357  17.128 -0.5643 -0.0578 -0.2831
16431TIP3    H170708   1.435   3.419  17.074 -0.2556 -0.2093 -0.1786
16431TIP3    H270709   1.328   3.312  17.066  0.2045 -0.6401 -0.5861
16432TIP3   OH270710   3.494   1.804   5.082  0.4249  0.1569  0.2093
16432TIP3    H170711   3.570   1.764   5.124  0.4244  0.9314  0.9613
16432TIP3    H270712   3.422   1.790   5.143  0.9094  3.3752  1.6897
16433TIP3   OH270713   0.106   0.683   2.587  0.2881  0.2480 -0.1757
16433TIP3    H170714   0.193   0.704   2.552 -0.2681  1.8957 -0.6628
16433TIP3    H270715   0.061   0.638   2.516  0.6861 -0.4897  0.0320
16434TIP3   OH270716   5.047   5.460   4.415 -0.6527 -0.1955  0.9913
16434TIP3    H170717   4.992   5.533   4.443 -1.3112  0.1387 -1.0732
16434TIP3    H270718   5.010   5.384   4.459 -0.9545  0.4543  1.8892
16435TIP3   OH270719   1.528   6.225  14.488  0.3825 -0.7080 -0.0550
16435TIP3    H170720   1.553   6.306  14.533 -2.5676  0.3951 -0.2263
16435TIP3    H270721   1.477   6.254  14.412 -0.3162 -2.7187 -0.4110
16436TIP3   OH270722   5.802   6.098   5.454 -0.3308 -0.0404  0.1164
16436TIP3    H170723   5.825   6.011   5.421 -1.6901  0.6534 -3.0300
16436TIP3    H270724   5.806   6.155   5.377 -3.5741  1.8036  1.0959
16437TIP3   OH270725   2.434   1.055   1.069  0.3383 -0.1388  0.0437
16437TIP3    H170726   2.455   1.121   1.003  0.4375 -0.2890 -0.0751
16437TIP3    H270727   2.426   0.974   1.020  0.4293 -0.2547  0.2199
16438TIP3   OH270728   2.296   3.459   3.661  0.0925 -0.1048  0.4091
16438TIP3    H170729   2.322   3.395   3.727 -2.2150 -0.0385  1.4943
16438TIP3    H270730   2.202   3.445   3.651  0.4001 -0.3411 -3.1948
16439TIP3   OH270731   3.195   2.783  15.481  0.1936 -0.0256 -0.3738
16439TIP3    H170732   3.237   2.813  15.562 -0.7566 -0.3152  0.2310
16439TIP3    H270733   3.134   2.853  15.459  2.5106  1.5267 -2.5239
16440TIP3   OH270734   5.252   0.779   1.215 -0.4435 -0.0123  0.1925
16440TIP3    H170735   5.243   0.695   1.169 -1.2823 -0.3603  0.9667
16440TIP3    H270736   5.335   0.772   1.262  0.4476  0.3653 -1.2724
16441TIP3   OH270737   1.338   0.187   2.421 -0.2073 -0.3294 -0.4931
16441TIP3    H170738   1.288   0.124   2.472 -1.3847  1.2800  0.3977
16441TIP3    H270739   1.428   0.153   2.423 -0.7322 -1.7566  0.2607
16442TIP3   OH270740   3.406   2.068  12.953  0.6277  0.0771  0.7457
16442TIP3    H170741   3.315   2.092  12.968  0.8322  1.2728  0.1430
16442TIP3    H270742   3.442   2.055  13.041 -0.3674 -1.4699  0.9690
16443TIP3   OH270743   2.791   5.222  15.713 -0.4810 -0.0548  0.1533
16443TIP3    H170744   2.698   5.209  15.734 -0.6590  1.2490  0.2379
16443TIP3    H270745   2.791   5.253  15.623 -0.0693 -0.7739 -0.0951
16444TIP3   OH270746   5.863   3.804  14.489 -0.7799 -0.1085 -0.0576
16444TIP3    H170747   5.811   3.859  14.430 -2.2320 -1.0738  0.2488
16444TIP3    H270748   5.840   3.834  14.577  0.0467  0.1905  0.0558
16445TIP3   OH270749   5.201   1.485  14.046 -0.2625 -0.1766  0.0896
16445TIP3    H170750   5.286   1.442  14.056  0.0155  0.0199 -1.2904
16445TIP3    H270751   5.142   1.435  14.103  0.4662 -1.1885 -0.0253
16446TIP3   OH270752   4.531   1.556   6.488  0.6762 -0.1425  0.1212
16446TIP3    H170753   4.503   1.477   6.443 -1.2780  0.1279  0.7184
16446TIP3    H270754   4.511   1.627   6.427  1.3296 -0.0201  0.0427
16447TIP3   OH270755   6.023   4.027   1.500  0.1553 -0.7462 -0.0836
16447TIP3    H170756   6.071   4.055   1.422 -1.6127 -0.1114 -0.9976
16447TIP3    H270757   5.988   3.941   1.476 -0.4021 -0.5434 -0.0220
16448TIP3   OH270758   5.015   0.193   4.816  0.5143 -0.4802 -0.4289
16448TIP3    H170759   5.063   0.271   4.789  3.6154 -2.3920 -0.8965
16448TIP3    H270760   5.043   0.178   4.907 -0.3220 -0.8803 -0.2263
16449TIP3   OH270761   4.244   2.728   5.867 -0.9641  0.1408  0.2926
16449TIP3    H170762   4.226   2.714   5.960 -1.1174 -1.0868  0.1015
16449TIP3    H270763   4.313   2.795   5.865 -2.5632  1.9037  1.1865
16450TIP3   OH270764   3.332   3.995   4.522 -0.9122 -0.2388  0.6271
16450TIP3    H170765   3.383   4.027   4.597 -1.7416 -0.7342  1.4112
16450TIP3    H270766   3.367   4.044   4.447  3.2355 -2.9813  0.4479
16451TIP3   OH270767   4.147   0.852  15.417 -0.0124  0.0546  0.4380
16451TIP3    H170768   4.122   0.776  15.469  0.2323 -0.0595  0.3902
16451TIP3    H270769   4.238   0.837  15.394  0.1963  0.6299  0.8827
16452TIP3   OH270770   0.039   3.349   5.962  0.7657  0.1038  0.2560
16452TIP3    H170771  -0.038   3.294   5.949  0.8867 -0.1063  0.4411
16452TIP3    H270772   0.077   3.358   5.874  1.4478 -1.1254  0.4050
16453TIP3   OH270773   4.440   4.334   1.151  0.4006 -0.9590  0.1968
16453TIP3    H170774   4.506   4.316   1.218 -0.6042 -0.4364  1.3616
16453TIP3    H270775   4.388   4.254   1.147  0.5650 -1.0525 -0.0890
16454TIP3   OH270776   0.658   1.727   2.554  0.0851 -0.5422 -0.2081
16454TIP3    H170777   0.688   1.817   2.547  2.4732 -1.3210 -0.8607
16454TIP3    H270778   0.563   1.733   2.550  0.0891  2.0629  1.4705
16455TIP3   OH270779   4.465   6.733  12.277 -0.2881  0.3474  0.1104
16455TIP3    H170780   4.549   6.713  12.235 -0.7365  0.1269 -0.6856
16455TIP3    H270781   4.399   6.703  12.215 -0.9623 -0.0067  0.9828
16456TIP3   OH270782   2.737   5.450  13.065 -0.5765 -0.1640  0.5288
16456TIP3    H170783   2.652   5.478  13.029 -0.5140 -0.0425  0.4756
16456TIP3    H270784   2.714   5.389  13.135 -0.6921 -0.8454 -0.0906
16457TIP3   OH270785   5.335   5.284  15.168 -0.2800 -0.1741 -0.3761
16457TIP3    H170786   5.273   5.238  15.225  0.6744 -0.2910  0.6210
16457TIP3    H270787   5.302   5.270  15.080 -0.4291 -2.1777 -0.0455
16458TIP3   OH270788   1.701   2.903  16.735  0.6811 -0.0619  0.0230
16458TIP3    H170789   1.775   2.960  16.713  0.5114  0.3958  0.6014
16458TIP3    H270790   1.632   2.962  16.764 -0.4873 -0.3748 -1.9841
16459TIP3   OH270791   0.580   2.736  16.170  0.4358  0.0240  0.0873
16459TIP3    H170792   0.630   2.805  16.213 -0.9451  0.7383  0.5757
16459TIP3    H270793   0.640   2.702  16.104  0.7715  2.4772 -0.9817
16460TIP3   OH270794   4.995   3.847   0.218  0.1608 -0.0750 -0.7908
16460TIP3    H170795   4.945   3.880   0.143 -3.2923 -1.6192  0.6053
16460TIP3    H270796   4.979   3.910   0.288 -0.1665 -0.7402 -0.2451
16461TIP3   OH270797   2.563   4.667  14.987  0.2076  0.4089 -0.0246
16461TIP3    H170798   2.657   4.684  14.997  1.0027 -2.7106 -1.0486
16461TIP3    H270799   2.532   4.648  15.075  1.4870 -2.2164 -0.0350
16462TIP3   OH270800   6.187   0.827  12.831 -0.1909 -0.1492  0.2641
16462TIP3    H170801   6.151   0.898  12.776  0.4536  0.2379  0.3364
16462TIP3    H270802   6.113   0.767  12.843 -0.1329 -0.7101 -1.7833
16463TIP3   OH270803   0.107   5.034   3.638 -0.1638 -0.3904 -0.3689
16463TIP3    H170804   0.053   5.085   3.699  0.4814 -0.5028  0.2961
16463TIP3    H270805   0.180   5.002   3.690  0.4266 -0.4506 -1.2120
16464TIP3   OH270806   1.181   1.881   0.262 -0.0322 -0.3115 -0.3149
16464TIP3    H170807   1.151   1.942   0.195 -0.3050 -1.0356 -0.8684
16464TIP3    H270808   1.277   1.884   0.257 -0.0496 -0.1979 -0.5857
16465TIP3   OH270809   4.440   4.830   5.298  0.1950  0.8059  0.1076
16465TIP3    H170810   4.396   4.835   5.213 -0.6446  0.2039  0.4846
16465TIP3    H270811   4.379   4.872   5.358  1.2545  2.1782  0.2585
16466TIP3   OH270812   4.202   3.442  13.828 -0.3826 -0.2759 -0.0775
16466TIP3    H170813   4.244   3.417  13.910 -0.8339 -1.3519 -0.1598
16466TIP3    H270814   4.110   3.455  13.851  0.0559  3.1921  0.3508
16467TIP3   OH270815   3.411   6.405   5.448  0.2695 -0.1661 -0.6988
16467TIP3    H170816   3.468   6.398   5.525 -1.9201 -1.4113  0.9142
16467TIP3    H270817   3.389   6.499   5.443  1.0885  0.0533 -0.3359
16468TIP3   OH270818   1.673   5.697   3.313  0.1816  0.6183  0.2158
16468TIP3    H170819   1.656   5.675   3.405 -0.8728  2.6291  0.5686
16468TIP3    H270820   1.660   5.615   3.266 -1.5284  0.0147  1.6247
16469TIP3   OH270821   6.494   5.021   0.857  0.1342  1.0538 -0.0571
16469TIP3    H170822   6.583   5.048   0.877  0.7034 -1.5370  1.2870
16469TIP3    H270823   6.499   4.982   0.770  1.1214 -2.0040  1.2416
16470TIP3   OH270824   3.656   4.032   5.053 -0.0663 -0.3650  0.0019
16470TIP3    H170825   3.699   4.044   4.968 -1.1313 -0.8266 -0.6236
16470TIP3    H270826   3.678   4.112   5.102 -2.0176  1.4316 -1.8646
16471TIP3   OH270827   4.928   6.758  10.661  0.8638  0.0356  0.1147
16471TIP3    H170828   4.872   6.749  10.584  1.6660  3.3731 -1.0329
16471TIP3    H270829   4.868   6.753  10.735 -0.3689 -0.2998 -0.8788
16472TIP3   OH270830   4.278   4.413   1.679  0.3331  0.3185 -0.3635
16472TIP3    H170831   4.373   4.417   1.677  0.2998  0.9488 -0.9465
16472TIP3    H270832   4.256   4.402   1.772  1.0262 -2.0410 -0.4009
16473TIP3   OH270833   4.000   3.269  12.349 -0.0913  0.0626 -0.8529
16473TIP3    H170834   3.980   3.265  12.442 -0.2376 -0.3332 -0.9007
16473TIP3    H270835   4.017   3.362  12.332 -0.3094  0.1697 -0.4863
16474TIP3   OH270836   1.404   2.489   2.275 -0.0101 -0.1052 -0.1401
16474TIP3    H170837   1.407   2.397   2.301 -1.6866  0.2922  1.7735
16474TIP3    H270838   1.477   2.529   2.323  0.1509 -0.2764 -0.2403
16475TIP3   OH270839   3.444   4.521   6.048  0.5836 -0.1195  0.0826
16475TIP3    H170840   3.508   4.481   5.988  0.9010 -0.9044  0.9245
16475TIP3    H270841   3.360   4.483   6.022  0.4812  0.6748 -0.8195
16476TIP3   OH270842   4.381   3.173  12.957 -0.6772 -0.0936 -0.3569
16476TIP3    H170843   4.346   3.180  12.868 -0.2477  0.2763 -0.4990
16476TIP3    H270844   4.451   3.238  12.961  0.6689 -1.4608 -0.4025
16477TIP3   OH270845   2.462   2.888  15.400 -0.7282 -0.1156  0.5454
16477TIP3    H170846   2.425   2.954  15.458 -0.1193  0.5973  0.1382
16477TIP3    H270847   2.420   2.905  15.315 -2.6201 -1.9763  1.0166
16478TIP3   OH270848   0.538   0.778  16.945 -0.3484 -0.0696 -0.0634
16478TIP3    H170849   0.569   0.783  17.035  0.3059  0.7731 -0.3342
16478TIP3    H270850   0.558   0.863  16.907 -1.8286  0.0517 -0.6276
16479TIP3   OH270851   5.745   2.833   5.269 -0.1134 -0.2117 -0.3290
16479TIP3    H170852   5.735   2.739   5.281  1.3811 -0.4377 -0.5783
16479TIP3    H270853   5.778   2.842   5.179  0.0607  0.5212 -0.1969
16480TIP3   OH270854   0.376   4.504  11.328 -0.8605  0.2028 -0.0344
16480TIP3    H170855   0.386   4.451  11.406  0.3467  0.2145 -0.1543
16480TIP3    H270856   0.310   4.459  11.276  0.0576 -1.1453 -0.0878
16481TIP3   OH270857   5.244   1.064  12.236  0.5287 -0.3829  0.0670
16481TIP3    H170858   5.207   0.976  12.242 -2.0279  0.5419 -0.8398
16481TIP3    H270859   5.282   1.068  12.148  1.2942 -0.7680  0.3663
16482TIP3   OH270860   3.705   6.231   1.347 -0.5647 -0.4532  0.2608
16482TIP3    H170861   3.669   6.143   1.358 -1.2962 -0.0465  1.3025
16482TIP3    H270862   3.785   6.218   1.296 -0.7438 -1.7036  0.2689
16483TIP3   OH270863   3.921   1.914  13.259  0.1139 -0.4162  0.1368
16483TIP3    H170864   4.004   1.938  13.300  0.2452  0.6345 -0.7120
16483TIP3    H270865   3.870   1.873  13.330  0.1846  1.6587  1.4668
16484TIP3   OH270866   3.501   2.582  10.886  0.0997 -0.0747  0.4972
16484TIP3    H170867   3.457   2.579  10.971 -0.7722 -3.0052  0.0662
16484TIP3    H270868   3.586   2.541  10.902  0.6191  0.9030  0.2839
16485TIP3   OH270869   6.534   5.501  15.961 -0.3505  0.0329 -0.0756
16485TIP3    H170870   6.577   5.584  15.980 -0.8195 -0.0904  1.6992
16485TIP3    H270871   6.440   5.520  15.967 -0.4676 -0.5080 -0.1191
16486TIP3   OH270872   6.019   3.317   6.272 -0.1279 -0.2082  0.0936
16486TIP3    H170873   6.097   3.262   6.281 -1.1574 -1.3671  3.4588
16486TIP3    H270874   6.036   3.392   6.329 -0.8951  0.3035 -0.3287
16487TIP3   OH270875   4.045   0.855  16.219 -0.3630 -0.1266 -0.4986
16487TIP3    H170876   4.066   0.764  16.199  0.7609  0.0064  0.0192
16487TIP3    H270877   4.043   0.859  16.315  0.0813  0.5005 -0.5127
16488TIP3   OH270878   5.943   6.533   2.213 -0.2364 -0.3760 -0.3929
16488TIP3    H170879   6.024   6.518   2.164 -1.3923  0.5644 -2.7478
16488TIP3    H270880   5.972   6.571   2.296  1.8342 -2.1402 -0.2175
16489TIP3   OH270881   4.822   1.567  11.143  0.2077 -0.0820 -0.6581
16489TIP3    H170882   4.915   1.588  11.147  0.0101  0.6747  1.2232
16489TIP3    H270883   4.781   1.628  11.204 -1.6348  0.0714 -1.9494
16490TIP3   OH270884   5.513   0.736   3.175 -0.3245  0.0112  0.5301
16490TIP3    H170885   5.540   0.751   3.266  1.8014  3.1351 -0.4697
16490TIP3    H270886   5.478   0.820   3.145  1.6180 -0.0495 -2.2948
16491TIP3   OH270887   3.659   6.341  13.717 -0.5694  0.2058 -0.3317
16491TIP3    H170888   3.696   6.340  13.805  1.2039  0.6414 -1.0254
16491TIP3    H270889   3.637   6.249  13.699 -0.1499 -0.0163  0.2498
16492TIP3   OH270890   2.141   5.713   3.467 -0.2527 -0.1649  0.0088
16492TIP3    H170891   2.081   5.726   3.540  0.8442 -1.6554  1.2585
16492TIP3    H270892   2.196   5.791   3.465 -1.4038  0.6514 -0.3613
16493TIP3   OH270893   6.455   3.722  17.135  0.0566  0.6984 -0.3324
16493TIP3    H170894   6.541   3.721  17.093  0.4550 -0.3084  0.4531
16493TIP3    H270895   6.420   3.809  17.118  0.8598  0.8279 -1.4004
16494TIP3   OH270896   1.432   0.051   0.743 -0.5940 -0.1530 -0.0938
16494TIP3    H170897   1.379   0.107   0.800 -0.7578 -1.8400  1.5175
16494TIP3    H270898   1.368  -0.004   0.698 -0.4706  1.2354 -2.0659
16495TIP3   OH270899   4.664   2.625  16.647  0.1511  0.2737 -0.0740
16495TIP3    H170900   4.599   2.648  16.713  1.1238 -0.0729  1.0475
16495TIP3    H270901   4.710   2.550  16.685  1.3539  0.6638 -0.7239
16496TIP3   OH270902   5.527   3.645  13.528 -0.6027  0.1199  0.0722
16496TIP3    H170903   5.487   3.696  13.598  0.7121 -1.7086  2.2925
16496TIP3    H270904   5.621   3.656  13.540 -0.3224  0.5982 -2.1187
16497TIP3   OH270905   0.658   3.822   3.565  0.1039  0.2991 -0.5179
16497TIP3    H170906   0.637   3.880   3.492  1.0749  1.2669 -0.0376
16497TIP3    H270907   0.573   3.785   3.590 -0.2813  0.1448 -1.9571
16498TIP3   OH270908   0.423   6.434   3.102  0.6186  0.0201  0.2263
16498TIP3    H170909   0.356   6.449   3.168 -0.6208 -0.8868 -0.7789
16498TIP3    H270910   0.378   6.388   3.032  1.9607  0.6558 -1.1213
16499TIP3   OH270911   1.394   2.710  16.635 -0.7649  0.4070  0.4651
16499TIP3    H170912   1.356   2.631  16.674  0.3312 -0.2030  0.3513
16499TIP3    H270913   1.488   2.701  16.650 -0.3501  0.4324 -1.7761
16500TIP3   OH270914   5.824   4.204  15.794  0.3104  0.3717  0.0188
16500TIP3    H170915   5.735   4.172  15.776 -0.7050  2.0016  1.8405
16500TIP3    H270916   5.822   4.232  15.885  2.8519  0.0792  0.2331
16501TIP3   OH270917   4.070   3.050  13.380  0.4797 -0.4058  0.0416
16501TIP3    H170918   4.033   3.059  13.468  0.2640  0.4337 -0.1252
16501TIP3    H270919   4.153   3.097  13.384 -0.5595  1.6550 -0.7896
16502TIP3   OH270920   1.113   4.068   3.286  0.1450 -0.7446  0.1261
16502TIP3    H170921   1.085   4.002   3.223  1.4987 -1.5151  0.3045
16502TIP3    H270922   1.066   4.046   3.367  1.4423 -2.2238  0.5201
16503TIP3   OH270923   5.238   2.251   6.312  0.5580 -0.9198  0.6210
16503TIP3    H170924   5.149   2.235   6.343  0.9405 -3.0639  0.7285
16503TIP3    H270925   5.294   2.227   6.385  1.2713  1.0395  0.7922
16504TIP3   OH270926   1.018   1.542   0.851  0.7601 -0.1185  0.2695
16504TIP3    H170927   0.958   1.469   0.868 -0.1282  0.4778 -0.1985
16504TIP3    H270928   1.103   1.512   0.882  0.1556 -0.8831  1.2266
16505TIP3   OH270929   3.456   0.816  15.431  0.2439  0.5662 -0.0660
16505TIP3    H170930   3.529   0.755  15.443 -0.3375  0.0436  1.0338
16505TIP3    H270931   3.398   0.798  15.505 -1.6033  0.1200 -1.5395
16506TIP3   OH270932   6.168   1.999   0.703 -0.7222 -0.5217 -0.5660
16506TIP3    H170933   6.162   1.986   0.798 -0.0554  0.1369 -0.4308
16506TIP3    H270934   6.123   1.923   0.666 -2.2541 -0.0811  0.2935
16507TIP3   OH270935   5.717   5.266  15.339  0.1276 -0.2653 -0.1335
16507TIP3    H170936   5.699   5.178  15.372 -0.3017 -0.5099 -0.9783
16507TIP3    H270937   5.764   5.310  15.410 -0.5786 -0.8280  0.7053
16508TIP3   OH270938   0.500   3.564  12.259 -0.6772 -0.1416  0.1225
16508TIP3    H170939   0.428   3.543  12.201 -0.5064 -2.5418  0.6814
16508TIP3    H270940   0.530   3.480  12.292  0.8862  0.9531  1.7058
16509TIP3   OH270941   4.367   1.858  17.106  0.6027  0.0352 -0.1463
16509TIP3    H170942   4.391   1.778  17.153 -0.3426 -0.4984 -0.5420
16509TIP3    H270943   4.273   1.851  17.093  0.6125  0.8993 -0.7942
16510TIP3   OH270944   1.238   3.259  11.785 -0.1211  0.0710 -0.1703
16510TIP3    H170945   1.325   3.220  11.785  0.6263  1.6762  0.0661
16510TIP3    H270946   1.185   3.198  11.838  0.6781 -1.2254 -0.8020
16511TIP3   OH270947   0.367   1.279   1.856  0.7931  0.2989 -0.0434
16511TIP3    H170948   0.455   1.283   1.819  1.1976 -0.1545  0.8423
16511TIP3    H270949   0.344   1.186   1.852 -0.2099  0.5812 -1.5315
16512TIP3   OH270950   5.397   6.237  15.036  0.0185  0.2958  0.0554
16512TIP3    H170951   5.478   6.186  15.039 -0.5376 -0.6887 -1.0531
16512TIP3    H270952   5.416   6.315  15.088  2.2269  0.8578 -1.4703
16513TIP3   OH270953   1.657   3.777   5.038 -0.3252  0.1376 -0.6036
16513TIP3    H170954   1.691   3.807   4.954  0.6391  0.1489 -0.2156
16513TIP3    H270955   1.694   3.837   5.102  0.5174 -1.0272  0.0363
16514TIP3   OH270956   0.988   0.301  12.262  0.3906  0.0640 -0.0383
16514TIP3    H170957   1.003   0.366  12.193  0.4446 -1.1989 -1.2696
16514TIP3    H270958   1.054   0.233  12.245  0.6906 -0.0861  1.5381
16515TIP3   OH270959   3.703   6.018   0.234 -0.1526  0.1251  0.0081
16515TIP3    H170960   3.650   6.093   0.262  1.6298  0.6613  2.2572
16515TIP3    H270961   3.785   6.056   0.206  0.3372 -0.9114 -0.0105
16516TIP3   OH270962   5.976   3.240  14.513 -0.1389 -0.0957 -0.0195
16516TIP3    H170963   6.062   3.244  14.555  0.2354 -1.9560 -0.5471
16516TIP3    H270964   5.952   3.332  14.501  0.2777  0.5503  3.0729
16517TIP3   OH270965   4.589   2.333  11.949  0.4316  0.5490 -0.0392
16517TIP3    H170966   4.552   2.259  11.997 -0.7816  0.9854 -0.2709
16517TIP3    H270967   4.591   2.303  11.858  0.9224  0.4255  0.0098
16518TIP3   OH270968   5.703   6.477   2.107  0.4319  0.3710 -0.2113
16518TIP3    H170969   5.789   6.494   2.145  0.2469 -1.5266  1.2301
16518TIP3    H270970   5.642   6.489   2.179 -0.3063 -0.0725 -0.7435
16519TIP3   OH270971   3.504   4.140   4.644 -0.1774 -0.1379  0.2115
16519TIP3    H170972   3.574   4.125   4.708 -1.5897 -1.1220  1.5782
16519TIP3    H270973   3.526   4.225   4.605  0.5870  0.6420  2.2101
16520TIP3   OH270974   4.838   6.617  12.816  0.0921  0.0257 -0.1268
16520TIP3    H170975   4.797   6.615  12.902  0.2407  1.6573 -0.0060
16520TIP3    H270976   4.787   6.681  12.766 -0.6287 -1.5859 -1.6183
16521TIP3   OH270977   5.642   1.867  13.715 -0.9043  0.2982  0.4741
16521TIP3    H170978   5.575   1.801  13.731  0.8629 -1.3542  1.6113
16521TIP3    H270979   5.692   1.870  13.797  0.7911  0.9754 -0.5258
16522TIP3   OH270980   6.459   4.878  12.323  0.1742  0.0323 -0.4313
16522TIP3    H170981   6.371   4.884  12.358  0.3291 -1.4643  0.2447
16522TIP3    H270982   6.479   4.968  12.294 -2.1915  0.0738 -2.2163
16523TIP3   OH270983   1.474   3.628  12.736 -0.3863 -0.0224 -0.0169
16523TIP3    H170984   1.536   3.565  12.773  1.2471  0.5025 -1.7380
16523TIP3    H270985   1.520   3.668  12.662 -2.2603  1.4543 -0.4793
16524TIP3   OH270986   1.367   0.534   5.222  0.5330  0.3174  0.0656
16524TIP3    H170987   1.309   0.592   5.271 -2.4250 -1.0651 -1.5130
16524TIP3    H270988   1.394   0.586   5.146 -1.3216  0.0561 -0.8388
16525TIP3   OH270989   4.239   5.667  16.754 -0.1102 -0.2286 -0.3025
16525TIP3    H170990   4.258   5.574  16.768  2.6959  0.1944 -0.7263
16525TIP3    H270991   4.262   5.708  16.838 -1.3976  0.1142 -0.0972
16526TIP3   OH270992   4.827   6.056   3.376  0.1541  0.6123 -0.5397
16526TIP3    H170993   4.833   6.149   3.399  0.9990  0.9166 -1.8673
16526TIP3    H270994   4.761   6.053   3.306 -0.7176  0.0349  0.2886
16527TIP3   OH270995   2.230   6.433  10.552  0.1744  0.0400  0.6841
16527TIP3    H170996   2.219   6.403  10.642  1.1706 -1.2082  0.4212
16527TIP3    H270997   2.294   6.372  10.514  0.8767  1.4198 -0.4361
16528TIP3   OH270998   5.359   6.771  13.194  0.1487  0.1372 -0.3016
16528TIP3    H170999   5.433   6.770  13.254 -0.7198  0.4325  0.8121
16528TIP3    H271000   5.313   6.688  13.210 -1.1708  1.0536  0.8777
16529TIP3   OH271001   2.399   5.617   5.606  0.2461 -0.4530  0.0300
16529TIP3    H171002   2.487   5.582   5.599 -0.3587 -1.7966 -1.9494
16529TIP3    H271003   2.343   5.547   5.573 -1.2319  1.5358 -2.0153
16530TIP3   OH271004   6.331   4.410  16.935  0.0190 -0.2720 -0.0431
16530TIP3    H171005   6.252   4.426  16.986  1.1713  1.6949  1.2591
16530TIP3    H271006   6.312   4.446  16.848  0.0665  2.0142  0.8130
16531TIP3   OH271007   5.562   1.281  14.934  0.5918 -0.7400 -0.4012
16531TIP3    H171008   5.483   1.264  14.985  0.9718 -0.4350  0.3113
16531TIP3    H271009   5.633   1.244  14.987  0.9438 -0.8752 -0.9585
16532TIP3   OH271010   3.767   3.882   5.792  0.0219  0.9108 -0.0071
16532TIP3    H171011   3.774   3.789   5.812 -1.7680  0.8543  0.5953
16532TIP3    H271012   3.851   3.919   5.818  0.9485 -0.5921 -0.7138
16533TIP3   OH271013   2.125   5.741  14.688  0.0062  0.0048  0.3108
16533TIP3    H171014   2.118   5.776  14.777  1.0604  0.9548  0.0447
16533TIP3    H271015   2.067   5.796  14.635  2.2841  2.0624 -0.2642
16534TIP3   OH271016   6.708   1.666   0.918  0.0078  0.0244 -0.1082
16534TIP3    H171017   6.630   1.616   0.893 -0.4106  0.1927  0.8235
16534TIP3    H271018   6.705   1.744   0.863 -2.2743  1.6292  2.0604
16535TIP3   OH271019   1.397   2.549   5.415  0.3660  0.4285  0.6843
16535TIP3    H171020   1.490   2.565   5.399  0.3159  0.5198  0.4804
16535TIP3    H271021   1.386   2.564   5.509  1.0807 -2.1135  1.2642
16536TIP3   OH271022   0.282   2.050  15.206 -0.1435 -0.3328  0.1187
16536TIP3    H171023   0.206   2.095  15.244 -1.2985 -0.2769 -2.0638
16536TIP3    H271024   0.248   2.013  15.125  2.0273 -0.9323 -0.5623
16537TIP3   OH271025   6.691   1.957   0.325  0.2863 -0.0632 -0.0484
16537TIP3    H171026   6.734   2.041   0.338  0.1704 -0.2195  1.5356
16537TIP3    H271027   6.753   1.892   0.359  0.1425 -0.5732 -0.7394
16538TIP3   OH271028   0.847   2.182  16.704 -0.0550 -0.2827  0.0228
16538TIP3    H171029   0.777   2.229  16.748 -0.8512 -0.7468 -0.7251
16538TIP3    H271030   0.803   2.125  16.641  1.0078 -0.0139 -1.0237
16539TIP3   OH271031   3.646   0.885   3.904  0.0676 -0.7795 -0.2323
16539TIP3    H171032   3.624   0.951   3.838 -0.7702  0.0475  0.8298
16539TIP3    H271033   3.591   0.809   3.882  0.5722 -0.9112 -1.0879
16540TIP3   OH271034   4.808   5.569  11.838  0.5749 -0.2752 -0.0448
16540TIP3    H171035   4.799   5.491  11.893  1.4917 -0.8783 -0.7130
16540TIP3    H271036   4.839   5.637  11.897 -0.5567 -0.3167  0.6132
16541TIP3   OH271037   2.842   1.444   4.135  0.3170 -0.7452  0.1329
16541TIP3    H171038   2.822   1.350   4.137  1.8274 -1.0782  0.6688
16541TIP3    H271039   2.845   1.465   4.041 -2.2286 -0.6833 -0.0149
16542TIP3   OH271040   6.130   4.009  14.691 -0.1770  0.1269  0.0741
16542TIP3    H171041   6.070   4.037  14.622 -0.1487  2.3596  0.8833
16542TIP3    H271042   6.073   3.987  14.764 -0.0924  1.1103  0.4521
16543TIP3   OH271043   6.601   1.424  14.209 -0.3400  0.4851  0.0563
16543TIP3    H171044   6.635   1.363  14.274  1.0831  0.4349 -0.6909
16543TIP3    H271045   6.569   1.369  14.138 -0.2549  0.5740 -0.0525
16544TIP3   OH271046   1.434   2.315  16.981 -0.0234 -0.3154 -0.2024
16544TIP3    H171047   1.491   2.369  16.926  1.5383 -1.1668  0.4859
16544TIP3    H271048   1.445   2.227  16.946 -1.4626 -0.4021 -0.4590
16545TIP3   OH271049   5.240   1.729  13.384  0.2836 -0.2428 -0.6218
16545TIP3    H171050   5.164   1.703  13.332 -0.1068  0.1114 -0.2446
16545TIP3    H271051   5.273   1.808  13.340  0.8095 -0.7399 -1.1379
16546TIP3   OH271052   6.088   6.000  15.829 -0.2776 -0.7600 -0.2728
16546TIP3    H171053   6.161   6.057  15.803 -0.2260 -0.4541  0.5266
16546TIP3    H271054   6.024   6.058  15.869 -0.3305 -1.2203  0.3391
16547TIP3   OH271055   5.798   0.740  14.053 -0.1723 -0.1771 -0.4777
16547TIP3    H171056   5.834   0.658  14.087  0.5593  0.2170 -0.2827
16547TIP3    H271057   5.794   0.797  14.130 -3.4041 -0.9174  0.0342
16548TIP3   OH271058   5.254   3.865  13.176  0.6472  0.5622  0.1630
16548TIP3    H171059   5.279   3.796  13.237 -0.4477  0.9828  1.1217
16548TIP3    H271060   5.331   3.877  13.121  1.7130  0.2495  1.5322
16549TIP3   OH271061   5.075   2.654   0.047  0.0130 -0.2119  0.4356
16549TIP3    H171062   5.149   2.691  -0.000  1.3323 -1.4928  1.4251
16549TIP3    H271063   5.073   2.562   0.020 -0.1205 -0.6022  1.7257
16550TIP3   OH271064   6.235   0.516   6.128 -0.4665 -0.5965  0.2998
16550TIP3    H171065   6.326   0.496   6.107 -0.5894 -1.2631  0.3887
16550TIP3    H271066   6.210   0.448   6.191 -1.7077 -1.7713 -1.3809
16551TIP3   OH271067   3.229   6.499  15.992 -0.0192  0.5718 -0.3639
16551TIP3    H171068   3.153   6.446  16.014 -0.1362  0.1835 -1.6270
16551TIP3    H271069   3.304   6.452  16.029 -0.2768  0.3397 -0.1446
16552TIP3   OH271070   5.246   3.478   0.954  0.2055 -0.6681  0.7452
16552TIP3    H171071   5.296   3.493   0.874 -2.7597  0.1595 -1.0995
16552TIP3    H271072   5.228   3.383   0.954  0.3575 -0.6960  0.5288
16553TIP3   OH271073   0.458   2.019  13.220  0.3240 -0.3139  0.2635
16553TIP3    H171074   0.430   1.948  13.162 -0.7987 -0.1192  0.5401
16553TIP3    H271075   0.529   1.981  13.272 -0.5942 -1.4293  0.7632
16554TIP3   OH271076   1.962   5.312   1.108 -0.6079  0.5698 -0.0045
16554TIP3    H171077   1.895   5.289   1.172 -0.6283 -0.4826 -0.3873
16554TIP3    H271078   1.915   5.363   1.041 -0.8506  0.5554  0.1546
16555TIP3   OH271079   0.125   4.127   0.736  0.2183  0.3545  0.1190
16555TIP3    H171080   0.045   4.086   0.705 -0.3142  0.4031  1.4062
16555TIP3    H271081   0.191   4.104   0.670 -0.4859 -1.0210 -0.1238
16556TIP3   OH271082   0.835   5.399  16.817  0.0000 -0.3250  0.1654
16556TIP3    H171083   0.748   5.378  16.783 -0.3652 -0.4920  1.1793
16556TIP3    H271084   0.841   5.494  16.811 -0.4797 -0.2661  0.6298
16557TIP3   OH271085   3.627   5.510   1.262 -0.1574 -0.5265  0.1783
16557TIP3    H171086   3.617   5.422   1.299  1.9994 -1.8319 -2.0482
16557TIP3    H271087   3.569   5.510   1.185  1.1074 -0.6862 -0.8106
16558TIP3   OH271088   3.558   0.378   2.949 -0.0284 -1.2988 -0.2260
16558TIP3    H171089   3.623   0.338   3.007  2.3968  0.3292 -1.6294
16558TIP3    H271090   3.554   0.469   2.977 -0.4379 -1.0041 -1.2090
16559TIP3   OH271091   4.411   0.170   5.092 -0.3412  0.5200 -0.0475
16559TIP3    H171092   4.400   0.093   5.148  0.7622  0.0992 -0.3910
16559TIP3    H271093   4.392   0.244   5.150 -0.2473  0.0458  0.6066
16560TIP3   OH271094   1.360   4.266   5.775 -0.4199 -0.0242 -0.1523
16560TIP3    H171095   1.380   4.310   5.857 -0.7023  2.7443 -1.4792
16560TIP3    H271096   1.273   4.228   5.788 -0.0857 -0.4209  1.0781
16561TIP3   OH271097   5.341   3.067   2.016 -0.3001 -0.0626 -0.2588
16561TIP3    H171098   5.261   3.015   2.018  1.4313 -2.9465 -0.0601
16561TIP3    H271099   5.315   3.153   2.048 -2.7771 -1.6580  2.4533
16562TIP3   OH271100   1.730   6.233   2.273 -0.4047  0.4117  0.0081
16562TIP3    H171101   1.800   6.225   2.338 -1.2830  0.5576  0.9871
16562TIP3    H271102   1.724   6.146   2.233  0.5423  0.4844 -0.3182
16563TIP3   OH271103   1.687   2.748   3.678 -0.1970  0.4406 -0.3131
16563TIP3    H171104   1.669   2.841   3.667  1.0865  0.8169  0.5089
16563TIP3    H271105   1.606   2.712   3.714  0.3976  1.9735  2.9396
16564TIP3   OH271106   2.798   4.815  13.279  0.1608  0.4332  0.1793
16564TIP3    H171107   2.805   4.728  13.318 -2.2845  0.5770  1.0849
16564TIP3    H271108   2.888   4.838  13.257  0.8386 -2.5106 -0.5707
16565TIP3   OH271109   6.235   5.039   3.082  0.1614 -0.0531  0.1752
16565TIP3    H171110   6.303   4.974   3.062 -0.1082 -0.6448  1.0975
16565TIP3    H271111   6.283   5.121   3.095  0.8901 -0.7399  2.1835
16566TIP3   OH271112   0.812   1.464  12.279  0.2911  0.0426 -0.1564
16566TIP3    H171113   0.779   1.395  12.222  2.2160 -1.3521  0.3212
16566TIP3    H271114   0.883   1.505  12.230  1.1404 -0.3431  0.7130
16567TIP3   OH271115   3.380   0.454   1.296 -0.0136 -0.2667 -0.0161
16567TIP3    H171116   3.461   0.467   1.246  0.9423 -0.1357  1.4955
16567TIP3    H271117   3.370   0.536   1.345  0.4416 -1.2572  1.8316
16568TIP3   OH271118   6.171   5.140  15.007 -0.2608 -0.1670 -0.0516
16568TIP3    H171119   6.227   5.062  14.999  0.3017  0.2704 -0.4670
16568TIP3    H271120   6.182   5.167  15.099  1.2458  0.6527 -0.4309
16569TIP3   OH271121   5.547   4.405   0.470 -0.0584  0.5965 -0.2549
16569TIP3    H171122   5.641   4.400   0.488  0.2449 -0.2001 -1.8249
16569TIP3    H271123   5.541   4.461   0.392 -0.8081 -0.0186 -0.6522
16570TIP3   OH271124   3.533   0.944  16.061  0.7180  0.6952  0.2318
16570TIP3    H171125   3.511   0.866  16.009  0.5124  1.1140 -0.3145
16570TIP3    H271126   3.525   1.017  16.000  0.5852  1.1871  0.8262
16571TIP3   OH271127   5.477   2.438  15.926  0.2861 -0.7219  0.3713
16571TIP3    H171128   5.520   2.353  15.916  0.9653 -0.3033 -0.4297
16571TIP3    H271129   5.403   2.435  15.865 -0.5601 -1.2648  1.4007
16572TIP3   OH271130   2.599   6.728  14.372  0.1315  0.1703 -0.4777
16572TIP3    H171131   2.686   6.740  14.410 -0.0080  0.0319 -0.1126
16572TIP3    H271132   2.545   6.795  14.413  0.7530  2.4081 -3.0211
16573TIP3   OH271133   6.020   4.480   5.611  0.0329  0.5475  0.0321
16573TIP3    H171134   5.950   4.523   5.562  1.0602  0.8385 -1.2204
16573TIP3    H271135   6.060   4.549   5.663  0.3896  0.6961 -0.4406
16574TIP3   OH271136   5.757   1.875   1.540 -0.1731 -0.2170  0.0574
16574TIP3    H171137   5.792   1.950   1.587 -2.1824 -0.1567  1.5679
16574TIP3    H271138   5.773   1.896   1.448  2.7292  0.2315  0.5530
16575TIP3   OH271139   2.244   5.363   0.606 -0.7006  0.7884 -0.2575
16575TIP3    H171140   2.237   5.457   0.591 -0.8015  0.8822  0.3567
16575TIP3    H271141   2.266   5.354   0.698 -0.1191  0.2221 -0.4456
16576TIP3   OH271142   6.332   2.820   6.531 -0.3127  0.8132  0.5893
16576TIP3    H171143   6.307   2.727   6.531 -0.4864  0.8274 -1.3993
16576TIP3    H271144   6.278   2.859   6.601  0.3766 -0.7001  2.0394
16577TIP3   OH271145   5.977   2.952   5.813 -0.5696 -0.2501  0.5492
16577TIP3    H171146   5.897   2.954   5.866 -1.8581  0.6882 -1.3081
16577TIP3    H271147   5.980   3.038   5.771  2.6100  0.5597  2.1446
16578TIP3   OH271148   4.815   5.279  11.211 -0.6814 -0.1267 -0.1228
16578TIP3    H171149   4.812   5.291  11.306  0.9591  2.3061 -0.2840
16578TIP3    H271150   4.804   5.367  11.175 -0.1115 -0.8174 -2.1564
16579TIP3   OH271151   1.360   6.380   5.166  0.3252  0.2748  0.9410
16579TIP3    H171152   1.412   6.357   5.243 -0.8563  0.4096  1.8046
16579TIP3    H271153   1.379   6.472   5.151 -0.2067  0.5203  1.7073
16580TIP3   OH271154   5.705   2.428  11.561 -0.5654 -0.1952 -0.2040
16580TIP3    H171155   5.759   2.361  11.520  0.0871 -0.1298  0.5180
16580TIP3    H271156   5.757   2.458  11.636 -2.0573 -0.8698  1.1400
16581TIP3   OH271157   1.906   1.923  16.567  0.2232 -0.1333 -0.7795
16581TIP3    H171158   1.818   1.911  16.603  0.7580 -0.0651  0.6063
16581TIP3    H271159   1.908   2.014  16.539  0.2836  0.2773  0.4852
16582TIP3   OH271160   5.317   5.591   5.472 -0.3951  0.4806 -0.2506
16582TIP3    H171161   5.300   5.521   5.409 -1.8104 -0.3923  1.0482
16582TIP3    H271162   5.231   5.619   5.501  0.0607  3.5981 -1.5267
16583TIP3   OH271163   5.826   3.106   2.923 -0.3792  0.3625 -0.1379
16583TIP3    H171164   5.739   3.140   2.901 -1.4710 -1.7865  0.5606
16583TIP3    H271165   5.865   3.086   2.838 -2.1414 -2.1679 -0.4646
16584TIP3   OH271166   5.645   4.464   5.111 -0.4318  0.0159  0.1256
16584TIP3    H171167   5.657   4.539   5.169  2.7159  0.6420 -1.1388
16584TIP3    H271168   5.624   4.391   5.170  0.4339  1.0599  1.7957
16585TIP3   OH271169   3.349   1.070   0.802 -0.6258 -0.2400 -0.0112
16585TIP3    H171170   3.422   1.017   0.771 -0.1865  0.3423  0.0262
16585TIP3    H271171   3.367   1.084   0.895 -2.8943 -3.6133  1.1605
16586TIP3   OH271172   0.780   2.767  12.093 -0.0261  0.5158  0.5094
16586TIP3    H171173   0.795   2.801  12.005  1.2956  1.2338  0.9862
16586TIP3    H271174   0.686   2.775  12.106 -0.5534 -1.3803 -1.5305
16587TIP3   OH271175   6.344   2.109  10.755  0.4308  0.2165 -0.3838
16587TIP3    H171176   6.326   2.072  10.841  0.6532  0.6799 -0.1331
16587TIP3    H271177   6.259   2.135  10.721  0.3216 -0.1536 -0.3872
16588TIP3   OH271178   5.855   0.258  12.529 -1.2170  0.4664 -0.1728
16588TIP3    H171179   5.798   0.183  12.545 -0.2291 -0.1282  0.6677
16588TIP3    H271180   5.891   0.242  12.442 -2.2830  0.8330 -0.7001
16589TIP3   OH271181   4.365   2.299  13.801 -0.0475  0.1537 -0.3490
16589TIP3    H171182   4.460   2.293  13.816  0.1240  0.5003 -1.2105
16589TIP3    H271183   4.357   2.305  13.705 -0.9936 -0.7762 -0.3422
16590TIP3   OH271184   6.547   0.088  13.866  0.4574  0.4851  0.1720
16590TIP3    H171185   6.581   0.028  13.932 -1.6354  0.6204  1.4607
16590TIP3    H271186   6.507   0.031  13.800 -1.8481  0.3385  1.5721
16591TIP3   OH271187   3.861   1.834  11.730 -0.2645  0.5881  0.7878
16591TIP3    H171188   3.889   1.756  11.683 -0.7405  0.2819  1.0119
16591TIP3    H271189   3.819   1.888  11.663 -1.4789 -0.1118  0.9724
16592TIP3   OH271190   2.043   4.976  14.555 -0.2264 -0.0553  0.0751
16592TIP3    H171191   1.991   4.976  14.475  0.1575 -1.1317 -0.1993
16592TIP3    H271192   2.130   4.948  14.526  0.7374  2.3756  0.4004
16593TIP3   OH271193   5.808   0.548  12.382  0.8680  0.3823 -0.0015
16593TIP3    H171194   5.880   0.583  12.433  1.5317 -0.4529 -0.3432
16593TIP3    H271195   5.804   0.455  12.405  0.4654  0.2285 -0.6352
16594TIP3   OH271196   3.198   5.582  13.973 -0.0672  0.3568  0.8266
16594TIP3    H171197   3.192   5.509  13.912  1.2660  1.0037 -0.1617
16594TIP3    H271198   3.161   5.656  13.925 -0.0445  0.6334  1.2324
16595TIP3   OH271199   5.648   1.648  11.503 -0.5163 -0.0144  0.0981
16595TIP3    H171200   5.588   1.641  11.428 -0.0710  0.0248 -0.2678
16595TIP3    H271201   5.645   1.562  11.544 -0.1329 -0.3053 -0.4621
16596TIP3   OH271202   3.022   4.031   0.418 -0.0433 -0.2522  0.4407
16596TIP3    H171203   2.967   3.952   0.422  0.3941 -0.7279 -1.5562
16596TIP3    H271204   3.012   4.062   0.328  1.5310  0.7023  0.5590
16597TIP3   OH271205   1.748   4.339   5.549  0.1274  0.6194 -0.7408
16597TIP3    H171206   1.838   4.372   5.547  0.6623 -0.6773  0.3069
16597TIP3    H271207   1.758   4.244   5.554 -1.2654  0.5243  1.1628
16598TIP3   OH271208   0.830   1.420  15.740  0.1012 -1.1005 -0.8687
16598TIP3    H171209   0.789   1.501  15.711 -2.2933 -2.7013 -2.2536
16598TIP3    H271210   0.786   1.400  15.822  1.8751 -0.2542  0.3821
16599TIP3   OH271211   1.093   2.441  13.518  0.2627 -0.3008 -0.4396
16599TIP3    H171212   1.050   2.469  13.599 -0.3339 -0.6644 -0.6273
16599TIP3    H271213   1.153   2.372  13.545 -0.0454 -0.5255 -0.3314
16600TIP3   OH271214   2.045   6.763  14.888 -0.0654  0.4821  0.0400
16600TIP3    H171215   1.994   6.842  14.872  0.2846  0.9952  1.3162
16600TIP3    H271216   2.068   6.768  14.981 -0.5449 -1.4164  0.2956
16601TIP3   OH271217   0.296   5.569   4.979 -0.7763  0.2115  0.0204
16601TIP3    H171218   0.307   5.474   4.988 -1.0900  0.1413 -0.2989
16601TIP3    H271219   0.267   5.581   4.888  2.8932  0.9475 -1.2195
16602TIP3   OH271220   2.563   5.287  16.045 -0.0324  0.1266 -0.4649
16602TIP3    H171221   2.477   5.318  16.073  0.2255  1.2295 -0.8544
16602TIP3    H271222   2.553   5.272  15.951  0.1333  0.0054 -0.4636
16603TIP3   OH271223   4.842   6.580  17.203  0.9154 -0.1356  0.2220
16603TIP3    H171224   4.881   6.501  17.242 -0.0661 -0.9511 -0.3917
16603TIP3    H271225   4.868   6.577  17.111 -0.6036 -0.7521 -0.2252
16604TIP3   OH271226   2.696   1.553  10.899 -0.0452 -0.1819 -0.3596
16604TIP3    H171227   2.694   1.507  10.983  0.1039 -0.3101 -0.4235
16604TIP3    H271228   2.670   1.487  10.835  0.5478 -0.2876 -0.4999
16605TIP3   OH271229   1.682   0.898   1.077  0.3425 -0.0891 -0.1036
16605TIP3    H171230   1.772   0.931   1.073  0.5664 -0.6121  0.3995
16605TIP3    H271231   1.664   0.866   0.989  0.0764  1.4482 -0.6381
16606TIP3   OH271232   6.685   3.920  16.150  0.0858  0.2582  0.5996
16606TIP3    H171233   6.663   3.828  16.137 -0.6110  0.4010  0.7247
16606TIP3    H271234   6.772   3.930  16.111  1.0817 -0.9047  2.3895
16607TIP3   OH271235   5.780   0.173  16.358  0.0217 -0.2379 -0.4134
16607TIP3    H171236   5.687   0.154  16.352 -0.2041  0.4282  0.7006
16607TIP3    H271237   5.800   0.222  16.279 -0.6664 -0.0341 -0.4684
16608TIP3   OH271238   5.013   5.611  12.012 -0.0195  0.1190  0.1519
16608TIP3    H171239   5.031   5.643  12.101 -0.0665  0.3905  0.0624
16608TIP3    H271240   4.973   5.525  12.026  0.9039 -0.2875  0.3665
16609TIP3   OH271241   1.577   2.574  15.850 -0.2623  0.1710 -0.2215
16609TIP3    H171242   1.644   2.642  15.862  0.9677 -0.5207 -2.5684
16609TIP3    H271243   1.625   2.492  15.851 -1.5738 -0.6303  1.3684
16610TIP3   OH271244   3.875   6.364   5.093  0.3673 -0.1277  0.0708
16610TIP3    H171245   3.818   6.381   5.167  1.4175 -1.8912  1.3468
16610TIP3    H271246   3.857   6.273   5.068  0.8214  0.0842 -1.1265
16611TIP3   OH271247   3.685   0.874  12.802 -0.1205  0.5289  1.1334
16611TIP3    H171248   3.748   0.819  12.755  1.1025  1.5010  1.5819
16611TIP3    H271249   3.674   0.830  12.887  2.5669  2.0429  2.3727
16612TIP3   OH271250   4.971   2.942  15.568 -0.2738 -0.2492 -0.3176
16612TIP3    H171251   4.977   2.977  15.479  0.8601  0.2121 -0.0734
16612TIP3    H271252   4.979   3.018  15.624  0.2362 -0.6706  0.1940
16613TIP3   OH271253   1.473   3.817  15.341 -0.1430 -0.4106 -0.2971
16613TIP3    H171254   1.527   3.828  15.263  0.4556 -3.0112 -0.3339
16613TIP3    H271255   1.517   3.749  15.391 -1.7467 -0.4106  1.2128
16614TIP3   OH271256   6.754   0.021  16.763 -0.4682  0.0746 -0.5481
16614TIP3    H171257   6.789  -0.040  16.828 -0.8302 -0.7035 -1.0663
16614TIP3    H271258   6.716  -0.035  16.696 -0.5900  0.8754 -1.1626
16615TIP3   OH271259   2.717   4.237   3.129  0.4284  0.5044 -0.2828
16615TIP3    H171260   2.692   4.226   3.037 -0.4458 -1.2605  0.1246
16615TIP3    H271261   2.659   4.178   3.177  1.5142  0.6738  1.3124
16616TIP3   OH271262   4.579   5.529   1.889  0.1770 -0.5222  0.0884
16616TIP3    H171263   4.569   5.615   1.930  0.5149 -0.2501 -0.3811
16616TIP3    H271264   4.670   5.505   1.909 -0.3455 -1.4664  1.5080
16617TIP3   OH271265   3.213   6.245   6.326 -0.1072 -0.4261 -0.2615
16617TIP3    H171266   3.182   6.298   6.400  1.1057  1.1329 -0.8036
16617TIP3    H271267   3.238   6.161   6.366 -0.4798  0.0058  0.9262
16618TIP3   OH271268   3.858   3.250  16.197 -0.2246  0.2086  0.1942
16618TIP3    H171269   3.903   3.333  16.182 -0.5524  0.5529  1.0438
16618TIP3    H271270   3.922   3.184  16.170  0.8019  0.6928  1.3075
16619TIP3   OH271271   4.925   3.899   6.221  0.1018 -0.2531  0.0058
16619TIP3    H171272   4.989   3.969   6.206 -0.4357  0.7327  1.9068
16619TIP3    H271273   4.957   3.852   6.298 -0.1109 -1.4356 -0.6034
16620TIP3   OH271274   3.724   4.534  15.413  0.1993  0.0205  0.1396
16620TIP3    H171275   3.803   4.560  15.460 -0.7485  2.6828  0.3993
16620TIP3    H271276   3.756   4.475  15.344  2.1645 -0.3057  1.2399
16621TIP3   OH271277   6.402   4.260   1.004  0.1154 -0.2810  0.1640
16621TIP3    H171278   6.318   4.220   1.026 -1.0435  1.8798 -0.0452
16621TIP3    H271279   6.435   4.292   1.087 -0.3846  0.8369 -0.0507
16622TIP3   OH271280   1.068   5.624  10.723  0.0776  0.4198 -0.0796
16622TIP3    H171281   1.046   5.543  10.676  0.3532 -0.0219  0.5520
16622TIP3    H271282   0.993   5.681  10.708  0.3997  0.5037 -1.5433
16623TIP3   OH271283   2.356   5.050  13.114 -0.3947  0.2724 -0.4543
16623TIP3    H171284   2.351   5.058  13.209  0.1194  1.0994 -0.4944
16623TIP3    H271285   2.415   4.976  13.099  0.4306  0.8619 -0.1344
16624TIP3   OH271286   3.058   2.655  11.079  0.3402 -0.2591  0.5121
16624TIP3    H171287   3.079   2.704  11.159 -0.5506  0.8711  0.0810
16624TIP3    H271288   3.063   2.720  11.009 -1.9122 -0.4899  0.0516
16625TIP3   OH271289   2.695   0.306   0.771 -0.3537  0.0821 -0.3079
16625TIP3    H171290   2.672   0.243   0.703  1.3005 -0.9955  0.0633
16625TIP3    H271291   2.717   0.252   0.847 -1.8276  1.2452  1.0115
16626TIP3   OH271292   0.683   4.442   0.058  0.0229 -0.1465 -0.5051
16626TIP3    H171293   0.661   4.423  -0.033  0.9627 -0.6031 -0.6579
16626TIP3    H271294   0.721   4.360   0.091 -2.2174 -0.6961  0.9518
16627TIP3   OH271295   5.771   0.527  13.859  0.1104  0.1241  0.1604
16627TIP3    H171296   5.831   0.545  13.787  0.0305 -0.8917 -0.1736
16627TIP3    H271297   5.781   0.602  13.918  2.7833 -0.6665  0.8302
16628TIP3   OH271298   1.716   3.667   1.492  0.2449 -0.1960 -0.1281
16628TIP3    H171299   1.719   3.614   1.571  3.7437 -0.9927 -0.5962
16628TIP3    H271300   1.760   3.749   1.516 -2.8648  1.5876 -0.0913
16629TIP3   OH271301   2.489   3.548  10.665 -0.1659  0.4171  0.6955
16629TIP3    H171302   2.583   3.547  10.646 -0.3368  0.8222 -0.2120
16629TIP3    H271303   2.457   3.463  10.634 -0.0427  0.1413  1.3188
16630TIP3   OH271304   2.993   1.730   4.872 -0.5591  0.2879 -0.0830
16630TIP3    H171305   3.069   1.756   4.820 -0.2087  0.8837  0.7058
16630TIP3    H271306   2.920   1.776   4.831 -0.6317 -0.8699 -1.2992
16631TIP3   OH271307   3.779   0.106  16.622 -0.2989 -0.2340  0.1497
16631TIP3    H171308   3.836   0.049  16.674 -1.3036  0.6072  2.2982
16631TIP3    H271309   3.825   0.190  16.620 -1.1711  0.3022  1.4523
16632TIP3   OH271310   4.701   3.596  14.869  0.2692 -0.3845 -0.2601
16632TIP3    H171311   4.677   3.522  14.814  0.2372  0.6577 -1.7239
16632TIP3    H271312   4.619   3.624  14.909  0.2288 -0.9478  0.0522
16633TIP3   OH271313   4.828   3.289  13.485  0.0630  0.1739 -0.5546
16633TIP3    H171314   4.889   3.259  13.417 -1.3485  0.0365 -1.8072
16633TIP3    H271315   4.776   3.357  13.442 -2.4475 -1.5337 -0.3921
16634TIP3   OH271316   2.501   3.042  16.966 -0.0219 -0.3372 -0.5519
16634TIP3    H171317   2.483   3.081  16.881  0.4034  0.2720 -0.3674
16634TIP3    H271318   2.435   2.973  16.975 -0.0160 -0.4605 -1.4055
16635TIP3   OH271319   4.881   4.869  14.705  0.7137 -0.0431  0.6575
16635TIP3    H171320   4.887   4.783  14.748 -2.0730 -0.6647  0.0406
16635TIP3    H271321   4.892   4.932  14.775  2.9386 -0.8579  1.1114
16636TIP3   OH271322   0.423   5.227   5.715  0.2048 -0.8376  0.2519
16636TIP3    H171323   0.430   5.312   5.758 -1.4574  0.5235 -1.9402
16636TIP3    H271324   0.490   5.230   5.646  1.4200 -2.1345  1.3097
16637TIP3   OH271325   4.872   0.028  14.588  0.1608 -0.0439 -0.1030
16637TIP3    H171326   4.866   0.016  14.683  2.2634 -1.1098 -0.0501
16637TIP3    H271327   4.924   0.108  14.577  0.0698 -0.0175 -0.3480
16638TIP3   OH271328   1.967   3.207  13.977  0.2389 -0.0180 -0.3410
16638TIP3    H171329   2.020   3.177  14.051 -0.4354 -0.6675 -0.1161
16638TIP3    H271330   1.924   3.286  14.009  2.4452  1.5791 -1.1111
16639TIP3   OH271331   5.723   4.273   5.824  0.4974  0.3267  0.0407
16639TIP3    H171332   5.679   4.237   5.901  1.6392  2.5737  1.8873
16639TIP3    H271333   5.660   4.334   5.787  0.8495  1.1711  0.7883
16640TIP3   OH271334   3.264   5.845  11.554  0.5844 -0.3278  0.2254
16640TIP3    H171335   3.261   5.751  11.573  2.8473 -0.4241  0.4489
16640TIP3    H271336   3.191   5.882  11.604 -1.8852 -2.1791 -1.7599
16641TIP3   OH271337   1.046   2.866  16.074 -0.2397  0.5110 -0.3695
16641TIP3    H171338   1.106   2.930  16.035 -0.0056 -0.2687 -1.3333
16641TIP3    H271339   0.970   2.866  16.017 -0.9965  1.1718  0.6061
16642TIP3   OH271340   1.611   5.188   4.857 -0.0923 -0.0504  0.2217
16642TIP3    H171341   1.612   5.094   4.839  0.2657 -0.1868  0.9117
16642TIP3    H271342   1.518   5.211   4.859 -0.1985 -0.4892  0.5349
16643TIP3   OH271343   5.377   1.090  17.013  0.4991  0.4112  0.3200
16643TIP3    H171344   5.334   1.037  16.947 -0.4910  0.5553  0.8239
16643TIP3    H271345   5.327   1.172  17.016  0.2288  0.2278  1.5535
16644TIP3   OH271346   2.001   0.585  16.656  0.8235  0.2972 -0.1418
16644TIP3    H171347   1.975   0.493  16.661 -0.9920  0.7966  0.2829
16644TIP3    H271348   1.972   0.614  16.570 -0.3322  0.9463  0.4499
16645TIP3   OH271349   4.027   5.941  16.962  0.3361 -0.1875 -0.3507
16645TIP3    H171350   4.111   5.914  17.000 -0.4750 -0.4596  1.3248
16645TIP3    H271351   4.049   6.015  16.906  1.2356  2.5857  3.2874
16646TIP3   OH271352   3.402   1.291   1.001 -0.5564 -0.1489  0.1733
16646TIP3    H171353   3.488   1.307   1.040 -1.6505 -0.5727  3.0240
16646TIP3    H271354   3.349   1.366   1.027 -1.6666 -1.0289  0.5651
16647TIP3   OH271355   6.559   4.876  17.196  0.6429  0.0332  0.1040
16647TIP3    H171356   6.654   4.888  17.200  0.6650 -0.3103  0.8144
16647TIP3    H271357   6.523   4.959  17.227  0.6593  0.9278 -2.1227
16648TIP3   OH271358   1.510   1.532   3.835  0.2541  0.6031  0.3455
16648TIP3    H171359   1.563   1.588   3.778 -0.3822  2.0615  1.1266
16648TIP3    H271360   1.538   1.443   3.814  0.9367  1.1668 -1.3155
16649TIP3   OH271361   5.524   4.773   0.328  0.2663 -0.6509 -0.1856
16649TIP3    H171362   5.516   4.790   0.422 -1.3908 -0.2720 -0.3717
16649TIP3    H271363   5.436   4.752   0.300  0.5579  0.2152 -1.8470
16650TIP3   OH271364   4.894   5.287  12.857  0.3892 -0.0027 -0.3315
16650TIP3    H171365   4.835   5.334  12.916 -0.2490 -0.6441 -0.4474
16650TIP3    H271366   4.888   5.334  12.774  0.5469  0.3219 -0.1599
16651TIP3   OH271367   0.852   4.953   2.153  0.1357  0.3519  0.2322
16651TIP3    H171368   0.871   5.046   2.164  1.7632  0.2061 -0.9212
16651TIP3    H271369   0.816   4.946   2.065  2.3344 -0.3647 -0.6656
16652TIP3   OH271370   6.141   3.701  15.192 -0.1019 -0.7300 -0.0044
16652TIP3    H171371   6.215   3.742  15.237  1.3841 -0.6281 -2.3540
16652TIP3    H271372   6.063   3.740  15.231  1.1441  0.7333  1.1153
16653TIP3   OH271373   3.704   1.699  15.591  0.5301  0.3136  0.2395
16653TIP3    H171374   3.756   1.658  15.522 -0.7201  0.5525 -0.8918
16653TIP3    H271375   3.706   1.636  15.663  0.7734 -0.5557 -0.5029
16654TIP3   OH271376   1.301   5.546  13.934  0.2528  0.1426  0.2779
16654TIP3    H171377   1.364   5.476  13.917 -0.6368 -0.4228 -0.8269
16654TIP3    H271378   1.272   5.532  14.024  1.3947  0.1777  0.6676
16655TIP3   OH271379   6.169   3.104   5.495 -0.4041  0.4685 -0.2873
16655TIP3    H171380   6.141   3.059   5.416 -0.4710 -0.1088  0.0589
16655TIP3    H271381   6.261   3.127   5.478 -0.1487 -0.4294 -0.2029
16656TIP3   OH271382   1.367   1.793  16.422 -0.5402 -0.4183 -0.4566
16656TIP3    H171383   1.358   1.888  16.421 -1.3889 -0.4995 -0.5759
16656TIP3    H271384   1.320   1.763  16.344 -1.8090 -1.0617  0.5248
16657TIP3   OH271385   3.282   4.608   0.588 -0.1051  0.0773 -0.5940
16657TIP3    H171386   3.246   4.695   0.603  1.5662  0.6866  0.1325
16657TIP3    H271387   3.269   4.593   0.494  0.2214  1.4392 -0.8898
16658TIP3   OH271388   4.408   1.979   3.007 -0.5077 -0.6466 -0.7741
16658TIP3    H171389   4.353   1.902   3.015 -0.2321 -0.6917  1.2663
16658TIP3    H271390   4.480   1.952   2.951  0.1655 -2.2734  0.7628
16659TIP3   OH271391   3.907   4.382  14.024 -0.1839  0.7759  0.0869
16659TIP3    H171392   3.985   4.373  14.079 -0.5474  1.5242  0.7337
16659TIP3    H271393   3.892   4.476  14.019 -1.1270  0.6356  0.0820
16660TIP3   OH271394   5.117   5.899   6.150 -0.0864 -0.1163 -0.0121
16660TIP3    H171395   5.136   5.936   6.237 -0.4795 -1.4435  0.6565
16660TIP3    H271396   5.203   5.876   6.115 -0.0161 -0.8644  0.6245
16661TIP3   OH271397   0.127   1.045   0.770  0.1138 -0.2140  0.9103
16661TIP3    H171398   0.083   1.128   0.789  0.2121 -0.0510  0.4478
16661TIP3    H271399   0.061   0.994   0.722 -0.4238 -0.9469  2.3610
16662TIP3   OH271400   4.534   3.519   3.711  0.2906  0.3571 -0.0888
16662TIP3    H171401   4.439   3.526   3.712  0.3632  1.7077 -0.2273
16662TIP3    H271402   4.556   3.472   3.791 -0.4896  0.0642 -0.0431
16663TIP3   OH271403   2.246   2.173  16.137  0.2912 -0.5771 -0.1295
16663TIP3    H171404   2.270   2.083  16.114 -1.2030 -0.6557 -1.5783
16663TIP3    H271405   2.286   2.227  16.068 -1.0687 -0.4271 -0.8339
16664TIP3   OH271406   3.187   6.286  11.403 -0.0082  0.1863  0.4470
16664TIP3    H171407   3.168   6.327  11.488 -1.8276 -0.3222  0.3283
16664TIP3    H271408   3.171   6.356  11.339 -0.7629 -0.0193  0.4005
16665TIP3   OH271409   2.262   3.728   1.019 -0.0043 -0.0124 -0.2479
16665TIP3    H171410   2.309   3.677   0.953 -1.3573 -2.3287  0.4965
16665TIP3    H271411   2.221   3.663   1.076 -0.4230  1.9114  1.7976
16666TIP3   OH271412   3.484   6.368  14.889 -0.1323  0.0722  0.2831
16666TIP3    H171413   3.474   6.332  14.801  2.3055 -1.1995  0.4462
16666TIP3    H271414   3.579   6.373  14.903 -0.3836  3.2199  1.6940
16667TIP3   OH271415   1.276   5.287  14.187  0.4667 -0.3803 -0.0985
16667TIP3    H171416   1.198   5.335  14.216  0.7816 -0.5841  1.1290
16667TIP3    H271417   1.340   5.356  14.167  0.2167 -0.2355 -0.4106
16668TIP3   OH271418   5.308   3.180   3.335 -0.8986  0.1106 -0.2831
16668TIP3    H171419   5.357   3.248   3.290 -3.1577  1.0673 -1.4619
16668TIP3    H271420   5.228   3.224   3.365 -0.3795 -0.9638  3.0269
16669TIP3   OH271421   2.981   6.732  13.356  0.4002  0.0587  0.7466
16669TIP3    H171422   2.945   6.705  13.441  2.0880 -1.4613  1.0391
16669TIP3    H271423   3.075   6.740  13.371  0.9036 -1.3545 -1.2160
16670TIP3   OH271424   5.508   0.699  11.339  0.2331  0.2053 -0.1857
16670TIP3    H171425   5.418   0.686  11.370  0.5580  0.1143  0.7677
16670TIP3    H271426   5.499   0.751  11.260 -0.6772  0.0158 -0.2167
16671TIP3   OH271427   4.088   0.823  16.815  0.0892 -0.4457 -0.6764
16671TIP3    H171428   4.071   0.777  16.897  0.4317 -0.4226 -0.5917
16671TIP3    H271429   4.145   0.764  16.765  0.3780 -0.1982 -0.6438
16672TIP3   OH271430   6.239   0.314  12.066  0.0160 -0.0411  0.6795
16672TIP3    H171431   6.192   0.275  11.993  0.7059  1.3268 -0.5614
16672TIP3    H271432   6.170   0.344  12.126 -0.6252  0.1703 -0.1430
16673TIP3   OH271433   6.195   0.271  16.567  0.2253 -0.1686 -0.1463
16673TIP3    H171434   6.231   0.248  16.482 -0.1207  0.3870 -0.4430
16673TIP3    H271435   6.163   0.188  16.603  3.2295 -1.0348  0.8358
16674TIP3   OH271436   5.076   2.121   2.189 -0.2008  0.3816 -0.6957
16674TIP3    H171437   4.992   2.087   2.158 -0.4950  0.7022 -0.2521
16674TIP3    H271438   5.131   2.121   2.111 -0.2402 -0.9307 -0.7557
16675TIP3   OH271439   1.815   0.488   1.419  0.3124 -0.3203  0.1530
16675TIP3    H171440   1.724   0.479   1.394 -0.2748  0.1784  1.9427
16675TIP3    H271441   1.824   0.580   1.446  1.2497 -0.4460  0.3234
16676TIP3   OH271442   4.013   2.041   4.857  0.0882  0.2327  0.4561
16676TIP3    H171443   4.044   1.957   4.893  1.5501  0.0650 -1.0366
16676TIP3    H271444   4.077   2.062   4.789 -1.8870  1.0812 -1.2515
16677TIP3   OH271445   1.948   0.170   1.035 -0.0171 -0.1729  0.0507
16677TIP3    H171446   1.919   0.256   1.004 -0.6940  0.4077  2.1585
16677TIP3    H271447   2.012   0.189   1.104  0.0605 -1.3648  0.3270
16678TIP3   OH271448   1.847   0.159  14.756  0.3286 -0.5929  0.3214
16678TIP3    H171449   1.909   0.226  14.786  0.5843 -0.3610 -0.6911
16678TIP3    H271450   1.762   0.188  14.790  0.5426 -0.1154  0.4555
16679TIP3   OH271451   4.501   2.632   3.495 -0.2769 -0.0067  0.2326
16679TIP3    H171452   4.452   2.587   3.427 -0.8715  0.2981  0.4591
16679TIP3    H271453   4.551   2.699   3.448  0.6208 -0.8911 -0.1056
16680TIP3   OH271454   5.335   3.341  15.601  0.3521  0.4186  0.7366
16680TIP3    H171455   5.321   3.251  15.629  2.7268  0.7941  3.6559
16680TIP3    H271456   5.261   3.389  15.637  0.9403  0.1276  2.4255
16681TIP3   OH271457   6.148   3.241   0.571 -0.6414  0.1472 -0.3555
16681TIP3    H171458   6.240   3.225   0.592 -0.8777 -0.2297  0.4270
16681TIP3    H271459   6.142   3.227   0.477 -0.1756 -1.1740 -0.2054
16682TIP3   OH271460   4.459   5.733  13.944  0.2695  0.3274 -0.3018
16682TIP3    H171461   4.435   5.771  13.859  0.0123 -0.8327 -0.7625
16682TIP3    H271462   4.390   5.763  14.003 -2.0952 -2.3614 -1.4568
16683TIP3   OH271463   2.232   0.335  15.901 -0.1961 -0.2219  0.6332
16683TIP3    H171464   2.239   0.272  15.830  0.2552  1.1717 -0.5939
16683TIP3    H271465   2.158   0.304  15.953 -0.6609 -1.1632 -0.5484
16684TIP3   OH271466   0.828   4.436  12.450  0.7046 -0.6106 -0.0605
16684TIP3    H171467   0.754   4.468  12.400  2.2994 -0.8446 -2.7306
16684TIP3    H271468   0.797   4.436  12.541 -1.5669  2.0229 -0.6944
16685TIP3   OH271469   3.240   6.704  13.410  0.2317  0.0059  0.0311
16685TIP3    H171470   3.306   6.763  13.372  1.7227 -1.3982  0.3266
16685TIP3    H271471   3.273   6.687  13.499  1.5311 -3.5880 -0.9841
16686TIP3   OH271472   2.679   0.768   3.949 -0.3390  0.3654  0.3260
16686TIP3    H171473   2.736   0.739   3.878 -1.6081  1.6911 -1.3140
16686TIP3    H271474   2.693   0.703   4.018  2.6840  0.3210 -0.1784
16687TIP3   OH271475   1.182   4.328  14.813 -0.5308  0.0041  0.6057
16687TIP3    H171476   1.177   4.289  14.901 -2.2945  0.7657  0.8761
16687TIP3    H271477   1.174   4.254  14.754  3.2405 -0.8810  0.9595
16688TIP3   OH271478   2.833   4.961   1.000 -0.2799  0.7348 -0.5283
16688TIP3    H171479   2.767   4.905   1.041 -0.9366  0.3301 -2.0573
16688TIP3    H271480   2.843   4.926   0.912  0.5380  2.0129 -0.9809
16689TIP3   OH271481   3.167   0.417  13.952  0.1887  0.0336  0.2145
16689TIP3    H171482   3.140   0.462  14.032 -1.2192 -0.3680 -0.0176
16689TIP3    H271483   3.186   0.487  13.890 -0.6760  0.3432  0.2825
16690TIP3   OH271484   2.252   2.278   0.488 -0.2501 -0.3267  0.7267
16690TIP3    H171485   2.297   2.288   0.405 -0.2078  1.0591  0.8956
16690TIP3    H271486   2.270   2.359   0.536  1.1126 -1.7508  2.7917
16691TIP3   OH271487   1.503   5.654   2.761  0.2862  0.0489 -0.0311
16691TIP3    H171488   1.461   5.739   2.777 -1.7737 -1.0239  0.5433
16691TIP3    H271489   1.577   5.653   2.822 -0.9450  0.5823  1.5587
16692TIP3   OH271490   4.616   5.789  15.774 -0.1422 -0.1991  0.3286
16692TIP3    H171491   4.664   5.768  15.694 -0.6789  1.1063 -0.3770
16692TIP3    H271492   4.537   5.834  15.743  1.1438  3.3139  1.5982
16693TIP3   OH271493   2.667   3.144   4.841 -0.3417 -0.5357  0.4405
16693TIP3    H171494   2.573   3.160   4.844 -0.0662  1.0888  2.5849
16693TIP3    H271495   2.681   3.072   4.902 -0.2880 -1.6510 -0.8363
16694TIP3   OH271496   6.636   6.387   3.570  0.0665  0.1490 -0.4515
16694TIP3    H171497   6.658   6.350   3.655 -2.1460 -0.1404  0.0561
16694TIP3    H271498   6.590   6.469   3.590  0.7441  0.7998 -1.4340
16695TIP3   OH271499   5.884   2.834   3.030 -0.2524 -0.1550 -0.2628
16695TIP3    H171500   5.966   2.839   3.078 -0.9487 -1.4660  1.1430
16695TIP3    H271501   5.846   2.922   3.038 -0.6518 -0.4915  2.1964
16696TIP3   OH271502   0.381   0.988   2.063  0.2226 -0.6907 -0.1098
16696TIP3    H171503   0.350   0.942   2.141 -2.2922 -0.7576 -1.0657
16696TIP3    H271504   0.406   0.919   2.002 -0.1321 -0.7110 -0.2353
16697TIP3   OH271505   4.788   5.544   1.631 -0.2222  0.4507  0.3892
16697TIP3    H171506   4.878   5.574   1.639 -0.2710  0.6004  0.3767
16697TIP3    H271507   4.735   5.623   1.641 -0.3143  0.5330 -0.6426
16698TIP3   OH271508   5.956   1.935  12.273  0.1822  0.5547  0.4372
16698TIP3    H171509   5.906   1.856  12.252  0.2762  0.4192  0.7136
16698TIP3    H271510   5.947   1.991  12.196  0.9056 -0.1196 -0.1514
16699TIP3   OH271511   6.546   5.961  11.304 -0.0255  0.3460 -0.1621
16699TIP3    H171512   6.619   5.971  11.242  1.1807 -0.0489  1.1336
16699TIP3    H271513   6.520   5.870  11.295  0.0852  0.3142 -0.1700
16700TIP3   OH271514   5.478   2.056   1.442  0.3146 -0.0441  0.0102
16700TIP3    H171515   5.389   2.023   1.432  0.8205 -1.4448 -0.0629
16700TIP3    H271516   5.521   1.992   1.499  0.4585  2.2021  2.6262
16701TIP3   OH271517   4.787   4.071   5.824  0.1918 -0.2987 -0.0002
16701TIP3    H171518   4.855   4.008   5.800  0.6256  0.3235 -0.4299
16701TIP3    H271519   4.754   4.104   5.741 -1.6389 -1.6144  0.1574
16702TIP3   OH271520   4.436   5.711   4.662  0.5786 -0.2781  0.6525
16702TIP3    H171521   4.353   5.759   4.652  0.0973 -0.8528  1.7967
16702TIP3    H271522   4.413   5.633   4.712  1.8778 -0.2953  1.2519
16703TIP3   OH271523   3.143   4.747  15.235 -0.1087  0.2173 -0.2073
16703TIP3    H171524   3.113   4.706  15.154 -0.7809  0.6580 -0.1929
16703TIP3    H271525   3.227   4.786  15.212  0.2148 -0.5722 -0.3980
16704TIP3   OH271526   1.946   2.527  15.315 -0.6682  0.0136 -0.3074
16704TIP3    H171527   1.854   2.541  15.295 -0.6761 -0.7407 -0.8088
16704TIP3    H271528   1.989   2.609  15.289 -0.8299 -0.5326 -2.4282
16705TIP3   OH271529   3.867   5.513  15.385 -0.3931 -0.0515  0.0553
16705TIP3    H171530   3.898   5.435  15.432 -2.3979 -0.5785  0.6105
16705TIP3    H271531   3.853   5.578  15.453  1.0661  0.7447 -0.3855
16706TIP3   OH271532   1.616   4.027  15.452 -0.0844 -0.3688 -0.5686
16706TIP3    H171533   1.570   3.943  15.453  0.9649 -0.9666  0.3686
16706TIP3    H271534   1.708   4.003  15.450  0.2090  0.8021 -2.0410
16707TIP3   OH271535   3.919   0.839   5.930  0.6438  0.6005  0.4406
16707TIP3    H171536   3.877   0.808   6.010  3.6207 -0.8465  1.5975
16707TIP3    H271537   3.902   0.770   5.866 -1.3505  1.5471 -0.1480
16708TIP3   OH271538   0.484   3.107  16.909 -0.1654 -0.6096 -0.4933
16708TIP3    H171539   0.392   3.082  16.898 -0.5885 -0.1569  1.6075
16708TIP3    H271540   0.482   3.176  16.976  1.3785  1.9825 -2.8794
16709TIP3   OH271541   5.280   3.697  12.873  0.5629 -0.8401  0.6718
16709TIP3    H171542   5.242   3.614  12.903 -0.4210 -0.5115  0.3814
16709TIP3    H271543   5.372   3.677  12.858  1.7022 -0.6198  5.6638
16710TIP3   OH271544   6.260   4.388  14.524  0.5734  0.1489  0.4748
16710TIP3    H171545   6.329   4.442  14.484 -1.3584  0.2738 -3.0720
16710TIP3    H271546   6.300   4.301  14.531  1.4128  0.3918 -0.7688
16711TIP3   OH271547   5.941   2.730   0.709  0.7054 -0.3757  0.5480
16711TIP3    H171548   5.965   2.766   0.794 -0.2183  2.6091 -0.3325
16711TIP3    H271549   5.854   2.766   0.691  0.7202 -1.2222 -1.5093
16712TIP3   OH271550   2.792   4.335  11.909  0.5679 -0.4692 -0.0038
16712TIP3    H171551   2.874   4.311  11.867  2.3112  0.5421  2.5494
16712TIP3    H271552   2.759   4.409  11.859  0.5704 -1.5852 -1.7298
16713TIP3   OH271553   5.572   3.048   5.256  0.1287 -0.3168 -0.4122
16713TIP3    H171554   5.511   3.040   5.183  0.4255 -0.0915 -0.6918
16713TIP3    H271555   5.620   2.965   5.257  0.0099 -0.3844 -0.3712
16714TIP3   OH271556   6.386   2.700  15.168 -0.4556 -0.1870 -0.2157
16714TIP3    H171557   6.476   2.711  15.138 -0.9214 -0.2756 -1.7251
16714TIP3    H271558   6.381   2.753  15.248  1.0920 -0.7048  0.2707
16715TIP3   OH271559   3.960   5.196   1.743 -0.5747  0.7233  0.0484
16715TIP3    H171560   3.996   5.107   1.741 -0.5501  0.6852  1.3414
16715TIP3    H271561   3.991   5.237   1.662  0.3074 -0.1030 -0.0401
16716TIP3   OH271562   6.447   2.242   1.693 -0.7516 -0.6373  0.0384
16716TIP3    H171563   6.416   2.278   1.776 -0.3424 -1.0716  0.3835
16716TIP3    H271564   6.379   2.265   1.630 -1.5670 -1.2070  0.6932
16717TIP3   OH271565   1.964   5.813   3.277  0.2003  0.1585  0.1449
16717TIP3    H171566   1.886   5.773   3.314 -0.6470 -0.1253 -1.8128
16717TIP3    H271567   2.037   5.762   3.313 -0.6311 -0.7903  0.5188
16718TIP3   OH271568   3.277   2.151  16.740  0.1093 -0.4922  0.3314
16718TIP3    H171569   3.217   2.226  16.753  3.0023  2.0543  0.1727
16718TIP3    H271570   3.240   2.103  16.667 -2.2784  0.3340  0.9006
16719TIP3   OH271571   3.719   2.124   5.703  0.0633 -0.1406 -0.3145
16719TIP3    H171572   3.809   2.103   5.729 -0.2805  0.3299  1.4372
16719TIP3    H271573   3.701   2.206   5.749 -1.1729 -0.0899 -0.8704
16720TIP3   OH271574   3.308   5.118  13.680 -0.4993  0.8369 -0.2901
16720TIP3    H171575   3.398   5.086  13.679 -0.4424  0.9322  0.8770
16720TIP3    H271576   3.256   5.048  13.639 -0.0643  0.2534  0.1498
16721TIP3   OH271577   6.279   2.577   5.494 -0.0552 -0.6298  0.0730
16721TIP3    H171578   6.195   2.555   5.453 -0.1689 -0.5511  0.2579
16721TIP3    H271579   6.323   2.632   5.430 -0.5799  0.1786  0.3714
16722TIP3   OH271580   5.278   2.448  14.900 -0.2920 -0.1095  0.7305
16722TIP3    H171581   5.353   2.443  14.842  1.6036  0.4170  3.0019
16722TIP3    H271582   5.237   2.533  14.880 -0.6264 -0.6239 -0.8623
16723TIP3   OH271583   2.503   0.295  14.300 -0.1540  0.0841  0.4786
16723TIP3    H171584   2.408   0.301  14.285 -0.3898  1.0822  2.1004
16723TIP3    H271585   2.528   0.382  14.332  1.3906 -0.0597 -0.2620
16724TIP3   OH271586   0.060   3.747  17.076 -0.0853  0.0087 -0.3507
16724TIP3    H171587   0.013   3.828  17.096  1.2921  0.7940 -0.1529
16724TIP3    H271588   0.035   3.726  16.986 -1.4576 -0.0768  0.0376
16725TIP3   OH271589   2.014   6.251  11.329  0.2497 -0.2127 -0.0645
16725TIP3    H171590   2.029   6.271  11.422 -0.5476 -0.1565  0.0605
16725TIP3    H271591   1.922   6.225  11.325  0.6193 -1.5403 -0.6244
16726TIP3   OH271592   6.294   4.398  13.405 -0.1177 -0.5131  0.5248
16726TIP3    H171593   6.380   4.357  13.393  0.4606  0.8710 -0.2267
16726TIP3    H271594   6.302   4.484  13.364 -1.9434 -0.4386  0.2559
16727TIP3   OH271595   4.284   6.465   0.544  0.3967 -0.5097  0.6626
16727TIP3    H171596   4.313   6.384   0.586  1.2680  0.2070  1.4806
16727TIP3    H271597   4.347   6.531   0.573 -1.2713  0.8264  1.3872
16728TIP3   OH271598   3.009   2.599   1.267  0.4504  0.0482 -0.1955
16728TIP3    H171599   2.975   2.511   1.279  2.0516 -0.6373 -0.4408
16728TIP3    H271600   2.935   2.657   1.288 -0.4410 -1.3230  0.5698
16729TIP3   OH271601   2.930   0.006  12.834 -0.6837  0.5850 -0.0367
16729TIP3    H171602   2.932   0.101  12.824  3.0778  0.5497 -1.1696
16729TIP3    H271603   2.909  -0.008  12.927 -1.2642  2.4898  0.1615
16730TIP3   OH271604   3.486   3.228   0.476 -0.2462 -0.3917 -0.3054
16730TIP3    H171605   3.435   3.147   0.473  0.9916 -1.1715 -1.2293
16730TIP3    H271606   3.453   3.274   0.553  0.0576 -2.4580  1.1506
16731TIP3   OH271607   5.517   2.453   0.130 -0.0511 -0.1054 -0.3356
16731TIP3    H171608   5.444   2.510   0.153 -1.3654 -1.4347 -1.0016
16731TIP3    H271609   5.548   2.486   0.046  0.5145  0.8015  0.2073
16732TIP3   OH271610   3.572   3.429  15.697 -0.1139 -0.1580  0.3810
16732TIP3    H171611   3.521   3.506  15.722  0.5256  0.0337  1.1509
16732TIP3    H271612   3.617   3.404  15.778 -0.0570 -1.1391  0.0535
16733TIP3   OH271613   2.830   5.052  13.415  0.5085  0.0747  0.0199
16733TIP3    H171614   2.889   5.041  13.490 -1.1921  0.3891  1.4728
16733TIP3    H271615   2.819   4.963  13.381  0.5390 -0.2336  0.7786
16734TIP3   OH271616   5.583   6.268  13.689  0.1455 -0.2243  0.0336
16734TIP3    H171617   5.516   6.337  13.688 -0.3390 -0.6872 -0.7204
16734TIP3    H271618   5.580   6.233  13.778 -0.4698 -0.0998  0.0670
16735TIP3   OH271619   5.477   0.036   0.527 -0.1427  0.3078 -0.0475
16735TIP3    H171620   5.561  -0.005   0.505 -0.0612 -0.0031  0.8097
16735TIP3    H271621   5.501   0.123   0.560 -0.1419  0.1328  0.4121
16736TIP3   OH271622   3.246   1.271  16.119 -0.2562 -0.6214 -0.9837
16736TIP3    H171623   3.300   1.339  16.158  0.2165 -1.2251 -0.5589
16736TIP3    H271624   3.159   1.310  16.111  0.1971  0.3101 -1.5364
16737TIP3   OH271625   3.418   5.275  15.801 -0.1478  0.1485  0.0372
16737TIP3    H171626   3.379   5.284  15.715  0.6472  1.7912 -0.1922
16737TIP3    H271627   3.431   5.365  15.831  3.1019 -0.2772  0.2222
16738TIP3   OH271628   2.794   6.455  14.478  0.4206  0.7300  0.0231
16738TIP3    H171629   2.727   6.461  14.546  1.6586 -0.0271  1.3802
16738TIP3    H271630   2.785   6.366  14.443  1.7675 -0.0210  1.4360
16739TIP3   OH271631   1.414   5.134  12.686  0.1870 -0.1376  0.6271
16739TIP3    H171632   1.355   5.082  12.740  0.7389 -0.7456  0.6540
16739TIP3    H271633   1.377   5.129  12.598 -0.3016  0.2404  0.8067
16740TIP3   OH271634   1.088   6.394  13.632 -0.2151 -0.6593  0.6021
16740TIP3    H171635   1.149   6.350  13.573  0.1114  0.1382  0.3443
16740TIP3    H271636   1.044   6.322  13.678 -0.3792 -1.2936 -0.5026
16741TIP3   OH271637   1.647   3.563   4.467 -0.1934 -0.5572 -0.4125
16741TIP3    H171638   1.607   3.485   4.508 -0.4124 -0.1083  0.2405
16741TIP3    H271639   1.735   3.567   4.503 -0.2570 -0.3781 -0.2755
16742TIP3   OH271640   2.328   1.452   0.710  0.6637  0.4991  0.0143
16742TIP3    H171641   2.270   1.519   0.673  2.3358  0.2054 -3.5342
16742TIP3    H271642   2.311   1.374   0.657  0.8245 -1.1338  2.1937
16743TIP3   OH271643   6.461   3.580  15.465 -0.0893 -0.5548 -0.5779
16743TIP3    H171644   6.533   3.634  15.434  0.5597 -0.1380  1.4736
16743TIP3    H271645   6.431   3.624  15.545 -1.8230 -1.3827 -0.7367
16744TIP3   OH271646   6.461   3.602   3.019  0.1953 -0.2953 -0.1628
16744TIP3    H171647   6.370   3.631   3.010  0.4409  0.4701 -0.2760
16744TIP3    H271648   6.484   3.624   3.109  0.1896 -0.7348 -0.0520
16745TIP3   OH271649   2.526   4.397   2.689  0.1090 -0.1366 -0.2667
16745TIP3    H171650   2.500   4.480   2.730 -0.4085 -0.0054 -0.8542
16745TIP3    H271651   2.471   4.332   2.732  1.9897 -0.5038  1.7328
16746TIP3   OH271652   2.391   4.842  11.713 -0.6815  0.1361  0.0370
16746TIP3    H171653   2.395   4.938  11.705 -1.2714  0.2561  1.0235
16746TIP3    H271654   2.335   4.814  11.640 -2.8900  0.8267  1.3696
16747TIP3   OH271655   6.066   4.339   4.791 -0.3598  0.0286  0.3847
16747TIP3    H171656   6.137   4.396   4.821  0.1560  0.4699 -1.5060
16747TIP3    H271657   5.996   4.352   4.854  0.8630  0.3711  1.7272
16748TIP3   OH271658   6.673   5.828  12.280 -0.6266 -0.1864 -0.0110
16748TIP3    H171659   6.653   5.774  12.203  0.0450 -0.3461 -0.0795
16748TIP3    H271660   6.744   5.885  12.251  0.6595 -1.2562  0.9067
16749TIP3   OH271661   6.258   6.175  12.949 -0.0137  0.6866  0.1423
16749TIP3    H171662   6.280   6.089  12.985  0.8714  1.9096  2.7834
16749TIP3    H271663   6.237   6.229  13.026  0.7336  3.1905 -1.2889
16750TIP3   OH271664   3.794   6.414  11.854 -0.0162 -0.1589  0.0857
16750TIP3    H171665   3.707   6.374  11.843  0.7559 -1.4722 -1.9147
16750TIP3    H271666   3.776   6.507  11.867 -1.7248 -0.3464 -0.6439
16751TIP3   OH271667   4.427   4.731   1.972  0.3393  0.3993 -0.3364
16751TIP3    H171668   4.355   4.715   1.911 -2.0751  3.1264  1.5315
16751TIP3    H271669   4.427   4.655   2.030  0.6735 -0.7832 -1.8117
16752TIP3   OH271670   4.169   4.836  11.226  0.2231 -0.0594  0.0999
16752TIP3    H171671   4.158   4.812  11.318 -1.0412 -1.6969 -0.4403
16752TIP3    H271672   4.197   4.756  11.183 -2.2949 -0.1915 -1.4617
16753TIP3   OH271673   1.880   5.367  16.919 -0.0258  0.5699  0.6432
16753TIP3    H171674   1.816   5.422  16.964 -0.0401  0.3358  0.9081
16753TIP3    H271675   1.965   5.402  16.948  0.0026  1.7564 -0.7432
16754TIP3   OH271676   3.578   2.790  14.246 -0.2939 -0.1589  0.0046
16754TIP3    H171677   3.488   2.819  14.231 -0.8220 -0.9724  1.4732
16754TIP3    H271678   3.573   2.733  14.322  1.1871 -1.6999 -0.9740
16755TIP3   OH271679   2.632   3.454  16.223  0.0546  0.2414 -0.8780
16755TIP3    H171680   2.608   3.547  16.227  1.7430  0.7792 -1.7609
16755TIP3    H271681   2.723   3.452  16.253 -0.4852 -1.4140  0.7943
16756TIP3   OH271682   0.421   3.509  11.645 -0.1957  0.0223 -0.3455
16756TIP3    H171683   0.440   3.461  11.565  1.6033 -0.0070  0.0565
16756TIP3    H271684   0.438   3.600  11.624 -0.9750  0.1714 -0.3496
16757TIP3   OH271685   0.822   3.375  12.602  0.2122 -0.0372  0.2481
16757TIP3    H171686   0.781   3.429  12.535  2.6200  0.8681 -0.5919
16757TIP3    H271687   0.873   3.436  12.655  0.0363 -1.0231  1.6015
16758TIP3   OH271688   4.588   0.425   2.204  0.3704  0.4667  0.0576
16758TIP3    H171689   4.675   0.407   2.238  0.4333 -1.0128 -0.8087
16758TIP3    H271690   4.598   0.505   2.152  0.9576  0.9088  0.8383
16759TIP3   OH271691   6.518   1.127  16.885 -0.2193  0.1280  0.5507
16759TIP3    H171692   6.475   1.212  16.898 -0.8728 -0.2589  0.9857
16759TIP3    H271693   6.518   1.087  16.971 -1.8997 -1.2236 -0.0045
16760TIP3   OH271694   2.258   4.135  15.829 -0.0814 -0.1117 -0.4260
16760TIP3    H171695   2.250   4.105  15.919 -1.2989 -0.6645 -0.6898
16760TIP3    H271696   2.326   4.078  15.791 -0.6327 -0.9074 -0.2500
16761TIP3   OH271697   1.202   4.430  16.403 -0.3998  0.0439  0.3439
16761TIP3    H171698   1.242   4.378  16.333 -0.5914  0.3625 -0.0042
16761TIP3    H271699   1.266   4.426  16.475  1.5076  2.6086 -1.0405
16762TIP3   OH271700   0.269   3.336  13.445  0.3072  0.5109  0.3655
16762TIP3    H171701   0.274   3.424  13.406  2.1070  0.9120  1.3695
16762TIP3    H271702   0.357   3.300  13.434 -0.3502 -1.1177  0.1433
16763TIP3   OH271703   3.760   2.622   4.175 -0.4615 -0.1023 -0.1338
16763TIP3    H171704   3.825   2.691   4.166  0.6006 -0.5483  2.8152
16763TIP3    H271705   3.676   2.668   4.169  0.1968  1.1945  0.1544
16764TIP3   OH271706   2.634   0.309   2.755 -0.2781 -0.0295  0.3634
16764TIP3    H171707   2.572   0.291   2.826 -0.2010 -0.9597  0.1986
16764TIP3    H271708   2.707   0.355   2.798 -1.0559  1.0728  0.5623
16765TIP3   OH271709   1.066   1.776  14.736 -0.4517  0.9790 -0.0288
16765TIP3    H171710   0.998   1.841  14.754 -1.7144 -0.3513  0.1885
16765TIP3    H271711   1.032   1.725  14.662  0.7272  0.8477 -0.5118
16766TIP3   OH271712   2.866   3.540  15.693  0.0937  0.2821  0.5041
16766TIP3    H171713   2.927   3.532  15.620  0.1167  0.2244  0.5303
16766TIP3    H271714   2.841   3.633  15.693 -1.1334 -0.0144 -0.5654
16767TIP3   OH271715   0.038   1.915   1.180 -0.3442  0.4641  0.4076
16767TIP3    H171716  -0.039   1.858   1.184  0.6472 -0.8361  1.2739
16767TIP3    H271717   0.052   1.943   1.271  0.9657 -0.3629  0.4843
16768TIP3   OH271718   3.117   4.580   1.212 -0.6260 -0.2440 -0.5031
16768TIP3    H171719   3.200   4.602   1.254  0.4234  1.5004 -3.2287
16768TIP3    H271720   3.098   4.491   1.243  1.8484 -0.4194  0.7981
16769TIP3   OH271721   1.581   4.124  14.571  0.4832  0.6396 -0.1815
16769TIP3    H171722   1.600   4.172  14.651  0.3079  0.9873 -0.3480
16769TIP3    H271723   1.500   4.162  14.538  0.8333  0.8559 -0.8041
16770TIP3   OH271724   5.476   5.254   5.139  0.3259  0.1639 -0.2113
16770TIP3    H171725   5.494   5.293   5.224  2.3654  0.4200 -0.6954
16770TIP3    H271726   5.386   5.280   5.118  0.4671  1.7386  0.9795
16771TIP3   OH271727   5.842   6.049   2.089 -0.3458  0.7086  0.7895
16771TIP3    H171728   5.813   5.959   2.076  0.6473  0.4401  0.3513
16771TIP3    H271729   5.846   6.086   2.000  0.4674  0.7845  0.8478
16772TIP3   OH271730   1.972   2.233   4.677 -0.0039  0.8453  0.3822
16772TIP3    H171731   1.918   2.227   4.756 -1.2822 -0.7408 -0.5522
16772TIP3    H271732   1.909   2.240   4.605  0.8958 -2.1856 -0.8509
16773TIP3   OH271733   3.654   2.840   3.680  0.1527  0.4585 -0.5491
16773TIP3    H171734   3.640   2.777   3.751 -0.8016  1.3625  0.1059
16773TIP3    H271735   3.665   2.924   3.725 -0.0037  0.9778 -1.4620
16774TIP3   OH271736   1.945   5.762  15.318  0.0429 -0.4092 -0.6913
16774TIP3    H171737   1.865   5.767  15.370 -0.1328  0.1615 -1.0015
16774TIP3    H271738   1.945   5.673  15.282  0.4276 -0.9808  0.6645
16775TIP3   OH271739   4.965   6.518   0.723  0.0061 -0.4748  0.0025
16775TIP3    H171740   4.992   6.540   0.634  0.5713  0.4264  0.3760
16775TIP3    H271741   4.870   6.505   0.717  0.2736 -2.2318 -1.0604
16776TIP3   OH271742   5.244   5.909  11.397  0.3166  0.2588  0.0672
16776TIP3    H171743   5.222   5.823  11.362 -0.4945  0.1725  0.7408
16776TIP3    H271744   5.255   5.965  11.320  0.5341 -0.3700 -0.3642
16777TIP3   OH271745   6.578   2.415   4.936 -0.1761  0.2919  0.3219
16777TIP3    H171746   6.538   2.500   4.918 -0.7163 -0.5913 -3.4497
16777TIP3    H271747   6.516   2.352   4.900  1.6102 -1.5279  0.3176
16778TIP3   OH271748   5.314   4.878  11.632 -0.0768  0.2917  0.1176
16778TIP3    H171749   5.402   4.887  11.595  0.7191 -2.6320  1.0266
16778TIP3    H271750   5.257   4.871  11.556  0.4126  2.1945 -0.4844
16779TIP3   OH271751   3.827   1.562  15.986 -0.0196 -0.5103 -0.2171
16779TIP3    H171752   3.802   1.622  16.056 -0.1900 -1.1320  0.2566
16779TIP3    H271753   3.909   1.522  16.016  0.5679  0.1101 -0.9188
16780TIP3   OH271754   6.461   5.048  14.602 -0.4329 -0.9011  0.5434
16780TIP3    H171755   6.449   5.134  14.560  1.1045 -0.9374 -0.0637
16780TIP3    H271756   6.536   5.060  14.660 -0.2152 -1.8092  0.4709
16781TIP3   OH271757   1.161   4.053   5.744 -0.2622  0.1798  0.2675
16781TIP3    H171758   1.175   3.984   5.679 -0.5486 -0.7734  1.1834
16781TIP3    H271759   1.179   4.011   5.828  0.7101  1.5464  0.7832
16782TIP3   OH271760   4.539   4.954   0.582  0.3436  0.0575  0.3591
16782TIP3    H171761   4.479   5.009   0.531 -0.4580 -0.7508  0.4059
16782TIP3    H271762   4.496   4.945   0.667  0.3180 -0.8798  0.2507
16783TIP3   OH271763   1.106   1.051  12.622  0.7897  0.5352 -0.4513
16783TIP3    H171764   1.178   0.990  12.631 -0.7510 -1.1291  1.8679
16783TIP3    H271765   1.112   1.107  12.700 -1.8193 -1.4037  1.3222
16784TIP3   OH271766   1.137   0.028   4.782 -0.3456  1.0091 -0.6684
16784TIP3    H171767   1.229   0.019   4.807 -0.4391 -0.1361 -0.6744
16784TIP3    H271768   1.088   0.012   4.862 -0.5391  2.6099 -0.4368
16785TIP3   OH271769   5.902   3.747  16.138 -0.3753 -0.5319 -0.2537
16785TIP3    H171770   5.914   3.732  16.044 -0.6599 -1.7098 -0.1165
16785TIP3    H271771   5.962   3.819  16.158  0.1843 -0.7054 -1.2074
16786TIP3   OH271772   2.094   0.898  13.531  0.0997 -0.0117 -0.5285
16786TIP3    H171773   2.060   0.973  13.580 -0.5583 -0.4294 -0.3260
16786TIP3    H271774   2.186   0.917  13.517 -0.1893  1.1126 -0.9800
16787TIP3   OH271775   3.883   5.555   5.568  0.2942  0.3329  0.3819
16787TIP3    H171776   3.942   5.629   5.553  1.4846 -0.2177  1.9770
16787TIP3    H271777   3.821   5.587   5.634  0.1974  0.2241  0.3429
16788TIP3   OH271778   0.897   1.288  16.157 -0.3022 -0.5041 -0.1168
16788TIP3    H171779   0.835   1.361  16.154 -1.5837 -1.5764 -1.1077
16788TIP3    H271780   0.938   1.289  16.071  0.1441 -0.5601  0.0963
16789TIP3   OH271781   4.072   1.154  12.822  0.2511  0.2615  0.0964
16789TIP3    H171782   4.015   1.229  12.838 -0.2414  0.0389 -0.5956
16789TIP3    H271783   4.091   1.119  12.910 -0.5659  0.4159  0.3386
16790TIP3   OH271784   1.217   1.164   1.544 -0.6853 -0.4872 -0.1585
16790TIP3    H171785   1.305   1.187   1.574 -1.7196 -0.6831  3.4803
16790TIP3    H271786   1.232   1.118   1.461  2.3956  1.5027 -0.8764
16791TIP3   OH271787   1.768   5.845  14.015 -0.7520 -0.2247  0.3954
16791TIP3    H171788   1.815   5.765  14.036 -2.0843 -0.9549  0.7208
16791TIP3    H271789   1.790   5.906  14.086 -0.2461 -0.5176  0.4920
16792TIP3   OH271790   2.478   1.927  12.047  0.5943 -0.5856 -0.4340
16792TIP3    H171791   2.385   1.910  12.062  0.2321  0.8815 -0.7949
16792TIP3    H271792   2.524   1.867  12.106 -0.5790 -1.2172 -0.1312
16793TIP3   OH271793   0.735   3.141   0.771  0.2386  0.1681 -0.2320
16793TIP3    H171794   0.656   3.193   0.786 -0.2093 -0.5897  0.1227
16793TIP3    H271795   0.782   3.142   0.854 -1.1280 -2.1877  0.6641
16794TIP3   OH271796   0.012   4.739   1.392  0.1689 -0.5749 -1.1425
16794TIP3    H171797   0.020   4.749   1.487 -0.7818 -0.2796 -1.0891
16794TIP3    H271798   0.102   4.750   1.360  0.9521 -3.0959 -0.0848
16795TIP3   OH271799   1.806   1.626   2.294  0.4198  0.2394  0.1924
16795TIP3    H171800   1.882   1.616   2.236  0.1655 -0.2426 -0.0594
16795TIP3    H271801   1.806   1.546   2.347 -0.8963 -0.5664 -0.9675
16796TIP3   OH271802   5.463   0.790  11.768 -0.3092 -0.1547  0.5253
16796TIP3    H171803   5.473   0.885  11.775 -0.3010  0.0328 -1.5731
16796TIP3    H271804   5.547   0.755  11.800  0.1256  0.6023  0.2313
16797TIP3   OH271805   5.941   6.703  11.774 -0.0434  0.0656  0.5538
16797TIP3    H171806   5.984   6.719  11.858  2.9633 -0.3540 -0.7545
16797TIP3    H271807   5.911   6.612  11.779 -1.0512  0.4403  1.5962
16798TIP3   OH271808   1.481   4.574   4.929 -0.1720 -0.3762 -0.1534
16798TIP3    H171809   1.537   4.558   4.853 -1.7574  2.1154 -2.0084
16798TIP3    H271810   1.425   4.497   4.935  2.8629 -2.7080  1.4414
16799TIP3   OH271811   6.347   3.843  16.309 -0.3850  0.6696  0.0868
16799TIP3    H171812   6.320   3.924  16.352 -0.5548  0.7507 -0.1691
16799TIP3    H271813   6.429   3.865  16.265  0.9241  0.0396  2.0709
16800TIP3   OH271814   4.231   0.931  12.113 -0.1096 -0.2996  0.1706
16800TIP3    H171815   4.309   0.913  12.166  2.0390  2.8555 -1.5596
16800TIP3    H271816   4.180   0.993  12.165  0.0256 -0.1700  0.1510
16801TIP3   OH271817   3.633   6.540  14.083  0.4437  0.6074 -0.3990
16801TIP3    H171818   3.668   6.621  14.119  0.9411 -0.5581  1.9551
16801TIP3    H271819   3.710   6.495  14.047  1.0157 -0.6271  2.1189
16802TIP3   OH271820   6.598   2.002  10.977  0.5610 -0.0578 -0.6835
16802TIP3    H171821   6.653   2.006  11.055  0.3809 -0.2565 -0.5480
16802TIP3    H271822   6.519   2.051  11.000 -0.0385 -1.1642 -0.3027
16803TIP3   OH271823   1.447   3.694  17.167  0.0379 -0.5841  0.0569
16803TIP3    H171824   1.519   3.643  17.128  0.6305  2.0955 -2.7893
16803TIP3    H271825   1.488   3.776  17.192 -1.8071  0.6293 -0.7164
16804TIP3   OH271826   1.795   5.397  17.225  0.4192 -0.3714 -0.4059
16804TIP3    H171827   1.743   5.467  17.186 -0.1364 -0.4928  0.0980
16804TIP3    H271828   1.885   5.429  17.220  0.1943  0.2992 -0.3560
16805TIP3   OH271829   6.333   1.122   3.719  0.0630 -0.2185  0.1071
16805TIP3    H171830   6.371   1.208   3.703 -2.0293  0.7378 -0.0174
16805TIP3    H271831   6.407   1.068   3.747  1.7418  1.1113 -1.5541
16806TIP3   OH271832   5.514   1.248   1.873  0.3855  0.1657  0.5982
16806TIP3    H171833   5.516   1.299   1.954  4.7448 -0.6869  1.2931
16806TIP3    H271834   5.525   1.158   1.901  1.2695 -0.2298 -0.9086
16807TIP3   OH271835   4.137   1.051   4.056 -0.0514 -0.6308  0.2786
16807TIP3    H171836   4.160   0.960   4.035  3.6946  0.1202  0.5358
16807TIP3    H271837   4.090   1.045   4.139 -0.8139 -2.3713 -0.2258
16808TIP3   OH271838   1.875   1.362   2.481  0.1429 -0.0921 -0.1623
16808TIP3    H171839   1.960   1.390   2.515  0.0014 -0.2000  0.2953
16808TIP3    H271840   1.823   1.344   2.560 -0.2572 -0.1608 -0.4394
16809TIP3   OH271841   3.346   0.306  12.121 -0.3014 -0.0964  0.2694
16809TIP3    H171842   3.315   0.238  12.181 -0.8152 -0.2555 -0.1737
16809TIP3    H271843   3.436   0.281  12.102 -0.1835 -0.1361  0.8409
16810TIP3   OH271844   1.766   5.231   5.520  0.4123 -0.3608  0.2875
16810TIP3    H171845   1.689   5.246   5.465  0.8972 -0.4841 -0.4341
16810TIP3    H271846   1.761   5.299   5.588  0.3899  0.4891 -0.5423
16811TIP3   OH271847   1.027   5.785   2.283 -0.1602 -0.0467  0.1145
16811TIP3    H171848   1.042   5.866   2.331 -0.5620 -0.2929  0.6734
16811TIP3    H271849   0.941   5.755   2.313 -0.7037  0.1006 -1.2161
16812TIP3   OH271850   6.315   3.192  11.096 -0.8041  0.1908 -0.6445
16812TIP3    H171851   6.312   3.287  11.083 -1.8450  0.1568 -0.7180
16812TIP3    H271852   6.401   3.166  11.063 -1.1000  0.8993 -2.0310
16813TIP3   OH271853   0.535   2.236   4.074 -0.1578 -0.2084 -0.2340
16813TIP3    H171854   0.577   2.152   4.056  1.2203  0.2247  0.7445
16813TIP3    H271855   0.513   2.232   4.167  0.4046  0.6982 -0.0517
16814TIP3   OH271856   2.911   1.548   2.377  0.4455 -0.1365  0.2253
16814TIP3    H171857   2.824   1.575   2.406 -0.3170  0.2658 -2.1650
16814TIP3    H271858   2.914   1.454   2.393 -0.4607 -0.1581  0.3018
16815TIP3   OH271859   2.596   6.054   4.952 -0.7649 -0.5390  0.4217
16815TIP3    H171860   2.619   6.059   5.045 -0.7403 -0.0846  0.3943
16815TIP3    H271861   2.676   6.025   4.909 -0.8480 -0.9954  0.5719
16816TIP3   OH271862   0.659   3.228  16.039 -0.0872  0.8333 -0.0650
16816TIP3    H171863   0.636   3.205  16.129 -0.7329 -0.7413 -0.5825
16816TIP3    H271864   0.751   3.202  16.030 -0.3428 -0.1013 -0.1566
16817TIP3   OH271865   1.173   3.911   5.502 -0.0123 -0.6271  0.0499
16817TIP3    H171866   1.249   3.852   5.500  0.7148  0.2910 -1.9718
16817TIP3    H271867   1.157   3.932   5.410 -2.6501 -0.6555  0.4308
16818TIP3   OH271868   1.772   0.808  13.407  0.1743  0.0915  0.0720
16818TIP3    H171869   1.744   0.721  13.378 -0.7602  0.0615  1.0036
16818TIP3    H271870   1.693   0.847  13.445  0.4169  1.5887 -0.8605
16819TIP3   OH271871   5.451   1.685   2.470  0.1116 -0.6619  0.2461
16819TIP3    H171872   5.481   1.727   2.390 -0.1865 -1.1442 -0.1274
16819TIP3    H271873   5.386   1.621   2.440 -0.1899 -0.6671  0.8952
16820TIP3   OH271874   5.234   5.589  12.888  0.0518 -0.0084 -0.0918
16820TIP3    H171875   5.221   5.525  12.818  0.0939 -0.9490  0.7227
16820TIP3    H271876   5.329   5.596  12.896  0.1304  2.5332 -2.2304
16821TIP3   OH271877   5.275   3.692  15.469 -0.3760  0.0585 -0.2674
16821TIP3    H171878   5.252   3.757  15.403  0.0884 -1.9476 -2.5441
16821TIP3    H271879   5.367   3.709  15.489 -0.1745 -0.0645 -1.0755
16822TIP3   OH271880   5.230   3.068   2.427  0.0286  0.4019  0.0569
16822TIP3    H171881   5.244   3.162   2.419 -1.7838  0.6759 -0.4192
16822TIP3    H271882   5.143   3.053   2.388 -0.5272 -1.2001  1.7671
16823TIP3   OH271883   3.919   2.492   1.639  0.3387  0.0246  0.4230
16823TIP3    H171884   3.835   2.532   1.662 -0.7719 -0.4248 -2.3570
16823TIP3    H271885   3.903   2.398   1.647  0.1819 -0.1048 -1.0841
16824TIP3   OH271886   3.652   1.263  16.460 -0.4667  0.4107 -0.0878
16824TIP3    H171887   3.671   1.356  16.470 -0.5935  0.4423 -0.1330
16824TIP3    H271888   3.619   1.255  16.371 -0.3772  0.3083 -0.1104
16825TIP3   OH271889   2.153   6.008  12.354  0.3246 -0.7455 -0.0831
16825TIP3    H171890   2.181   5.921  12.383 -1.0663 -1.3824 -0.5540
16825TIP3    H271891   2.218   6.034  12.289  0.7763 -1.4181  0.0947
16826TIP3   OH271892   3.367   4.007  13.924 -0.4917 -0.0779  0.4554
16826TIP3    H171893   3.411   3.946  13.983  1.2951 -0.2539 -0.9913
16826TIP3    H271894   3.288   4.034  13.972 -0.2627 -1.9140  1.9774
16827TIP3   OH271895   0.662   0.084  11.359  0.3051  0.1761 -0.0870
16827TIP3    H171896   0.587   0.039  11.319 -0.4817 -1.0330  2.4966
16827TIP3    H271897   0.642   0.177  11.349 -0.3124 -0.0759 -1.5568
16828TIP3   OH271898   4.827   0.003  13.828 -0.0155  0.3487  0.5460
16828TIP3    H171899   4.771   0.054  13.770 -0.0729  0.5149  0.7468
16828TIP3    H271900   4.914   0.041  13.818 -0.0012  0.3002  0.4809
16829TIP3   OH271901   1.587   2.533   5.844 -0.1350 -0.1877 -0.0184
16829TIP3    H171902   1.573   2.622   5.876 -0.3401  0.6584 -2.2692
16829TIP3    H271903   1.537   2.478   5.903  0.2338  1.1391  1.6068
16830TIP3   OH271904   4.199   2.510   5.494  0.2401  0.4618 -0.6175
16830TIP3    H171905   4.135   2.447   5.530  1.7917 -0.3387  0.9178
16830TIP3    H271906   4.271   2.455   5.463  0.3479  1.3689 -2.0491
16831TIP3   OH271907   6.245   2.179  13.547 -0.5659  0.1143 -0.1247
16831TIP3    H171908   6.178   2.207  13.609  0.4876 -0.1219  1.1697
16831TIP3    H271909   6.315   2.244  13.556  1.6495 -2.3093  2.4804
16832TIP3   OH271910   4.384   2.525   5.214 -0.1018  0.6298 -0.1171
16832TIP3    H171911   4.309   2.467   5.204  2.0048 -2.2131 -0.7639
16832TIP3    H271912   4.385   2.579   5.135 -0.6418 -0.2976 -0.7603
16833TIP3   OH271913   0.015   4.662  13.670 -0.0210 -0.2079  0.0368
16833TIP3    H171914   0.002   4.569  13.651 -0.5630 -0.2098  0.3935
16833TIP3    H271915  -0.008   4.707  13.589 -1.6454 -0.2645  0.4334
16834TIP3   OH271916   6.246   6.474  15.931 -0.3897 -0.2890  0.6898
16834TIP3    H171917   6.222   6.498  15.842 -1.6097  0.3113  1.1569
16834TIP3    H271918   6.313   6.407  15.920 -1.4254 -1.1751 -0.7089
16835TIP3   OH271919   6.744   1.757  10.601 -0.4260  0.1103  0.0994
16835TIP3    H171920   6.787   1.822  10.546 -0.5017 -1.2741 -1.6765
16835TIP3    H271921   6.665   1.801  10.633  0.6564  1.6125  0.8020
16836TIP3   OH271922   3.529   0.110  15.783 -0.1369 -0.1812  0.3470
16836TIP3    H171923   3.465   0.110  15.712  0.0575  0.3587  0.1688
16836TIP3    H271924   3.506   0.033  15.835 -0.5180 -0.3667 -0.0839
16837TIP3   OH271925   0.560   5.694  12.552  0.3707  0.1684 -0.7837
16837TIP3    H171926   0.607   5.771  12.520 -2.7836  2.9361  0.5589
16837TIP3    H271927   0.521   5.656  12.474  0.7488  0.8636 -1.3275
16838TIP3   OH271928   1.157   2.680  11.345 -0.1159  0.4477 -0.5410
16838TIP3    H171929   1.181   2.597  11.304  2.4537  0.8667 -0.1161
16838TIP3    H271930   1.062   2.683  11.342 -0.1919 -1.6208 -2.2880
16839TIP3   OH271931   5.015   1.792  14.542  0.2737 -0.2646  0.3442
16839TIP3    H171932   4.933   1.752  14.573 -1.0817 -0.1018 -2.6562
16839TIP3    H271933   5.075   1.784  14.616 -2.2476 -0.9464  2.4789
16840TIP3   OH271934   1.551   4.177  11.191 -0.2078 -0.0683  0.0138
16840TIP3    H171935   1.527   4.230  11.267  0.4127  0.1435  0.0626
16840TIP3    H271936   1.565   4.241  11.121 -1.3602 -0.2970 -0.4466
16841TIP3   OH271937   3.612   4.050   0.190 -0.0210  0.5225  0.3467
16841TIP3    H171938   3.634   4.141   0.171 -0.1324  0.8096  1.5274
16841TIP3    H271939   3.652   4.032   0.275  0.2595 -0.6314 -0.0137
16842TIP3   OH271940   4.629   0.464  15.176  0.2227 -0.2667  0.2772
16842TIP3    H171941   4.535   0.458  15.155 -0.2318  1.4203  1.5978
16842TIP3    H271942   4.635   0.435  15.267  0.9883 -0.2798  0.2297
16843TIP3   OH271943   4.896   6.708  15.908  0.2211 -0.8753  0.6140
16843TIP3    H171944   4.826   6.643  15.916 -1.9074  1.0319 -1.3423
16843TIP3    H271945   4.891   6.738  15.817  1.4056  1.7158  1.3252
16844TIP3   OH271946   1.070   6.649  11.691  0.1376  0.0407  0.1195
16844TIP3    H171947   1.024   6.582  11.742 -1.0087  2.4487  2.4858
16844TIP3    H271948   1.002   6.711  11.665  1.4120  1.4707  0.0128
16845TIP3   OH271949   2.698   5.137   4.757  0.1236 -0.2812  0.4680
16845TIP3    H171950   2.662   5.209   4.808  0.7656  0.0766  0.4376
16845TIP3    H271951   2.791   5.134   4.782  1.0454  1.3399 -2.2049
16846TIP3   OH271952   5.372   4.677  16.065 -0.0010  0.5871  0.1116
16846TIP3    H171953   5.444   4.642  16.118  0.9792 -0.2588 -1.7124
16846TIP3    H271954   5.392   4.770  16.057  0.3069  0.5583  0.4761
16847TIP3   OH271955   0.522   1.373   3.573 -0.2148  0.0781 -0.1317
16847TIP3    H171956   0.508   1.365   3.478 -0.5170  0.0837 -0.0890
16847TIP3    H271957   0.565   1.291   3.597 -0.0371  0.1218 -0.2903
16848TIP3   OH271958   4.227   5.848   2.431  0.0328 -0.1964 -0.1626
16848TIP3    H171959   4.270   5.796   2.363 -0.0074 -0.2513 -0.1469
16848TIP3    H271960   4.150   5.796   2.455  0.5741 -0.6516  0.6175
16849TIP3   OH271961   3.703   3.629   1.614 -0.2908  0.1353  0.2375
16849TIP3    H171962   3.646   3.663   1.545 -0.2593  1.2203  0.7115
16849TIP3    H271963   3.649   3.565   1.660 -0.1651 -0.9147 -1.0387
16850TIP3   OH271964   6.413   5.145  12.273 -0.0984  0.0661  0.2538
16850TIP3    H171965   6.451   5.232  12.270 -0.4780  0.2449  0.4954
16850TIP3    H271966   6.347   5.145  12.204 -0.4363  0.1371  0.5715
16851TIP3   OH271967   4.858   1.915   3.513 -0.0250 -0.2689  0.0232
16851TIP3    H171968   4.943   1.956   3.528 -0.3321  0.9355 -1.2985
16851TIP3    H271969   4.806   1.937   3.591  0.6771 -0.5235  0.5726
16852TIP3   OH271970   4.828   2.405   3.920  0.1791 -0.3822  0.4747
16852TIP3    H171971   4.921   2.407   3.941  0.4143 -1.3343 -0.3743
16852TIP3    H271972   4.824   2.378   3.828 -0.9538 -1.5860  0.8362
16853TIP3   OH271973   0.793   6.076  14.107 -0.3967  0.3126  0.5758
16853TIP3    H171974   0.709   6.072  14.062 -0.0717 -0.0366 -0.0104
16853TIP3    H271975   0.839   6.149  14.067 -0.6477  0.8878  1.3117
16854TIP3   OH271976   5.653   1.691  11.211  0.7166  0.6996  0.0136
16854TIP3    H171977   5.729   1.653  11.167  0.3126 -0.6306  0.4241
16854TIP3    H271978   5.579   1.668  11.155  0.6185  2.2549 -0.5496
16855TIP3   OH271979   1.267   5.825  10.868 -0.6403  0.4176  0.0414
16855TIP3    H171980   1.236   5.777  10.790  2.9710 -0.7116 -0.8831
16855TIP3    H271981   1.283   5.756  10.933  1.3494  0.6771 -0.1178
16856TIP3   OH271982   3.679   1.562   0.189 -0.1272 -0.4588 -0.0561
16856TIP3    H171983   3.592   1.549   0.226 -0.0056  1.2846  0.9576
16856TIP3    H271984   3.677   1.651   0.153  1.3400 -0.2240  0.3673
16857TIP3   OH271985   0.970   4.781  13.970 -0.5614  0.2639  0.0214
16857TIP3    H171986   0.896   4.742  13.923  0.5242  0.1801 -1.7406
16857TIP3    H271987   0.967   4.874  13.945 -0.1455  0.2771  0.0168
16858TIP3   OH271988   3.725   1.996  11.450 -0.3891  0.1778  0.8482
16858TIP3    H171989   3.795   2.049  11.413 -0.3703  1.8948  3.0837
16858TIP3    H271990   3.654   2.001  11.386  0.1956  1.6227  0.2619
16859TIP3   OH271991   0.808   4.627   1.962 -0.2903 -0.0720  0.1704
16859TIP3    H171992   0.879   4.585   2.011  1.5918  2.1697 -0.4379
16859TIP3    H271993   0.823   4.603   1.871 -1.1108 -0.6143  0.1661
16860TIP3   OH271994   3.601   3.098  11.042  0.2162 -0.0951  0.0165
16860TIP3    H171995   3.560   3.062  11.121  1.7555 -0.0816  0.8690
16860TIP3    H271996   3.623   3.188  11.066 -1.4761  0.7068 -1.2876
16861TIP3   OH271997   5.579   0.533  13.014  0.3226 -0.1475  0.0614
16861TIP3    H171998   5.595   0.600  13.080 -0.4549  0.3082 -0.1863
16861TIP3    H271999   5.485   0.516  13.021  0.6302 -1.7597  0.6211
16862TIP3   OH272000   0.369   5.579  16.527  0.1587  0.1180 -0.6246
16862TIP3    H172001   0.456   5.619  16.519  0.7213 -0.4367  1.8846
16862TIP3    H272002   0.373   5.501  16.473  1.6531 -0.4845  0.2776
16863TIP3   OH272003   4.382   3.349   3.315  0.0260 -0.0871 -0.8142
16863TIP3    H172004   4.287   3.338   3.309 -0.1458  1.3083 -1.0479
16863TIP3    H272005   4.412   3.352   3.224  0.3339 -0.7781 -0.7408
16864TIP3   OH272006   3.779   0.509  16.310  0.2071 -0.2410 -0.7301
16864TIP3    H172007   3.859   0.531  16.357 -0.2290  0.6999 -0.4046
16864TIP3    H272008   3.763   0.585  16.254 -1.7300  0.6772  0.9371
16865TIP3   OH272009   4.110   1.093  16.727 -0.3891  0.4445 -0.1086
16865TIP3    H172010   4.027   1.077  16.683 -1.0075  0.6767  0.9482
16865TIP3    H272011   4.142   1.006  16.750  0.4843  0.2291 -1.9253
16866TIP3   OH272012   1.733   5.817  16.765 -0.2201 -0.1941  0.0877
16866TIP3    H172013   1.808   5.779  16.811 -1.0478 -3.3070 -0.8844
16866TIP3    H272014   1.708   5.751  16.700 -0.9655  2.7135 -2.8523
16867TIP3   OH272015   1.671   3.278  16.526  0.6306 -0.1750  0.6613
16867TIP3    H172016   1.608   3.284  16.598  0.0926  0.2352  0.1628
16867TIP3    H272017   1.746   3.231  16.563  0.9885  1.3320  1.9211
16868TIP3   OH272018   3.392   1.085   3.994  0.1482  0.8626 -0.6112
16868TIP3    H172019   3.443   1.119   3.921  0.0057 -0.0949 -1.1834
16868TIP3    H272020   3.427   0.997   4.009 -0.1476  0.8619  0.1555
16869TIP3   OH272021   6.431   0.622  14.921 -0.2529 -0.5898  0.0942
16869TIP3    H172022   6.382   0.650  14.998 -1.3243  2.0285 -1.4010
16869TIP3    H272023   6.371   0.565  14.873 -0.2822 -0.7226  0.2903
16870TIP3   OH272024   5.493   6.189  15.914  0.4769 -0.5548 -0.0141
16870TIP3    H172025   5.519   6.281  15.906 -0.3555 -0.3618 -0.6704
16870TIP3    H272026   5.399   6.189  15.896  0.8743 -1.8428 -2.5619
16871TIP3   OH272027   6.490   3.651  11.134  0.2251  0.3253 -0.3044
16871TIP3    H172028   6.540   3.726  11.102 -0.8689  0.8969 -0.7096
16871TIP3    H272029   6.479   3.595  11.057 -0.9630  0.8933 -0.5704
16872TIP3   OH272030   4.903   3.949   2.115  0.4172 -0.3926 -0.2347
16872TIP3    H172031   4.841   4.008   2.157 -0.6259 -1.0166 -0.8346
16872TIP3    H272032   4.875   3.946   2.023  0.6500 -1.5340 -0.2891
16873TIP3   OH272033   3.009   6.342  14.122 -0.0737 -0.4251  0.3334
16873TIP3    H172034   2.931   6.324  14.069 -0.8258  1.3827  0.7685
16873TIP3    H272035   2.981   6.409  14.184  1.2341 -1.3207  1.9683
16874TIP3   OH272036   3.762   1.631   3.932 -0.0921 -0.4648  0.0638
16874TIP3    H172037   3.679   1.601   3.968 -0.7467 -1.2714 -1.9486
16874TIP3    H272038   3.825   1.565   3.960 -0.4243 -0.6489  0.3843
16875TIP3   OH272039   6.101   3.512  15.533 -0.4606 -0.3068 -0.2782
16875TIP3    H172040   6.158   3.448  15.491 -0.3112 -0.7979  0.6421
16875TIP3    H272041   6.019   3.465  15.549 -0.3753 -0.2635  0.3356
16876TIP3   OH272042   6.720   5.730   1.981  0.1500 -0.0542  0.6535
16876TIP3    H172043   6.633   5.742   1.943  0.2654 -0.0855  0.3751
16876TIP3    H272044   6.707   5.743   2.075 -0.1046  0.2157  0.5846
16877TIP3   OH272045   2.732   2.566   2.239  0.2662  0.0659  0.0281
16877TIP3    H172046   2.697   2.514   2.311 -2.1963  0.9095 -0.4393
16877TIP3    H272047   2.817   2.596   2.270  0.5902 -2.0118  1.3493
16878TIP3   OH272048   3.238   6.249  13.367  0.1088 -0.1575 -0.0954
16878TIP3    H172049   3.228   6.191  13.291 -0.1147 -1.1605  0.6799
16878TIP3    H272050   3.227   6.337  13.331  2.0768 -0.4407 -1.6022
16879TIP3   OH272051   2.457   5.795  14.719  0.1536 -0.2533  0.1328
16879TIP3    H172052   2.409   5.720  14.684  0.9150 -1.2714  1.1959
16879TIP3    H272053   2.479   5.770  14.809  2.5189  0.2210 -0.2510
16880TIP3   OH272054   5.397   6.761   5.777 -0.3322  0.1994  0.1082
16880TIP3    H172055   5.323   6.778   5.719 -0.7691 -0.7541  0.3701
16880TIP3    H272056   5.359   6.712   5.850  0.2665  1.1018  1.0466
16881TIP3   OH272057   6.013   0.337   3.774 -0.3255  0.1609 -0.2538
16881TIP3    H172058   6.104   0.331   3.745 -0.5724 -0.7518 -0.8925
16881TIP3    H272059   6.017   0.323   3.869  0.2607  0.8382 -0.1718
16882TIP3   OH272060   3.852   4.749  13.936 -0.0711  0.1875 -1.1241
16882TIP3    H172061   3.817   4.809  14.002 -1.7031  2.8391 -4.1085
16882TIP3    H272062   3.936   4.786  13.912 -0.8118  1.0241 -2.5506
16883TIP3   OH272063   4.635   4.618  11.685 -0.4102  0.0392  0.1509
16883TIP3    H172064   4.597   4.684  11.626 -1.5707 -0.0024  0.8305
16883TIP3    H272065   4.563   4.557  11.703  0.5276 -1.1805 -0.1158
16884TIP3   OH272066   5.565   0.923  12.300 -0.6153 -0.2151 -0.5800
16884TIP3    H172067   5.558   0.922  12.396 -0.5554 -0.6741 -0.5789
16884TIP3    H272068   5.584   0.833  12.277  1.6352  0.2749 -0.8520
16885TIP3   OH272069   0.519   2.458   6.539 -0.2454 -0.1095 -0.0249
16885TIP3    H172070   0.579   2.393   6.577  1.9015  1.8954  0.2635
16885TIP3    H272071   0.442   2.455   6.595  1.2761  0.0826  2.2126
16886TIP3   OH272072   3.179   2.263   0.557  0.2016 -0.2942  0.3822
16886TIP3    H172073   3.151   2.306   0.476  2.4471 -0.3640 -0.5119
16886TIP3    H272074   3.262   2.306   0.579 -0.2520 -0.4310  2.5648
16887TIP3   OH272075   1.360   4.289   1.317 -0.3649  0.2811  0.4241
16887TIP3    H172076   1.363   4.320   1.227  0.6411  1.3997  0.8200
16887TIP3    H272077   1.282   4.233   1.320  0.6978 -1.4671 -1.6421
16888TIP3   OH272078   6.623   2.387  15.026 -0.0538  0.2884 -0.3411
16888TIP3    H172079   6.597   2.478  15.041 -0.1111  0.2746 -0.3579
16888TIP3    H272080   6.687   2.392  14.955 -1.2499  0.1576 -1.4526
16889TIP3   OH272081   2.047   6.244   1.121  0.5942  0.1963  0.5551
16889TIP3    H172082   1.990   6.320   1.132  1.2389  0.7984 -0.2066
16889TIP3    H272083   2.000   6.188   1.058  0.5777  0.4215  0.3667
16890TIP3   OH272084   2.940   0.716  14.139  0.0961  0.0756  0.4162
16890TIP3    H172085   2.994   0.767  14.079 -0.9513 -0.1898 -0.7902
16890TIP3    H272086   2.852   0.722  14.103 -0.2215 -1.7822  0.7652
16891TIP3   OH272087   0.883   3.720   5.623 -0.1769  0.1229 -0.2900
16891TIP3    H172088   0.894   3.804   5.667  0.8950  0.8967 -1.9118
16891TIP3    H272089   0.942   3.661   5.670  0.2888  0.7011 -0.1302
16892TIP3   OH272090   3.674   5.646   0.748  0.3120 -0.8176 -0.0385
16892TIP3    H172091   3.747   5.625   0.689  0.1973 -1.2417 -0.0386
16892TIP3    H272092   3.648   5.561   0.785 -0.8700 -0.8494 -0.8487
16893TIP3   OH272093   0.941   1.855  12.770  0.0575  0.7128  0.4911
16893TIP3    H172094   0.865   1.809  12.806 -0.4160  1.7127  0.7800
16893TIP3    H272095   1.015   1.820  12.821 -0.2331 -0.0465  0.4111
16894TIP3   OH272096   4.577   1.662  16.877  0.2326 -0.2124 -0.5647
16894TIP3    H172097   4.663   1.703  16.876  0.8381 -1.4330 -0.3866
16894TIP3    H272098   4.535   1.693  16.796  0.7311  0.5737 -0.5406
16895TIP3   OH272099   6.196   2.136   5.973 -0.3024  0.2222 -0.0129
16895TIP3    H172100   6.267   2.123   6.037 -0.3480 -0.2369 -0.0527
16895TIP3    H272101   6.201   2.229   5.950  0.9693 -0.0197 -0.8094
16896TIP3   OH272102   5.214   4.213   3.589 -0.3679 -0.5784 -0.1700
16896TIP3    H172103   5.193   4.122   3.606  1.8917 -0.8437  1.6737
16896TIP3    H272104   5.301   4.211   3.550 -0.1661  0.8095  0.1590
16897TIP3   OH272105   6.111   4.067  16.030 -0.1747 -0.0183 -0.2435
16897TIP3    H172106   6.181   4.068  15.965 -1.5317  0.9169 -1.7931
16897TIP3    H272107   6.135   4.136  16.092 -0.9606  2.2540 -2.2785
16898TIP3   OH272108   1.891   1.053   1.011 -0.0968 -0.3201 -0.4528
16898TIP3    H172109   1.984   1.033   1.008 -0.2643 -1.7430  1.5303
16898TIP3    H272110   1.887   1.145   1.033  0.9366 -0.7887  2.0037
16899TIP3   OH272111   4.031   5.020  12.354 -0.8792 -0.2148  0.1718
16899TIP3    H172112   4.037   5.107  12.392 -0.5140  0.5424 -1.4905
16899TIP3    H272113   4.042   4.960  12.428 -0.3706  1.1463  1.2449
16900TIP3   OH272114   5.655   5.657   2.356  0.2481 -0.2190 -0.5342
16900TIP3    H172115   5.682   5.731   2.301  1.6176 -0.0106  0.3685
16900TIP3    H272116   5.641   5.585   2.294  0.4170  0.3740 -1.2809
16901TIP3   OH272117   0.524   1.939   5.317 -0.4259  0.2150 -0.0887
16901TIP3    H172118   0.539   2.028   5.283 -0.7077  0.4519  0.4009
16901TIP3    H272119   0.516   1.885   5.238 -1.6472  0.8613 -0.4346
16902TIP3   OH272120   4.393   5.473   4.800 -0.4384 -0.5503  0.5295
16902TIP3    H172121   4.404   5.408   4.730 -1.9925 -0.9542  0.6148
16902TIP3    H272122   4.390   5.421   4.880 -1.8456 -0.4217  0.5867
16903TIP3   OH272123   5.490   3.140  15.913  0.3455  0.0575  0.2414
16903TIP3    H172124   5.511   3.194  15.989  0.6962 -1.1775  1.0679
16903TIP3    H272125   5.394   3.134  15.914  0.3750 -0.5482  1.0518
16904TIP3   OH272126   1.751   5.069  15.026 -0.2730  0.2635  0.4527
16904TIP3    H172127   1.714   5.027  14.948 -2.0107 -0.7829  1.7572
16904TIP3    H272128   1.698   5.147  15.039 -0.7415 -0.1683  1.1993
16905TIP3   OH272129   0.301   6.251   2.948  0.1088  0.4998  0.2676
16905TIP3    H172130   0.241   6.282   2.879 -1.5328 -1.4369  0.7307
16905TIP3    H272131   0.331   6.165   2.917 -0.2646 -0.1805  1.7063
16906TIP3   OH272132   6.587   2.616  11.774 -0.4159 -0.2928  0.5454
16906TIP3    H172133   6.640   2.625  11.853 -1.2498  1.5763  0.9455
16906TIP3    H272134   6.499   2.600  11.806 -0.9905  1.6683  0.0878
16907TIP3   OH272135   1.780   4.515   2.892 -0.1465 -0.7981  0.0394
16907TIP3    H172136   1.748   4.590   2.842  1.8972  0.2396  0.1749
16907TIP3    H272137   1.854   4.483   2.840 -0.6321 -2.3734  0.2844
16908TIP3   OH272138   5.631   2.836  16.593 -0.2972 -0.3274  1.0439
16908TIP3    H172139   5.607   2.762  16.536 -0.1211  0.4507 -0.0783
16908TIP3    H272140   5.605   2.808  16.680 -1.2202 -1.2923  0.4869
16909TIP3   OH272141   6.241   0.680   2.204  0.3121 -0.3505  0.7114
16909TIP3    H172142   6.151   0.678   2.172 -0.0604 -0.4788  1.7361
16909TIP3    H272143   6.280   0.599   2.173  0.7064  0.5860 -1.4467
16910TIP3   OH272144   1.699   4.693   1.388  0.5117 -0.4180 -0.2987
16910TIP3    H172145   1.695   4.601   1.360  3.2834 -1.2815  1.7100
16910TIP3    H272146   1.651   4.696   1.470 -0.4133  0.1837 -0.8482
16911TIP3   OH272147   1.063   3.219   4.222 -0.5585  0.6937  0.3544
16911TIP3    H172148   1.034   3.130   4.204 -0.5450  0.9525 -1.0556
16911TIP3    H272149   1.066   3.224   4.317  0.0109 -0.9895  0.4629
16912TIP3   OH272150   1.437   0.280  12.683 -0.5368  0.3900 -0.1556
16912TIP3    H172151   1.517   0.227  12.684 -0.6321  0.2073  1.6322
16912TIP3    H272152   1.423   0.301  12.591  1.9908  1.0926 -0.4486
16913TIP3   OH272153   4.188   4.137  11.337 -0.0523  0.0954 -0.3641
16913TIP3    H172154   4.212   4.131  11.429 -0.2116 -0.0184 -0.3302
16913TIP3    H272155   4.159   4.049  11.314 -0.9776  0.3669 -0.2551
16914TIP3   OH272156   2.181   0.407   4.674  0.0001 -0.0221  0.5938
16914TIP3    H172157   2.101   0.406   4.622  1.1184  1.5462 -1.2741
16914TIP3    H272158   2.212   0.316   4.672  0.5273  0.1165 -2.4523
16915TIP3   OH272159   1.233   6.238   4.171  0.6466 -0.2394 -0.5268
16915TIP3    H172160   1.163   6.284   4.125  1.7794  0.3805 -1.7289
16915TIP3    H272161   1.218   6.146   4.151 -1.0555 -0.3385  1.0536
16916TIP3   OH272162   1.302   3.195  14.949 -0.6504 -0.3655 -0.1574
16916TIP3    H172163   1.238   3.125  14.959 -0.3871 -0.7538 -1.0813
16916TIP3    H272164   1.279   3.258  15.017  0.4674 -2.3482  2.2597
16917TIP3   OH272165   3.126   1.881   3.389 -0.0028 -0.2770 -0.1129
16917TIP3    H172166   3.118   1.877   3.293  1.0587 -0.2899 -0.2125
16917TIP3    H272167   3.104   1.793   3.419 -3.6472  0.5067 -0.0313
16918TIP3   OH272168   4.226   1.235  10.162 -0.0237 -0.7626  0.6486
16918TIP3    H172169   4.161   1.306  10.166 -1.9254 -2.3464 -0.1505
16918TIP3    H272170   4.254   1.224  10.252 -0.7425  0.0943  1.0040
16919TIP3   OH272171   1.246   0.018  13.993 -0.3221 -0.1690  0.3062
16919TIP3    H172172   1.223  -0.028  13.912 -0.5120 -1.2433  0.9576
16919TIP3    H272173   1.195   0.099  13.990  0.6761  0.4539 -1.2793
16920TIP3   OH272174   5.650   0.244   0.269 -0.0844  0.4592 -0.4282
16920TIP3    H172175   5.662   0.217   0.178  1.6856 -0.0329 -0.0872
16920TIP3    H272176   5.661   0.163   0.319 -2.1216  0.5108  0.2030
16921TIP3   OH272177   3.476   2.208   1.347 -0.3052  0.2477 -0.0428
16921TIP3    H172178   3.443   2.253   1.269  1.5137 -0.6876 -1.4364
16921TIP3    H272179   3.541   2.269   1.384 -1.7363  1.0452  1.2925
16922TIP3   OH272180   1.991   4.739  11.611  0.0055  0.2805 -0.3021
16922TIP3    H172181   2.072   4.777  11.578 -0.5497  2.5722  0.7876
16922TIP3    H272182   1.926   4.808  11.601 -1.6016 -1.1262 -0.1356
16923TIP3   OH272183   2.359   1.157  16.730 -0.3239  0.4867 -0.3629
16923TIP3    H172184   2.334   1.091  16.794 -0.3413  1.5087  0.7199
16923TIP3    H272185   2.444   1.127  16.697 -0.4775 -0.2389 -0.1198
16924TIP3   OH272186   4.577   4.835  11.861  0.4183  0.2569 -0.2798
16924TIP3    H172187   4.606   4.888  11.935  0.1239 -0.7569  0.5974
16924TIP3    H272188   4.633   4.757  11.863 -1.5132 -1.2007  0.7615
16925TIP3   OH272189   3.163   3.913  15.869 -0.5616  0.3680  1.0335
16925TIP3    H172190   3.093   3.977  15.857 -1.1164 -0.1945  1.2250
16925TIP3    H272191   3.220   3.953  15.935 -0.1682  1.2579  0.1812
16926TIP3   OH272192   6.613   3.184  12.390 -0.2288  0.0333 -0.2600
16926TIP3    H172193   6.660   3.123  12.447 -0.9453 -1.5100 -1.2734
16926TIP3    H272194   6.671   3.197  12.315 -0.5870 -0.3451 -0.6048
16927TIP3   OH272195   3.670   1.332  16.925 -0.0690 -0.5675  0.1015
16927TIP3    H172196   3.584   1.326  16.966 -0.0088  1.0821  0.5557
16927TIP3    H272197   3.692   1.242  16.901 -0.8989 -1.3725  2.0872
16928TIP3   OH272198   5.337   0.376  15.775  0.0753  0.1036  0.4538
16928TIP3    H172199   5.301   0.456  15.736  0.3153  0.4297  0.8847
16928TIP3    H272200   5.263   0.317  15.783 -0.1939  0.4494  0.5417
16929TIP3   OH272201   2.460   5.302   0.486 -0.3659  0.0934 -0.1827
16929TIP3    H172202   2.372   5.324   0.516 -0.7423 -0.2708 -0.9933
16929TIP3    H272203   2.514   5.377   0.514 -1.0124  0.5193 -0.0543
16930TIP3   OH272204   6.637   5.691  14.389  0.2139  0.2400  0.1706
16930TIP3    H172205   6.546   5.672  14.369  0.4031 -0.5660  0.0158
16930TIP3    H272206   6.672   5.608  14.422  1.4753 -0.1593 -1.9485
16931TIP3   OH272207   6.257   5.343  16.453  0.2880 -0.3557  0.0385
16931TIP3    H172208   6.274   5.313  16.543  1.4599 -0.8769 -0.3344
16931TIP3    H272209   6.202   5.275  16.415  0.9022 -0.8281 -0.0346
16932TIP3   OH272210   4.317   3.081   3.206  0.5070  0.1781  0.4057
16932TIP3    H172211   4.237   3.133   3.206  0.8136  0.6689 -0.5470
16932TIP3    H272212   4.382   3.136   3.250  0.9190  0.7595 -0.8998
16933TIP3   OH272213   2.211   4.809  10.588  0.3941 -0.0273 -0.3830
16933TIP3    H172214   2.144   4.741  10.588 -1.3793  1.5024  2.5957
16933TIP3    H272215   2.278   4.777  10.648  1.1142 -0.4185 -1.3620
16934TIP3   OH272216   5.171   0.923   0.801  0.3745  0.0870 -0.4438
16934TIP3    H172217   5.148   0.850   0.859  0.5602 -0.7610 -1.4110
16934TIP3    H272218   5.087   0.953   0.767  0.3399 -0.0399 -0.4717
16935TIP3   OH272219   3.866   0.150   2.541  0.2636  0.2261  0.6755
16935TIP3    H172220   3.848   0.239   2.569  0.1932  0.6687 -0.6802
16935TIP3    H272221   3.794   0.128   2.482  1.6505  0.3300 -1.1868
16936TIP3   OH272222   2.037   2.593   2.243 -0.3255  0.1356  0.0669
16936TIP3    H172223   2.102   2.661   2.224 -0.1558 -0.0213  0.0763
16936TIP3    H272224   2.007   2.563   2.157 -1.3850  1.1455  0.0687
16937TIP3   OH272225   4.103   0.860   6.226 -0.1162  0.5781  0.1772
16937TIP3    H172226   4.058   0.829   6.304 -0.4231  0.3484 -0.0870
16937TIP3    H272227   4.195   0.865   6.251  0.3917 -2.9741 -0.4696
16938TIP3   OH272228   4.519   5.704   0.494  0.1102 -0.5725  0.0380
16938TIP3    H172229   4.426   5.683   0.489  0.2947 -1.3005 -0.4279
16938TIP3    H272230   4.533   5.765   0.421  0.1673 -1.1425 -0.4377
16939TIP3   OH272231   0.403   1.152   5.349 -0.0978 -0.0886  0.4771
16939TIP3    H172232   0.386   1.089   5.419 -1.5712  0.2240  0.4172
16939TIP3    H272233   0.499   1.159   5.347  0.0339  1.8708  4.2398
16940TIP3   OH272234   0.567   3.501  13.246  0.0455 -0.6834  0.1162
16940TIP3    H172235   0.533   3.527  13.331  1.2255  0.5578  0.2406
16940TIP3    H272236   0.601   3.582  13.207 -1.7576 -0.9057 -2.1797
16941TIP3   OH272237   6.032   1.155   6.210  0.6526  0.3379 -0.2363
16941TIP3    H172238   5.977   1.223   6.170  2.0860  0.6655 -1.7698
16941TIP3    H272239   6.121   1.190   6.206  1.2604 -1.0696  0.1703
16942TIP3   OH272240   1.573   5.602   5.841  0.3269 -0.0295 -0.4210
16942TIP3    H172241   1.623   5.594   5.922 -1.6189 -1.5290  0.7458
16942TIP3    H272242   1.495   5.652   5.866 -1.1131 -1.9308 -0.8680
16943TIP3   OH272243   3.533   2.681   3.874  0.7703 -0.2109  0.5576
16943TIP3    H172244   3.558   2.590   3.859 -1.4757 -0.5651 -1.6859
16943TIP3    H272245   3.475   2.677   3.950 -0.2406 -0.8611 -0.2281
16944TIP3   OH272246   3.077   4.584  16.123 -0.1620 -0.2462 -0.0420
16944TIP3    H172247   3.119   4.498  16.127 -0.3991 -0.3423  0.5062
16944TIP3    H272248   3.122   4.630  16.053 -1.5377 -1.6245 -1.9515
16945TIP3   OH272249   2.561   2.372  17.068  0.7444 -0.5601 -0.3907
16945TIP3    H172250   2.616   2.355  16.991 -0.2151 -1.0265 -0.9996
16945TIP3    H272251   2.496   2.302  17.067  0.5187 -0.3807  0.6714
16946TIP3   OH272252   5.139   2.773   4.314  0.1716  0.2120 -0.0077
16946TIP3    H172253   5.152   2.692   4.363 -2.1532 -0.6341 -0.6731
16946TIP3    H272254   5.223   2.819   4.322  1.3362 -1.9171  0.9698
16947TIP3   OH272255   2.313   4.327  13.190 -0.4183 -0.5485  1.0582
16947TIP3    H172256   2.286   4.400  13.245 -0.4104  0.0843  0.2321
16947TIP3    H272257   2.390   4.359  13.143 -0.1566 -1.2335  1.0089
16948TIP3   OH272258   2.428   1.836  10.638 -0.6064 -0.1378  0.4538
16948TIP3    H172259   2.355   1.784  10.603  1.2222 -1.9790 -0.8804
16948TIP3    H272260   2.386   1.906  10.687 -3.2813 -0.3391 -1.3433
16949TIP3   OH272261   6.731   4.996   5.769 -0.2361 -0.5774  0.0729
16949TIP3    H172262   6.825   4.982   5.767 -0.1383  0.0391 -1.9092
16949TIP3    H272263   6.694   4.917   5.727 -0.4803 -0.1711 -0.4948
16950TIP3   OH272264   0.884   5.869   3.453  0.2014  0.1767 -0.1609
16950TIP3    H172265   0.900   5.909   3.538  0.1208  0.5185 -0.3063
16950TIP3    H272266   0.855   5.941   3.397 -1.7709 -0.3749  0.0603
16951TIP3   OH272267   4.292   1.595  13.755  0.2494  0.2889  0.5064
16951TIP3    H172268   4.337   1.583  13.671  0.2616  0.5462  0.4762
16951TIP3    H272269   4.218   1.534  13.752  0.4364  0.0673  0.4405
16952TIP3   OH272270   0.802   4.123   1.972 -0.3730 -0.0379  0.0949
16952TIP3    H172271   0.851   4.153   1.896  0.2884 -1.3600 -0.0193
16952TIP3    H272272   0.791   4.202   2.026  1.9435  0.3069  0.1547
16953TIP3   OH272273   2.957   4.771  13.903  0.2254  0.3601 -0.2244
16953TIP3    H172274   3.008   4.809  13.975 -0.6290  1.0668  0.0326
16953TIP3    H272275   2.882   4.830  13.893  0.4039  0.3625 -1.8139
16954TIP3   OH272276   2.135   6.311   3.701  0.5170  0.1050  0.8070
16954TIP3    H172277   2.097   6.309   3.789  0.0225 -2.6054  0.5912
16954TIP3    H272278   2.228   6.332   3.715 -0.0050  2.0974  1.7018
16955TIP3   OH272279   5.313   6.138  14.021 -0.1257 -0.3677  0.1884
16955TIP3    H172280   5.344   6.228  14.037  0.5459  0.0480 -2.6990
16955TIP3    H272281   5.219   6.143  14.034 -0.2252  1.0440 -0.7394
16956TIP3   OH272282   4.527   2.973  11.980 -0.0244  0.1418 -0.2784
16956TIP3    H172283   4.437   2.945  11.998 -0.2499 -1.3682 -3.1258
16956TIP3    H272284   4.581   2.904  12.019 -0.3751 -1.5632 -2.6108
16957TIP3   OH272285   3.162   6.113  11.658  0.1476  0.0785 -0.8729
16957TIP3    H172286   3.088   6.065  11.620  0.6206  0.5690 -2.5196
16957TIP3    H272287   3.234   6.096  11.598  1.6465 -1.0741  1.1410
16958TIP3   OH272288   3.925   6.637   4.617 -0.1715 -1.0155  0.5598
16958TIP3    H172289   3.998   6.663   4.561 -1.1229  1.8634  0.5203
16958TIP3    H272290   3.869   6.584   4.561  0.6597 -1.2121 -0.1080
16959TIP3   OH272291   6.480   4.536  13.066  0.0202  0.1718  0.0871
16959TIP3    H172292   6.469   4.447  13.032 -1.3400  0.1706  0.4412
16959TIP3    H272293   6.537   4.580  13.003  1.0502 -1.0619  0.1220
16960TIP3   OH272294   0.689   3.708  12.725  0.3305  0.4296 -0.0242
16960TIP3    H172295   0.684   3.802  12.740  1.0591  0.7199 -1.4078
16960TIP3    H272296   0.673   3.697  12.631  0.8210 -0.7706  0.0066
16961TIP3   OH272297   3.589   5.516  11.673  0.5661  0.4193 -0.3415
16961TIP3    H172298   3.551   5.591  11.627 -1.5039 -0.2432  0.1759
16961TIP3    H272299   3.519   5.451  11.674  1.4132 -0.5295  1.5277
16962TIP3   OH272300   5.433   2.082  11.324 -0.3737  0.0985  0.1054
16962TIP3    H172301   5.454   2.060  11.234 -2.3590  0.1619 -0.4241
16962TIP3    H272302   5.377   2.159  11.317 -0.2486  0.3316  1.4185
16963TIP3   OH272303   3.366   1.256   0.401 -0.1967  0.0847  0.0398
16963TIP3    H172304   3.385   1.305   0.321  0.6198  2.5643  1.6355
16963TIP3    H272305   3.326   1.320   0.459  0.1502 -1.3688  1.9690
16964TIP3   OH272306   6.328   5.485   2.969  0.0332  0.0856 -1.2992
16964TIP3    H172307   6.352   5.481   3.062 -0.7920  0.4271 -1.0677
16964TIP3    H272308   6.384   5.554   2.934 -0.2125  0.5022 -0.8829
16965TIP3   OH272309   1.923   5.516   3.194 -0.1320  0.4254 -0.3227
16965TIP3    H172310   1.852   5.506   3.131 -0.0394  1.0164 -0.5261
16965TIP3    H272311   1.983   5.579   3.154 -0.4863  1.4576  0.6976
16966TIP3   OH272312   4.853   6.129   4.748  0.0425  0.6162  0.2734
16966TIP3    H172313   4.765   6.127   4.786 -0.4646  1.8883 -0.7710
16966TIP3    H272314   4.843   6.092   4.661  0.7602 -0.1633  0.5043
16967TIP3   OH272315   6.097   5.190   6.613  0.3141  0.3741 -0.4612
16967TIP3    H172316   6.182   5.158   6.643 -0.4098 -0.9976  0.2381
16967TIP3    H272317   6.033   5.141   6.665 -0.9104  1.4801 -0.8639
16968TIP3   OH272318   4.702   1.584   0.621  0.1209  0.0486  0.2362
16968TIP3    H172319   4.773   1.559   0.562  0.7198  0.4409  0.7742
16968TIP3    H272320   4.636   1.623   0.564  0.7060  0.4603 -0.1824
16969TIP3   OH272321   5.801   5.704   3.762 -0.3331 -0.5853  0.3216
16969TIP3    H172322   5.808   5.741   3.674  0.3512  1.5171  1.2120
16969TIP3    H272323   5.726   5.748   3.801  2.2408  2.3052  2.4358
16970TIP3   OH272324   1.429   6.487  12.915 -0.5401  0.5054 -0.6885
16970TIP3    H172325   1.422   6.458  12.824 -0.3573 -0.8807 -0.2800
16970TIP3    H272326   1.344   6.468  12.953 -0.5977  1.0323 -0.5431
16971TIP3   OH272327   3.510   0.636   2.990  0.0795 -0.7945  0.0925
16971TIP3    H172328   3.430   0.648   2.940  0.3479 -0.5354 -0.2800
16971TIP3    H272329   3.571   0.702   2.955 -0.3025  0.6414  1.9821
16972TIP3   OH272330   2.958   4.698   1.657  0.0919  0.4656  0.4530
16972TIP3    H172331   2.954   4.793   1.672  0.6549  0.4932  0.4530
16972TIP3    H272332   2.902   4.684   1.580  0.2250  0.8357  0.2838
16973TIP3   OH272333   5.167   0.803   3.234 -0.0234  0.1439 -0.5525
16973TIP3    H172334   5.243   0.862   3.230 -0.2808  0.8318  2.3036
16973TIP3    H272335   5.118   0.821   3.153  0.4383  3.1663 -0.2839
16974TIP3   OH272336   1.896   1.991  13.105  0.3636 -0.0101  0.0755
16974TIP3    H172337   1.876   1.986  13.012  0.6212  0.5977 -0.0224
16974TIP3    H272338   1.866   1.908  13.141 -1.0532  0.2972 -0.2971
16975TIP3   OH272339   3.433   6.401  16.967  0.9877  0.3241  0.3284
16975TIP3    H172340   3.406   6.460  17.038  1.9629  1.5337 -0.2806
16975TIP3    H272341   3.359   6.402  16.906  0.4870 -0.0693  0.9219
16976TIP3   OH272342   0.453   2.990   5.745 -0.3290  0.4768 -0.0432
16976TIP3    H172343   0.450   2.921   5.812  1.6829  2.4127  2.2446
16976TIP3    H272344   0.531   2.972   5.695 -1.5106 -0.6239 -1.5687
16977TIP3   OH272345   6.175   5.366   3.774  0.5797  0.7078  0.2257
16977TIP3    H172346   6.159   5.273   3.792  0.7541  0.5576 -0.3809
16977TIP3    H272347   6.100   5.411   3.814  0.7417  0.3552  0.9471
16978TIP3   OH272348   3.940   4.123  12.679  0.0224 -0.3256 -0.2831
16978TIP3    H172349   3.908   4.072  12.754 -0.9982  1.0270  0.2388
16978TIP3    H272350   4.016   4.170  12.713  0.7929 -1.2338 -0.6879
16979TIP3   OH272351   3.809   3.738   4.349 -0.4190  0.0880  0.2120
16979TIP3    H172352   3.831   3.788   4.428 -0.5504  0.1178  0.2309
16979TIP3    H272353   3.844   3.790   4.277  1.1530 -0.7412  0.3445
16980TIP3   OH272354   4.189   2.452   2.870  0.1213 -0.1855  0.0429
16980TIP3    H172355   4.110   2.468   2.922 -0.1594 -1.0498 -0.1024
16980TIP3    H272356   4.165   2.479   2.781  0.2771  0.3548  0.1599
16981TIP3   OH272357   3.528   5.069  14.556  0.5262  0.4344  0.5285
16981TIP3    H172358   3.619   5.067  14.586  0.1314 -0.3345  1.7151
16981TIP3    H272359   3.531   5.122  14.476  1.7822  1.6705  1.3411
16982TIP3   OH272360   2.699   0.578  15.467 -0.3315  0.1118 -0.1268
16982TIP3    H172361   2.630   0.571  15.400 -0.0205 -0.9894 -0.3498
16982TIP3    H272362   2.691   0.497  15.517  2.5391 -1.4100 -1.8683
16983TIP3   OH272363   0.614   0.218   2.274 -0.2694  0.1730  0.2398
16983TIP3    H172364   0.550   0.156   2.239 -1.5339  0.8818  1.2116
16983TIP3    H272365   0.667   0.243   2.198  0.6946 -2.4977 -0.0886
16984TIP3   OH272366   0.619   0.598  12.886 -0.3559 -0.1423  0.4154
16984TIP3    H172367   0.624   0.619  12.979 -1.0340 -2.0450  0.9264
16984TIP3    H272368   0.528   0.570  12.873  0.0631 -1.1035 -0.5443
16985TIP3   OH272369   0.954   6.278  16.414  0.2221  0.4814 -0.4347
16985TIP3    H172370   1.030   6.299  16.360  0.0756  1.9149 -0.1123
16985TIP3    H272371   0.927   6.191  16.384 -0.4718  1.5903 -3.4194
16986TIP3   OH272372   3.298   5.048   2.401  0.0647 -0.0961 -0.1787
16986TIP3    H172373   3.322   4.968   2.355  0.9960 -0.2763  0.6029
16986TIP3    H272374   3.297   5.024   2.494  0.5846  0.8405  0.0873
16987TIP3   OH272375   3.342   3.345   4.336 -0.3445 -0.6535 -0.8040
16987TIP3    H172376   3.263   3.292   4.330  0.3526 -1.9885  0.9565
16987TIP3    H272377   3.390   3.326   4.255  0.2954 -3.4793  0.1408
16988TIP3   OH272378   1.044   2.055  14.157 -0.5194  0.1070 -0.1672
16988TIP3    H172379   1.099   1.977  14.167 -0.6720 -0.1673 -1.3524
16988TIP3    H272380   1.047   2.097  14.243  0.9671 -0.2755 -0.0009
16989TIP3   OH272381   2.427   3.989  13.136 -0.0369 -0.1481  0.0024
16989TIP3    H172382   2.517   4.012  13.157 -0.1129  1.0250 -0.8349
16989TIP3    H272383   2.432   3.900  13.102  0.6817 -0.4069  0.7753
16990TIP3   OH272384   5.682   0.345  11.695  0.0635  0.5947 -0.2259
16990TIP3    H172385   5.627   0.307  11.764  1.4089 -0.5384  0.2583
16990TIP3    H272386   5.628   0.416  11.658 -1.0921  0.5386  1.2630
16991TIP3   OH272387   4.225   1.632  10.984  0.5758  0.2194 -0.2291
16991TIP3    H172388   4.295   1.675  10.934 -0.4893  0.3004 -1.7287
16991TIP3    H272389   4.223   1.678  11.067 -0.1130  2.7545 -1.5364
16992TIP3   OH272390   3.058   6.479   3.847  0.1415 -0.0861  0.3079
16992TIP3    H172391   3.000   6.554   3.847 -0.1565 -0.2952 -1.1092
16992TIP3    H272392   3.007   6.409   3.807  1.4397 -0.1881 -1.2562
16993TIP3   OH272393   5.661   4.915  15.015  0.3275  0.3309  0.1245
16993TIP3    H172394   5.616   4.919  14.931  0.8080  0.1096 -0.1512
16993TIP3    H272395   5.754   4.926  14.993  0.2764  2.6161  0.8680
16994TIP3   OH272396   1.128   2.651   0.745  0.0945 -0.2510  0.2482
16994TIP3    H172397   1.176   2.678   0.667  0.8064 -2.7158 -0.2418
16994TIP3    H272398   1.065   2.587   0.713 -1.3522  0.5543  1.3736
16995TIP3   OH272399   5.392   1.715  13.754 -0.2015  0.0939  0.1516
16995TIP3    H172400   5.436   1.634  13.781  1.1827  0.6816 -0.2142
16995TIP3    H272401   5.350   1.747  13.834 -0.0995 -0.5856  0.4844
16996TIP3   OH272402   2.287   4.958  12.294  0.4016 -0.7528  0.3954
16996TIP3    H172403   2.291   4.997  12.207  0.0326 -1.2993  0.1230
16996TIP3    H272404   2.315   4.867  12.281 -1.4342 -1.3768  0.4805
16997TIP3   OH272405   5.238   2.067  16.390  0.3977 -0.3115 -0.4621
16997TIP3    H172406   5.255   2.007  16.317 -1.6819  0.3850 -1.6006
16997TIP3    H272407   5.230   2.153  16.350  0.3361  0.2769  0.7520
16998TIP3   OH272408   0.716   5.427  11.863  0.1587 -0.1881 -0.1083
16998TIP3    H172409   0.736   5.401  11.773 -1.2197 -0.0805 -0.4669
16998TIP3    H272410   0.709   5.345  11.911 -1.7152 -0.4182 -0.6968
16999TIP3   OH272411   4.391   6.075   3.810  0.0500 -0.0074 -0.6655
16999TIP3    H172412   4.462   6.057   3.748  0.6239 -0.5341  0.1282
16999TIP3    H272413   4.345   6.150   3.772  1.1929  0.5250 -1.0499
17000TIP3   OH272414   6.487   1.617   0.408 -0.0271  0.2417  0.0064
17000TIP3    H172415   6.576   1.652   0.404  0.2515 -0.5332 -0.9127
17000TIP3    H272416   6.498   1.528   0.442 -0.4979  0.2731  0.2516
17001TIP3   OH272417   3.150   3.134  12.581  0.2668  0.0461  0.0141
17001TIP3    H172418   3.133   3.113  12.673  0.3793 -2.9737 -0.5561
17001TIP3    H272419   3.245   3.141  12.575  0.3124 -0.5257  0.0083
17002TIP3   OH272420   6.186   0.478   2.956 -0.2974  0.2544 -0.0517
17002TIP3    H172421   6.222   0.556   2.914  1.4883 -0.1267  0.6461
17002TIP3    H272422   6.257   0.447   3.012 -1.3764 -1.2215  0.5601
17003TIP3   OH272423   1.653   0.085  11.827 -0.1925  0.4020 -0.1334
17003TIP3    H172424   1.715   0.157  11.836  0.4120  0.0056 -0.9929
17003TIP3    H272425   1.663   0.056  11.736 -1.0409 -0.2089 -0.0413
17004TIP3   OH272426   6.215   3.886   6.035  0.1006  0.0344 -0.0562
17004TIP3    H172427   6.219   3.860   6.127  0.6317  1.2655  0.2901
17004TIP3    H272428   6.194   3.980   6.038 -0.1916  0.0190 -1.2004
17005TIP3   OH272429   0.992   0.536   2.031 -0.1885  0.0663  0.0033
17005TIP3    H172430   0.997   0.614   1.977 -0.4054  0.4192  0.4875
17005TIP3    H272431   1.071   0.486   2.008 -1.5691 -1.1163 -2.6264
17006TIP3   OH272432   5.763   5.825   3.477 -0.1911 -0.2843 -0.1981
17006TIP3    H172433   5.754   5.805   3.384 -0.6030 -0.4328 -0.1256
17006TIP3    H272434   5.681   5.797   3.516 -0.0561 -0.1351  0.1983
17007TIP3   OH272435   3.644   5.795   5.476 -0.5164  0.2372  0.2709
17007TIP3    H172436   3.617   5.784   5.567 -0.1376 -1.4339  0.2113
17007TIP3    H272437   3.739   5.808   5.481 -0.3555 -0.8140  0.0677
17008TIP3   OH272438   6.026   0.688  15.976  0.2154  0.0854 -0.4190
17008TIP3    H172439   6.081   0.621  16.017 -0.5130 -0.4567 -0.3047
17008TIP3    H272440   6.086   0.737  15.920  0.5084 -1.6141 -1.6917
17009TIP3   OH272441   1.112   5.324  12.022  0.2723 -0.0366 -0.1628
17009TIP3    H172442   1.164   5.250  12.054 -0.6674  0.1281  1.8904
17009TIP3    H272443   1.062   5.288  11.949  2.7472 -0.3510 -1.8283
17010TIP3   OH272444   3.756   1.364  15.454 -0.1520 -0.4910 -0.3102
17010TIP3    H172445   3.828   1.372  15.517 -0.9065  0.1269  0.5118
17010TIP3    H272446   3.741   1.454  15.423 -0.9180 -0.5245 -0.0558
17011TIP3   OH272447   3.756   0.986   3.602  0.1559  0.3416 -0.6654
17011TIP3    H172448   3.804   1.053   3.554  1.0207 -0.1279 -0.4818
17011TIP3    H272449   3.808   0.971   3.680 -0.9092  0.6487  0.1357
17012TIP3   OH272450   0.714   6.508  16.523  0.1448 -0.0630  0.4052
17012TIP3    H172451   0.748   6.597  16.509  0.4407 -0.3483 -0.8197
17012TIP3    H272452   0.792   6.453  16.526 -0.0454 -0.2981  1.0464
17013TIP3   OH272453   6.580   6.264   4.702  0.2268 -0.5063  0.4324
17013TIP3    H172454   6.555   6.355   4.719 -0.3654 -0.2730 -1.4691
17013TIP3    H272455   6.546   6.215   4.777 -2.2729  0.4088 -0.0115
17014TIP3   OH272456   0.527   6.618  12.632  0.2651 -0.0372  0.1642
17014TIP3    H172457   0.507   6.531  12.597  0.4323  0.1066 -0.2862
17014TIP3    H272458   0.484   6.678  12.572  0.6727  0.2163  0.1290
17015TIP3   OH272459   2.135   6.665   3.854 -0.0498  0.7141  0.4274
17015TIP3    H172460   2.139   6.653   3.759  0.4255  0.9511  0.4138
17015TIP3    H272461   2.179   6.588   3.890 -0.8299  0.2840  0.4825
17016TIP3   OH272462   1.781   3.634   2.870  0.0162 -0.2148 -0.2452
17016TIP3    H172463   1.766   3.692   2.945 -0.1010 -1.3445  0.6321
17016TIP3    H272464   1.697   3.631   2.825 -0.2677 -0.4879  0.2887
17017TIP3   OH272465   0.667   1.177  16.583  0.1003 -0.1932 -0.3100
17017TIP3    H172466   0.659   1.267  16.615 -0.3315 -0.0435 -0.8347
17017TIP3    H272467   0.739   1.181  16.520  1.9266 -0.7707  1.6110
17018TIP3   OH272468   6.064   2.465   1.820  0.1020  0.0914  0.0764
17018TIP3    H172469   6.022   2.469   1.906 -0.5308  0.9183 -0.2527
17018TIP3    H272470   6.147   2.512   1.832  0.0369  0.1647  0.2455
17019TIP3   OH272471   0.163   1.683  14.566 -0.0278 -0.1931  0.3881
17019TIP3    H172472   0.080   1.713  14.603 -0.0277  1.5847 -0.9168
17019TIP3    H272473   0.138   1.620  14.498 -0.3920  0.7898 -0.4205
17020TIP3   OH272474   5.130   2.399   3.678 -0.5110 -0.0673  0.2852
17020TIP3    H172475   5.070   2.352   3.620 -0.2676 -1.6266  1.2583
17020TIP3    H272476   5.217   2.380   3.643 -0.3866 -0.7037  0.9196
17021TIP3   OH272477   6.150   5.894   1.497 -0.4325 -0.3186  0.7699
17021TIP3    H172478   6.154   5.988   1.513 -0.5560 -0.2568  0.4377
17021TIP3    H272479   6.224   5.858   1.546  2.0240  0.3682 -2.1183
17022TIP3   OH272480   0.025   5.251   1.764 -0.1608 -0.0883  0.2563
17022TIP3    H172481  -0.037   5.226   1.832 -0.2831  0.4465  0.3528
17022TIP3    H272482   0.098   5.292   1.812 -1.2999  2.4694 -0.0241
17023TIP3   OH272483   5.741   6.050   4.903 -0.0236  0.3835 -0.0553
17023TIP3    H172484   5.652   6.028   4.875  0.2514 -0.8326 -0.0506
17023TIP3    H272485   5.750   6.143   4.883 -1.3177  0.5468  0.0090
17024TIP3   OH272486   4.418   4.531   5.553 -0.3080 -0.4066  0.1392
17024TIP3    H172487   4.467   4.608   5.583  1.0886 -1.1282 -0.2069
17024TIP3    H272488   4.441   4.462   5.615  1.0793 -1.3944 -1.4005
17025TIP3   OH272489   6.348   1.385   5.164 -0.0124  0.1801 -0.2424
17025TIP3    H172490   6.383   1.424   5.243  0.5475  0.4735 -0.6319
17025TIP3    H272491   6.393   1.301   5.155 -0.2253  0.0541 -0.1385
17026TIP3   OH272492   1.231   1.030   4.761 -0.5055 -0.2252  0.5417
17026TIP3    H172493   1.280   0.983   4.829 -0.3432  0.2622  0.7683
17026TIP3    H272494   1.165   0.968   4.731 -0.3979 -0.5421  0.9552
17027TIP3   OH272495   0.027   4.293  16.853  0.0311 -0.2143 -0.3630
17027TIP3    H172496   0.076   4.325  16.777  2.2039 -2.0890  0.1431
17027TIP3    H272497   0.002   4.372  16.901  1.6227  0.8682 -1.2258
17028TIP3   OH272498   0.746   4.959  15.876 -0.0168  0.5750  0.2254
17028TIP3    H172499   0.735   4.874  15.833 -1.0917  0.3661  0.8764
17028TIP3    H272500   0.660   5.001  15.869  0.1095  1.0197  1.1159
17029TIP3   OH272501   4.800   3.780   0.747 -0.0759 -0.0346  0.5055
17029TIP3    H172502   4.882   3.825   0.767 -0.2700  0.1269  0.9610
17029TIP3    H272503   4.752   3.781   0.829  0.6337 -2.6489  1.0498
17030TIP3   OH272504   2.914   5.539   3.765  0.2989 -0.0044  0.2829
17030TIP3    H172505   2.990   5.597   3.769 -0.0656  0.4951  0.0469
17030TIP3    H272506   2.919   5.487   3.845  0.6470  0.3286  0.4782
17031TIP3   OH272507   1.392   1.439  13.330  0.0848  0.1921  0.3334
17031TIP3    H172508   1.436   1.507  13.381 -0.7341  0.9383  0.0623
17031TIP3    H272509   1.303   1.436  13.365  0.3195 -1.3014  0.8760
17032TIP3   OH272510   0.981   3.183   2.425 -0.1947 -0.0766  0.3364
17032TIP3    H172511   1.023   3.263   2.458  1.4870 -0.9574  0.4707
17032TIP3    H272512   1.049   3.140   2.373 -1.6071 -0.5919 -1.1813
17033TIP3   OH272513   2.414   0.694  13.182  0.2799 -0.1336  0.0865
17033TIP3    H172514   2.459   0.715  13.100  0.4962  0.5485  0.3704
17033TIP3    H272515   2.480   0.710  13.250  0.0567 -0.5511  0.4047
17034TIP3   OH272516   2.546   3.368  13.506 -0.3359  0.0365  0.2606
17034TIP3    H172517   2.572   3.426  13.435  0.7131 -0.0718  0.5354
17034TIP3    H272518   2.525   3.427  13.579  1.8504  0.0997  0.9146
17035TIP3   OH272519   3.017   4.550  11.937 -0.2562  0.3337 -0.9418
17035TIP3    H172520   2.961   4.587  11.868 -0.0252  0.3231 -1.1360
17035TIP3    H272521   2.963   4.553  12.015  0.1287  2.1409 -0.7032
17036TIP3   OH272522   3.772   5.223  12.417  0.7854 -0.3622  0.1341
17036TIP3    H172523   3.739   5.147  12.369 -0.8486 -0.3481  1.1812
17036TIP3    H272524   3.778   5.193  12.508 -1.0563  1.0531  0.7881
17037TIP3   OH272525   2.432   3.391  16.843 -0.4162  0.0128  0.3608
17037TIP3    H172526   2.440   3.323  16.776  0.0709  2.4107 -2.1870
17037TIP3    H272527   2.512   3.382  16.896  0.3095 -0.5385 -0.7908
17038TIP3   OH272528   3.773   4.368   3.012  0.3914  0.2753  0.0497
17038TIP3    H172529   3.823   4.383   2.931  0.4271 -1.1394 -0.2289
17038TIP3    H272530   3.686   4.401   2.993  1.0433  2.3127  0.3616
17039TIP3   OH272531   2.539   5.255   4.260 -0.1046 -0.0447  0.0875
17039TIP3    H172532   2.470   5.259   4.326 -1.0624 -2.3079 -0.6599
17039TIP3    H272533   2.494   5.273   4.177  1.0452  2.5847 -0.0647
17040TIP3   OH272534   0.786   0.349   2.110 -0.3348 -0.4615 -0.6267
17040TIP3    H172535   0.875   0.381   2.094 -0.9642  0.2010 -3.3350
17040TIP3    H272536   0.731   0.426   2.105 -1.2887 -1.1638 -1.4517
17041TIP3   OH272537   2.681   0.873  15.106 -0.2354 -0.3952  0.6065
17041TIP3    H172538   2.613   0.901  15.167 -2.0204 -2.0432 -0.4734
17041TIP3    H272539   2.716   0.954  15.068 -3.1134  0.5336 -0.3145
17042TIP3   OH272540   5.175   2.049  12.053 -0.0787 -0.7046 -0.0620
17042TIP3    H172541   5.219   1.986  11.996  0.3059 -0.5553  0.0645
17042TIP3    H272542   5.224   2.131  12.041 -0.5774 -0.4274 -0.2267
17043TIP3   OH272543   3.838   2.195   6.431  0.3099  0.5843  0.1322
17043TIP3    H172544   3.877   2.282   6.436 -3.5985  2.4533  2.6145
17043TIP3    H272545   3.772   2.202   6.362  0.5576 -0.7705 -0.2812
17044TIP3   OH272546   6.301   2.039  14.735 -0.4863 -0.3292  0.2741
17044TIP3    H172547   6.235   2.085  14.787 -2.1768 -3.1287  0.8102
17044TIP3    H272548   6.385   2.071  14.769 -1.5514  0.4177  2.3488
17045TIP3   OH272549   2.088   1.492   2.824 -0.6941 -0.0454  0.0040
17045TIP3    H172550   2.155   1.485   2.757 -0.6481  3.5417 -0.5012
17045TIP3    H272551   2.131   1.538   2.897 -2.0713  0.6765  0.4012
17046TIP3   OH272552   5.272   2.834   2.751  0.2726  0.3844  0.6265
17046TIP3    H172553   5.292   2.768   2.684  0.2834 -0.2912  1.2836
17046TIP3    H272554   5.202   2.886   2.712 -1.0520 -1.1712  0.8077
17047TIP3   OH272555   5.185   0.235   0.236 -0.7330  0.5125 -0.9022
17047TIP3    H172556   5.200   0.295   0.163  0.3243  1.3285 -0.0567
17047TIP3    H272557   5.157   0.291   0.308 -2.7850 -0.4079 -0.9381
17048TIP3   OH272558   3.919   2.409  16.638  0.1032 -0.2843  0.4794
17048TIP3    H172559   4.006   2.444  16.654  0.4484 -1.3326  0.9653
17048TIP3    H272560   3.933   2.319  16.611 -0.8255 -0.3922  0.2990
17049TIP3   OH272561   3.994   3.006   1.655 -0.8587 -0.6095  0.6635
17049TIP3    H172562   3.960   3.078   1.603 -0.1464  0.3078  1.4384
17049TIP3    H272563   4.070   2.975   1.605 -0.0027  0.4561  1.2693
17050TIP3   OH272564   2.458   3.666   3.277 -1.0007  0.7943  0.0571
17050TIP3    H172565   2.503   3.650   3.195 -1.3594  1.6029 -0.3152
17050TIP3    H272566   2.410   3.585   3.295 -0.5769  0.4603 -0.3033
17051TIP3   OH272567   0.316   0.273  16.007  0.5696 -0.0153  0.6681
17051TIP3    H172568   0.366   0.312  16.078  0.2426  2.7761 -0.5163
17051TIP3    H272569   0.374   0.277  15.931  0.4448 -1.7723  0.4266
17052TIP3   OH272570   4.809   3.214  12.281  0.3237  0.0870 -0.3508
17052TIP3    H172571   4.890   3.175  12.315 -0.4716 -2.0793 -0.7606
17052TIP3    H272572   4.755   3.228  12.359  0.4673 -0.0107 -0.2329
17053TIP3   OH272573   2.536   2.674   0.252 -0.5870 -0.3315 -0.4664
17053TIP3    H172574   2.590   2.744   0.216  0.0196  0.1790  1.3115
17053TIP3    H272575   2.544   2.603   0.189  0.8494  0.3203 -1.0674
17054TIP3   OH272576   0.104   2.484   1.456 -0.6600 -0.2259 -0.5560
17054TIP3    H172577   0.066   2.417   1.512 -0.6558  0.8520  0.7866
17054TIP3    H272578   0.029   2.532   1.421 -0.6179  0.4709  0.2837
17055TIP3   OH272579   2.243   0.784   3.112  0.7095 -0.1037  0.1323
17055TIP3    H172580   2.281   0.710   3.158  0.6870  0.3447  0.9005
17055TIP3    H272581   2.300   0.798   3.036  0.9899 -0.6014  0.2511
17056TIP3   OH272582   4.683   3.043   0.160  0.3514  0.1774  0.3612
17056TIP3    H172583   4.662   2.954   0.135 -0.4877  0.1213  1.1884
17056TIP3    H272584   4.777   3.041   0.180  0.0570 -0.9069  1.8368
17057TIP3   OH272585   2.741   1.168  11.976  0.0322 -0.6047 -0.0123
17057TIP3    H172586   2.789   1.183  11.895  2.5753 -0.5121  1.4016
17057TIP3    H272587   2.788   1.218  12.042 -0.6838 -2.2984  1.9090
17058TIP3   OH272588   5.173   6.305  16.383  0.2086 -0.1341  0.0739
17058TIP3    H172589   5.222   6.223  16.386  1.4327  0.6019  1.8201
17058TIP3    H272590   5.117   6.302  16.461 -0.8014  0.0843 -0.6260
17059TIP3   OH272591   2.253   4.183   3.612 -0.1396  0.5706  0.1523
17059TIP3    H172592   2.263   4.276   3.592  0.9502  1.1035  2.8060
17059TIP3    H272593   2.338   4.145   3.590  0.5292  0.8685  2.0518
17060TIP3   OH272594   1.814   4.225  16.162  0.2776  0.8672  0.5805
17060TIP3    H172595   1.871   4.215  16.238  1.1278  0.4300 -0.0921
17060TIP3    H272596   1.873   4.250  16.091 -0.0368 -1.3138 -0.5625
17061TIP3   OH272597   5.304   6.377   2.659  0.2834 -0.2262  0.3649
17061TIP3    H172598   5.359   6.303   2.686 -0.0538 -1.3139 -1.7088
17061TIP3    H272599   5.265   6.349   2.576 -0.1620  2.1496 -0.3144
17062TIP3   OH272600   0.441   1.394   1.233  0.5280  0.2659  0.6393
17062TIP3    H172601   0.425   1.474   1.183  0.4982  0.4804  0.9872
17062TIP3    H272602   0.385   1.402   1.310  0.4339 -0.1466  0.6169
17063TIP3   OH272603   1.342   1.098   3.272  0.2857 -0.6861 -0.1127
17063TIP3    H172604   1.379   1.185   3.255  1.3101 -0.4289  2.8697
17063TIP3    H272605   1.405   1.038   3.234  0.9885 -0.1320  0.1347
17064TIP3   OH272606   6.398   4.657   2.140  0.3697  0.9906  0.1905
17064TIP3    H172607   6.451   4.716   2.194 -1.2725  1.4272  1.4209
17064TIP3    H272608   6.354   4.716   2.078  0.7786  0.7158 -0.3666
17065TIP3   OH272609   4.162   5.513   4.001 -0.3482  0.0049  0.1594
17065TIP3    H172610   4.071   5.498   4.026 -0.4198  0.1293 -0.0216
17065TIP3    H272611   4.171   5.608   4.000 -0.1149 -0.0130  0.5295
17066TIP3   OH272612   5.064   5.464  15.232 -0.0890  0.0481  0.4588
17066TIP3    H172613   5.097   5.553  15.242  1.4302 -0.1309 -2.1722
17066TIP3    H272614   5.053   5.452  15.137 -3.7383 -1.3920  0.8912
17067TIP3   OH272615   4.062   6.752  12.347 -0.0849  0.6180 -0.0166
17067TIP3    H172616   4.124   6.709  12.289 -0.4574 -0.2353  0.1882
17067TIP3    H272617   4.099   6.741  12.434 -0.8724 -0.6108  0.2025
17068TIP3   OH272618   5.294   1.560   0.792  0.5485 -0.5403 -0.2435
17068TIP3    H172619   5.311   1.626   0.859  1.0581 -0.6244 -0.2883
17068TIP3    H272620   5.275   1.480   0.841 -1.7973  0.0111 -0.1399
17069TIP3   OH272621   4.392   1.393   1.016  0.0059 -0.4789 -0.1085
17069TIP3    H172622   4.334   1.467   1.030  1.6485  0.7420  0.5537
17069TIP3    H272623   4.373   1.364   0.926 -0.5412  0.8481 -0.4457
17070TIP3   OH272624   2.652   4.443   1.004 -0.0379 -0.0929 -0.2580
17070TIP3    H172625   2.673   4.385   1.077 -1.8013  0.6154  0.8901
17070TIP3    H272626   2.714   4.515   1.012  0.1746 -0.3197  0.1975
17071TIP3   OH272627   4.969   0.433  10.255 -0.3221  0.5208 -0.2142
17071TIP3    H172628   4.922   0.516  10.246 -0.9965  0.1129 -0.5921
17071TIP3    H272629   4.903   0.372  10.289 -0.3594 -0.3160 -1.7106
17072TIP3   OH272630   6.595   1.604  14.936 -0.3618  0.0609 -1.0509
17072TIP3    H172631   6.563   1.674  14.993 -1.7318  0.5502 -2.3673
17072TIP3    H272632   6.673   1.641  14.895 -0.6392  0.5365 -1.1618
17073TIP3   OH272633   0.741   2.709   5.182  0.1068 -0.4258  0.1414
17073TIP3    H172634   0.751   2.640   5.248  1.7719 -0.9476 -0.6037
17073TIP3    H272635   0.790   2.677   5.107 -0.5764  0.8010 -0.8575
17074TIP3   OH272636   2.871   5.089   2.147  0.1142 -0.2792 -0.2010
17074TIP3    H172637   2.787   5.120   2.113  0.2492 -0.0639 -0.3385
17074TIP3    H272638   2.867   4.994   2.138 -0.2397 -0.2898  0.0842
17075TIP3   OH272639   5.522   5.172  10.896  0.0532 -0.6908 -0.1996
17075TIP3    H172640   5.589   5.168  10.963 -0.2480 -0.8436  0.0943
17075TIP3    H272641   5.477   5.088  10.902 -0.3614 -0.4688 -0.1923
17076TIP3   OH272642   1.313   3.295  13.856 -0.2454 -0.0424  0.5810
17076TIP3    H172643   1.386   3.241  13.828 -1.2579 -0.8393 -0.6030
17076TIP3    H272644   1.264   3.240  13.917 -2.5535 -1.4756 -2.3237
17077TIP3   OH272645   6.136   5.137   5.466 -0.3131 -0.4203 -0.0314
17077TIP3    H172646   6.173   5.160   5.380  0.8240 -0.5623  0.4105
17077TIP3    H272647   6.118   5.222   5.507 -0.8933 -0.3503 -0.4094
17078TIP3   OH272648   0.234   2.633   5.543  0.1636  0.7760  0.2391
17078TIP3    H172649   0.201   2.717   5.511 -1.3731 -0.4979 -1.7172
17078TIP3    H272650   0.155   2.580   5.555  1.1042 -0.3957  1.5330
17079TIP3   OH272651   0.530   2.212   2.265  0.0432 -0.6172  0.2905
17079TIP3    H172652   0.626   2.212   2.259  0.0812 -1.3692  0.7113
17079TIP3    H272653   0.512   2.231   2.357 -0.2938  1.9476 -0.2257
17080TIP3   OH272654   6.378   6.153  16.270 -0.0086  0.2509  0.2805
17080TIP3    H172655   6.460   6.106  16.254 -0.0399  0.8836 -2.0905
17080TIP3    H272656   6.333   6.101  16.336  1.7801 -0.7391  0.7881
17081TIP3   OH272657   1.394   2.377   5.985 -0.1819  0.7021  0.1115
17081TIP3    H172658   1.427   2.340   6.067 -2.1735 -0.6853  0.3495
17081TIP3    H272659   1.327   2.440   6.012 -0.9801  0.1063 -0.4193
17082TIP3   OH272660   1.489   0.965  16.894 -0.2653 -0.0648 -0.0273
17082TIP3    H172661   1.484   1.045  16.843 -0.5100 -0.1583 -0.1502
17082TIP3    H272662   1.470   0.895  16.832 -1.2581 -0.1326  0.3352
17083TIP3   OH272663   5.470   0.737   5.178  0.2265 -0.1265  0.7960
17083TIP3    H172664   5.524   0.786   5.240 -0.3735 -0.2736  1.4488
17083TIP3    H272665   5.381   0.747   5.211 -0.3216  1.0926 -0.9070
17084TIP3   OH272666   0.493   5.988   1.752 -0.1779  0.2059 -0.5952
17084TIP3    H172667   0.408   6.031   1.744  0.3217  1.4299  0.3031
17084TIP3    H272668   0.537   6.007   1.670  0.5722  2.7323  0.2929
17085TIP3   OH272669   5.594   2.199  13.243  0.0724 -0.6557  0.6916
17085TIP3    H172670   5.646   2.231  13.170 -0.5561  1.8219  1.2435
17085TIP3    H272671   5.631   2.113  13.263  2.1754 -0.1327 -0.6407
17086TIP3   OH272672   0.708   0.660   1.436  0.0850 -0.6279 -0.3732
17086TIP3    H172673   0.736   0.747   1.466 -1.3572  0.1028 -1.0751
17086TIP3    H272674   0.635   0.677   1.377 -0.4086 -2.3441 -0.3032
17087TIP3   OH272675   5.862   1.483   2.130 -0.8758 -0.5005  0.4009
17087TIP3    H172676   5.790   1.521   2.079  0.7526 -0.4646 -2.0436
17087TIP3    H272677   5.938   1.490   2.072  1.1773 -0.3407  2.9548
17088TIP3   OH272678   0.158   2.010  11.841 -0.5518 -0.0685  0.1066
17088TIP3    H172679   0.140   2.075  11.774  1.1535 -0.1349 -0.4810
17088TIP3    H272680   0.111   2.040  11.918 -1.5745  0.6546 -0.7826
17089TIP3   OH272681   2.526   3.612   5.651 -0.4384 -0.3528  0.2045
17089TIP3    H172682   2.538   3.525   5.612 -2.4162 -1.5529  2.0633
17089TIP3    H272683   2.487   3.595   5.737  1.2276  2.2963  1.6309
17090TIP3   OH272684   3.157   0.180   1.122  0.1466  0.4318 -0.5271
17090TIP3    H172685   3.144   0.179   1.027 -0.7518  1.5036 -0.4295
17090TIP3    H272686   3.250   0.160   1.133  0.0247 -0.8597 -1.5671
17091TIP3   OH272687   1.878   1.999  11.436  0.0084  0.0394 -0.1567
17091TIP3    H172688   1.849   2.037  11.353  0.4652 -0.4390 -0.5399
17091TIP3    H272689   1.867   1.905  11.425  0.0838 -0.0278  0.3233
17092TIP3   OH272690   6.292   2.234   3.922  0.1829  0.0014 -0.3670
17092TIP3    H172691   6.277   2.171   3.992 -1.2074  0.1276 -0.5267
17092TIP3    H272692   6.209   2.238   3.875  0.8600  0.4923 -1.5615
17093TIP3   OH272693   2.244   4.781   2.592 -0.0686  0.1533  0.4427
17093TIP3    H172694   2.252   4.745   2.504  1.1010  0.8794  0.2301
17093TIP3    H272695   2.277   4.712   2.650 -0.0679 -0.0122  0.2432
17094TIP3   OH272696   2.889   0.295  12.579 -0.2787  0.0720 -0.2938
17094TIP3    H172697   2.852   0.375  12.542  2.0932  1.6388  0.5395
17094TIP3    H272698   2.970   0.280  12.530 -0.3308 -1.4522  0.0244
17095TIP3   OH272699   5.358   3.155  13.406  0.3876 -0.0497  0.6143
17095TIP3    H172700   5.384   3.219  13.340  0.4769  1.1142  1.7305
17095TIP3    H272701   5.434   3.149  13.464  0.1801 -0.7795  0.8155
17096TIP3   OH272702   1.947   3.814   4.633  0.0043 -0.2791 -0.1540
17096TIP3    H172703   1.907   3.878   4.575 -3.5534 -1.2779  0.9308
17096TIP3    H272704   1.881   3.797   4.700  2.0265 -2.7192  1.4414
17097TIP3   OH272705   3.147   5.051   1.849 -0.6340 -0.2192  0.1486
17097TIP3    H172706   3.209   5.041   1.777 -0.6947  0.4386 -0.0029
17097TIP3    H272707   3.172   5.133   1.890 -0.2229 -0.8796  1.2588
17098TIP3   OH272708   5.838   4.745   6.658  0.0541 -0.1198 -0.1570
17098TIP3    H172709   5.775   4.673   6.652  0.2101 -0.2440 -0.3493
17098TIP3    H272710   5.917   4.710   6.616 -0.3774  0.7450 -1.7644
17099TIP3   OH272711   3.087   6.037  11.271  0.8104 -0.0064 -0.4579
17099TIP3    H172712   3.065   6.000  11.356  2.1093  0.0246 -0.0764
17099TIP3    H272713   3.084   6.132  11.285  0.4427  0.0057 -0.6121
17100TIP3   OH272714   2.696   5.051  12.011  0.4522  0.1001 -0.1377
17100TIP3    H172715   2.608   5.066  11.977  0.5507 -3.7847 -2.6678
17100TIP3    H272716   2.710   4.957  12.003  4.8985  0.5259  0.0587
17101TIP3   OH272717   3.869   0.808   4.051 -0.4748  0.1469  0.0375
17101TIP3    H172718   3.779   0.798   4.022 -1.6932  2.4397  2.6098
17101TIP3    H272719   3.864   0.805   4.147  2.0687  1.0892  0.2915
17102TIP3   OH272720   3.583   0.680  17.149  0.4629 -0.7433  0.3040
17102TIP3    H172721   3.579   0.773  17.125 -1.0925 -1.0882 -0.9194
17102TIP3    H272722   3.521   0.672  17.222  2.6116 -0.3668  2.3028
17103TIP3   OH272723   5.655   4.144  14.375 -0.0846 -0.4679  0.2048
17103TIP3    H172724   5.744   4.176  14.389 -0.0225  0.4301 -1.9027
17103TIP3    H272725   5.605   4.181  14.448 -0.2570  5.7251 -2.4014
17104TIP3   OH272726   3.432   4.225  14.802 -0.3543 -0.1447 -0.2044
17104TIP3    H172727   3.352   4.264  14.836 -0.2487 -1.3302  1.5341
17104TIP3    H272728   3.500   4.289  14.822 -0.3833 -0.5661  1.4389
17105TIP3   OH272729   0.489   4.327  12.197 -0.6371  0.3400  0.4322
17105TIP3    H172730   0.550   4.255  12.214  0.0313  0.7007 -0.3754
17105TIP3    H272731   0.526   4.402  12.244  1.0126  1.2424 -2.1242
17106TIP3   OH272732   2.733   1.424   0.508 -0.1272 -0.1142  0.2440
17106TIP3    H172733   2.661   1.441   0.568  0.6978  0.7949  1.0025
17106TIP3    H272734   2.810   1.413   0.565  0.6938  0.8771 -0.6328
17107TIP3   OH272735   5.823   3.937   0.377 -0.1054  0.0675  0.3673
17107TIP3    H172736   5.842   4.022   0.417 -2.2997  0.2132  1.2507
17107TIP3    H272737   5.893   3.924   0.313  1.2807  1.6941  1.4703
17108TIP3   OH272738   0.692   0.395  15.018  0.0131  0.2471  0.0919
17108TIP3    H172739   0.665   0.476  15.061 -0.9672 -0.5839  1.0999
17108TIP3    H272740   0.781   0.379  15.050  0.0494  0.7100  0.2196
17109TIP3   OH272741   4.844   5.928   1.668 -0.0258  0.1559 -0.3991
17109TIP3    H172742   4.763   5.908   1.620  0.5065 -1.3226 -0.7334
17109TIP3    H272743   4.815   5.984   1.740 -1.6812 -1.8775  0.6170
17110TIP3   OH272744   1.759   4.912  16.338 -0.0474 -0.0537  0.0346
17110TIP3    H172745   1.717   4.936  16.256  0.2829  0.4179 -0.0019
17110TIP3    H272746   1.745   4.817  16.345  0.9474 -0.3304 -1.1724
17111TIP3   OH272747   1.291   0.872  11.992  0.6112 -0.2098 -0.2822
17111TIP3    H172748   1.307   0.785  11.954 -0.1765 -1.1482  1.3954
17111TIP3    H272749   1.202   0.867  12.026  0.7389  1.0908  0.3072
17112TIP3   OH272750   4.557   5.554  17.114 -0.1943 -0.0140  0.3954
17112TIP3    H172751   4.521   5.507  17.189 -0.0487  0.1831  0.5890
17112TIP3    H272752   4.570   5.644  17.145 -1.5893  0.4661 -0.3034
17113TIP3   OH272753   5.456   5.799  13.315 -0.1613  0.0481 -0.2972
17113TIP3    H172754   5.465   5.796  13.410 -1.1696 -1.4993 -0.2137
17113TIP3    H272755   5.488   5.714  13.285  1.6765  1.0994 -1.5391
17114TIP3   OH272756   0.266   3.605  16.674  0.3568  0.0075  1.2017
17114TIP3    H172757   0.325   3.670  16.635  1.4817 -1.8930 -0.4348
17114TIP3    H272758   0.285   3.610  16.768  0.7726  1.6480  1.0733
17115TIP3   OH272759   3.231   3.972   1.172  0.1037  0.4283 -0.2540
17115TIP3    H172760   3.261   4.063   1.159  0.6739  0.1230 -1.2239
17115TIP3    H272761   3.199   3.945   1.086  1.4963 -0.8350 -0.4196
17116TIP3   OH272762   2.361   5.996   3.887 -0.3384 -0.0138  0.1701
17116TIP3    H172763   2.393   6.061   3.951 -1.8294 -0.6647  1.6585
17116TIP3    H272764   2.267   5.992   3.902 -0.5339 -1.2075 -1.1680
17117TIP3   OH272765   5.383   2.654   1.139 -0.2683  0.2781 -0.4950
17117TIP3    H172766   5.320   2.727   1.137 -1.1613 -0.4816 -0.9320
17117TIP3    H272767   5.397   2.636   1.232 -0.8593  0.3233 -0.3954
17118TIP3   OH272768   4.183   2.246   2.081 -0.2003  0.3199 -0.3307
17118TIP3    H172769   4.137   2.277   2.004 -2.0846 -3.0932 -0.7491
17118TIP3    H272770   4.248   2.184   2.048  0.3957  0.3450  0.7222
17119TIP3   OH272771   2.081   4.979  17.134 -0.5958  0.3427 -0.1870
17119TIP3    H172772   2.087   5.075  17.135 -1.0159  0.3952 -1.3485
17119TIP3    H272773   2.053   4.958  17.045 -2.0102 -0.7790  0.4979
17120TIP3   OH272774   4.252   6.093  14.946 -0.2572  0.3733  0.2169
17120TIP3    H172775   4.233   6.181  14.980  0.1154  0.1243  1.1099
17120TIP3    H272776   4.196   6.035  14.997  1.0816 -0.1205  1.1953
17121TIP3   OH272777   1.719   2.724   4.551 -0.0972 -0.4740  0.1561
17121TIP3    H172778   1.788   2.765   4.498  0.2766 -2.5245 -1.0556
17121TIP3    H272779   1.637   2.752   4.510 -0.0097  1.2559  1.0628
17122TIP3   OH272780   3.822   5.417  11.635  0.2078  0.0476  0.6997
17122TIP3    H172781   3.730   5.441  11.621  0.2327 -0.1989  0.0925
17122TIP3    H272782   3.862   5.496  11.671  0.2170  0.8382 -0.9624
17123TIP3   OH272783   0.110   4.131  15.884 -0.1011  0.2429  0.0847
17123TIP3    H172784   0.036   4.163  15.936  0.8713  0.8525  1.1315
17123TIP3    H272785   0.152   4.065  15.939 -0.3220 -0.7168 -0.8469
17124TIP3   OH272786   6.642   4.869  15.377  0.6697 -0.2815  0.1401
17124TIP3    H172787   6.611   4.829  15.296 -1.6263 -1.6808  1.5950
17124TIP3    H272788   6.730   4.834  15.390 -0.0012 -2.2357 -0.3599
17125TIP3   OH272789   6.051   3.704   0.297 -0.2531 -0.1257 -0.4009
17125TIP3    H172790   6.089   3.662   0.375 -0.3012  0.6415  0.0464
17125TIP3    H272791   6.127   3.732   0.246 -0.2184 -0.0312 -0.2987
17126TIP3   OH272792   4.395   6.642   4.991  0.3393  0.0491  0.0643
17126TIP3    H172793   4.369   6.657   5.082  1.2225  1.6678  0.1033
17126TIP3    H272794   4.317   6.605   4.949 -0.5445  0.6015  1.1579
17127TIP3   OH272795   0.509   6.113   5.132 -0.3591 -0.3513 -0.3545
17127TIP3    H172796   0.485   6.033   5.180 -1.9880  0.2557 -0.1083
17127TIP3    H272797   0.527   6.177   5.201 -1.3826  0.1447 -0.5351
17128TIP3   OH272798   6.560   0.592  12.449 -0.2564 -0.6852 -0.2369
17128TIP3    H172799   6.530   0.527  12.512 -2.0728  1.6951  1.5191
17128TIP3    H272800   6.612   0.653  12.501 -1.8423  1.3649 -0.9357
17129TIP3   OH272801   6.217   3.370   2.777 -0.4325 -0.4315 -0.7317
17129TIP3    H172802   6.227   3.464   2.761 -1.6320 -0.3100 -0.8429
17129TIP3    H272803   6.135   3.363   2.826 -0.0185 -1.3699 -0.1650
17130TIP3   OH272804   6.541   0.722   3.075 -0.3177  0.3435 -0.1137
17130TIP3    H172805   6.487   0.778   3.018  0.3859  2.1492  0.9346
17130TIP3    H272806   6.512   0.633   3.054 -0.3816  0.9461 -2.9849
17131TIP3   OH272807   1.688   4.937  14.793  0.1470  0.1950  0.1525
17131TIP3    H172808   1.656   5.010  14.740 -0.9599 -0.1914  0.2520
17131TIP3    H272809   1.614   4.876  14.797  1.1224 -1.0679 -0.1459
17132TIP3   OH272810   1.796   0.242  11.131  0.2911  0.3739 -0.2213
17132TIP3    H172811   1.769   0.161  11.088 -0.3953 -0.1209  1.0664
17132TIP3    H272812   1.878   0.265  11.089  0.5604 -1.0603 -0.5419
17133TIP3   OH272813   1.343   0.273   1.247  0.4741 -0.1490 -0.0781
17133TIP3    H172814   1.384   0.358   1.230 -0.1315  0.0766 -0.4356
17133TIP3    H272815   1.261   0.276   1.199  0.0858 -0.6403  0.5400
17134TIP3   OH272816   4.091   0.640  12.665 -0.4678 -0.0216 -0.0184
17134TIP3    H172817   4.149   0.610  12.735 -1.2350 -0.5997  0.3757
17134TIP3    H272818   4.086   0.735  12.677  0.6101  0.0873 -0.2359
17135TIP3   OH272819   0.409   2.009   5.892  0.0942  0.1045 -0.6280
17135TIP3    H172820   0.398   2.096   5.930  1.3720 -0.1019  0.2853
17135TIP3    H272821   0.490   1.976   5.932 -0.6209 -1.6890 -0.5842
17136TIP3   OH272822   4.701   2.813  11.549  1.0062 -0.4991 -0.6074
17136TIP3    H172823   4.640   2.856  11.489  0.7028 -0.2767 -0.1481
17136TIP3    H272824   4.658   2.731  11.573  1.2573 -0.7232 -0.9165
17137TIP3   OH272825   2.311   4.249  15.125  0.6694 -0.1050  0.0319
17137TIP3    H172826   2.398   4.246  15.164 -0.7137 -1.6405  3.3196
17137TIP3    H272827   2.317   4.192  15.048  2.9340  1.2076 -0.8387
17138TIP3   OH272828   4.093   2.486  16.942  0.0072 -0.1792 -0.4761
17138TIP3    H172829   4.143   2.493  17.024  1.0546 -1.2091 -1.0012
17138TIP3    H272830   4.020   2.428  16.964  1.1550 -1.7544 -0.6225
17139TIP3   OH272831   1.843   3.594  11.606  0.2803 -0.3248  0.0892
17139TIP3    H172832   1.886   3.547  11.535 -1.9261 -0.3102 -1.3690
17139TIP3    H272833   1.871   3.685  11.595  0.9917 -0.5453  0.0660
17140TIP3   OH272834   1.736   3.782  12.864  0.1396  0.3429  0.5552
17140TIP3    H172835   1.753   3.876  12.869  0.8086  0.3751 -1.5580
17140TIP3    H272836   1.686   3.771  12.783 -0.4749 -1.0728  1.0886
17141TIP3   OH272837   2.409   2.821  13.962  0.3088 -0.3696  0.8716
17141TIP3    H172838   2.347   2.748  13.960 -1.0774  0.7789 -0.7868
17141TIP3    H272839   2.477   2.796  13.900 -0.4430 -0.0562 -0.1033
17142TIP3   OH272840   1.533   4.677   2.298 -0.3842  0.0270  0.6035
17142TIP3    H172841   1.576   4.650   2.216 -2.7503 -0.7255 -0.4830
17142TIP3    H272842   1.522   4.596   2.348 -0.1813  0.2694  1.0427
17143TIP3   OH272843   2.351   3.473  13.712 -0.0779 -0.0351 -0.1336
17143TIP3    H172844   2.267   3.472  13.666 -0.2601 -1.4105  0.2054
17143TIP3    H272845   2.367   3.382  13.736  1.3833  0.2490  0.0536
17144TIP3   OH272846   5.016   3.269   1.608  0.2394 -0.4265  0.0936
17144TIP3    H172847   5.028   3.231   1.521  2.4117 -0.6187  0.4216
17144TIP3    H272848   5.031   3.196   1.668 -1.2694 -0.3019  0.6740
17145TIP3   OH272849   4.198   2.988  17.223  0.0465  0.5907  0.3686
17145TIP3    H172850   4.288   2.957  17.210 -0.2842 -0.5829  0.7388
17145TIP3    H272851   4.154   2.915  17.266 -1.0400  1.2308  0.3716
17146TIP3   OH272852   0.377   1.475  15.277 -0.4572 -0.0758 -0.1795
17146TIP3    H172853   0.357   1.567  15.293 -0.4741  0.1784 -1.6096
17146TIP3    H272854   0.373   1.464  15.182  1.2105 -1.1598 -0.1806
17147TIP3   OH272855   0.170   6.020   5.174 -0.0015  0.1346 -0.9905
17147TIP3    H172856   0.101   6.018   5.108  0.6347  0.6602 -1.6826
17147TIP3    H272857   0.214   5.936   5.166 -0.6469 -0.2764 -0.4267
17148TIP3   OH272858   1.820   2.168   1.719  0.5248 -0.7751  0.3318
17148TIP3    H172859   1.843   2.088   1.766 -0.8571 -0.9615  0.7159
17148TIP3    H272860   1.744   2.143   1.666  0.3370  0.1784  0.1474
17149TIP3   OH272861   0.604   3.863  13.725 -0.3126  0.7158 -0.4417
17149TIP3    H172862   0.570   3.775  13.738  0.2334  0.1246 -2.5157
17149TIP3    H272863   0.531   3.921  13.747 -0.9075 -0.2891  0.2738
17150TIP3   OH272864   5.438   1.653  15.597  0.0685 -0.2330 -0.3715
17150TIP3    H172865   5.484   1.720  15.648  2.1303  0.4132 -2.8411
17150TIP3    H272866   5.434   1.690  15.509 -3.6717 -1.1261 -0.7171
17151TIP3   OH272867   3.621   2.495  15.526  0.2118  0.0698 -0.1490
17151TIP3    H172868   3.545   2.455  15.569  1.1595 -2.4242 -0.6383
17151TIP3    H272869   3.583   2.563  15.470 -1.3112  1.2970  2.1796
17152TIP3   OH272870   4.523   3.241   1.517 -0.2415 -0.0004 -0.2112
17152TIP3    H172871   4.579   3.194   1.456  1.8301  3.2246 -1.0263
17152TIP3    H272872   4.454   3.279   1.463  1.2577  2.3596 -0.6097
17153TIP3   OH272873   1.216   5.080   3.789 -0.5649 -0.1161  0.2515
17153TIP3    H172874   1.141   5.020   3.798 -0.7336 -0.0481 -0.6183
17153TIP3    H272875   1.215   5.131   3.870 -1.1747 -0.4478  0.4633
17154TIP3   OH272876   4.659   4.248  13.777 -0.2012  0.1822 -0.1108
17154TIP3    H172877   4.745   4.281  13.751 -0.5253  0.1179 -1.3275
17154TIP3    H272878   4.659   4.157  13.749 -1.3356  0.6822 -1.9094
17155TIP3   OH272879   2.954   4.737   4.131 -0.2632 -0.8209 -0.2982
17155TIP3    H172880   2.962   4.661   4.188  1.6585 -0.2087  0.3233
17155TIP3    H272881   3.032   4.732   4.075 -1.0760 -0.2989 -1.5172
17156TIP3   OH272882   0.178   0.108  14.128  0.9565  0.6252  0.0812
17156TIP3    H172883   0.244   0.118  14.196  0.5307  1.6359  0.3723
17156TIP3    H272884   0.217   0.149  14.050  1.0142  0.4502  0.0183
17157TIP3   OH272885   4.656   4.500   4.708 -0.6784 -0.0712 -0.4720
17157TIP3    H172886   4.566   4.469   4.712 -0.3051 -1.2688 -1.0562
17157TIP3    H272887   4.696   4.468   4.789 -0.4830 -0.4763 -0.7315
17158TIP3   OH272888   1.657   4.173  16.660 -0.1933 -0.0175 -0.1325
17158TIP3    H172889   1.711   4.120  16.719  0.9690  1.3056  0.0336
17158TIP3    H272890   1.715   4.195  16.587  0.5233  3.7479  1.3528
17159TIP3   OH272891   1.486   5.644   3.887 -0.2458  0.6180  0.0582
17159TIP3    H172892   1.497   5.552   3.913 -1.8049  1.1927  3.1747
17159TIP3    H272893   1.571   5.668   3.850  0.2981 -1.9657 -0.5920
17160TIP3   OH272894   1.004   3.942  11.826 -0.2225  0.6551  0.3692
17160TIP3    H172895   1.020   4.029  11.789 -1.4499  1.7966  2.3731
17160TIP3    H272896   1.083   3.892  11.803  0.5518  2.2970 -0.7580
17161TIP3   OH272897   4.183   6.518  11.280 -0.4204  0.4374  0.3592
17161TIP3    H172898   4.184   6.467  11.199 -0.9155  1.6410 -0.4375
17161TIP3    H272899   4.183   6.453  11.350  1.9200 -0.6416 -0.5562
17162TIP3   OH272900   1.173   5.980   1.925 -0.7727 -0.1496  0.4831
17162TIP3    H172901   1.180   6.061   1.874 -1.8635  0.3953  1.1563
17162TIP3    H272902   1.214   6.002   2.009 -1.9246  0.0308  1.0124
17163TIP3   OH272903   2.128   0.327   1.420 -0.2410  0.1161 -0.2246
17163TIP3    H172904   2.071   0.264   1.465  0.2770  0.4448  0.9204
17163TIP3    H272905   2.079   0.409   1.423  1.6418  1.3267  3.9683
17164TIP3   OH272906   3.763   3.763  15.187 -0.3549  0.3455 -0.3260
17164TIP3    H172907   3.671   3.787  15.172 -0.9386 -1.5097  0.0678
17164TIP3    H272908   3.769   3.672  15.161  1.4816  0.5152 -0.6317
17165TIP3   OH272909   4.580   6.123   3.244 -0.2518 -0.0782  0.1047
17165TIP3    H172910   4.586   6.053   3.178 -0.7726 -0.1827  0.1588
17165TIP3    H272911   4.516   6.184   3.207 -1.5171 -0.7675  1.0602
17166TIP3   OH272912   3.938   0.749  11.718  0.1500 -0.0808 -0.3775
17166TIP3    H172913   3.976   0.792  11.641  1.7486  3.9740  2.3033
17166TIP3    H272914   3.853   0.790  11.729 -1.3645 -2.7289 -1.4131
17167TIP3   OH272915   3.212   4.241   5.067  0.3421  0.1443 -0.3305
17167TIP3    H172916   3.272   4.193   5.010  0.5622  0.1840 -0.1342
17167TIP3    H272917   3.224   4.333   5.043  0.7065  0.1938  0.0351
17168TIP3   OH272918   6.155   6.456  11.926 -0.2518 -0.7946  0.3872
17168TIP3    H172919   6.091   6.524  11.949  0.0679 -0.4385  0.2454
17168TIP3    H272920   6.206   6.443  12.006 -0.3032 -0.8563  0.4092
17169TIP3   OH272921   5.638   6.646  16.064  0.0436  0.3376  0.1442
17169TIP3    H172922   5.568   6.629  16.127  0.3831 -0.3693  0.3367
17169TIP3    H272923   5.701   6.576  16.078  0.7121  0.8720 -0.1491
17170TIP3   OH272924   0.788   5.385  16.287 -0.1592 -0.4984 -0.0045
17170TIP3    H172925   0.822   5.325  16.220 -0.8341 -3.5052  2.1507
17170TIP3    H272926   0.813   5.345  16.370 -3.0137  0.7441  1.5936
17171TIP3   OH272927   5.532   0.754  15.107  0.8320 -0.4395  0.8001
17171TIP3    H172928   5.587   0.697  15.161  0.8024 -0.8090  0.4524
17171TIP3    H272929   5.578   0.759  15.023 -0.0426 -1.4122  0.2275
17172TIP3   OH272930   4.356   2.524  16.160  0.3915 -0.3333 -0.3285
17172TIP3    H172931   4.277   2.471  16.153 -1.7686  2.6809 -0.4026
17172TIP3    H272932   4.393   2.525  16.072 -0.4821 -0.3387 -0.7014
17173TIP3   OH272933   4.247   5.807  14.108 -0.0151  0.4748 -0.2465
17173TIP3    H172934   4.167   5.760  14.087 -1.3455  1.3185  2.4919
17173TIP3    H272935   4.224   5.900  14.101  1.8498  0.8268 -3.0694
17174TIP3   OH272936   5.955   3.273  11.722 -0.0587 -0.6489 -0.3459
17174TIP3    H172937   5.995   3.315  11.646 -0.2175 -1.8709 -1.1287
17174TIP3    H272938   5.982   3.328  11.796 -0.3018  0.8467 -1.3119
17175TIP3   OH272939   0.977   2.844   3.271 -0.0122 -0.0260 -0.5225
17175TIP3    H172940   0.931   2.800   3.199  0.5806  0.2031 -1.0512
17175TIP3    H272941   0.923   2.921   3.289  0.1500  0.2439 -1.1464
17176TIP3   OH272942   5.906   3.126   4.737 -0.0306  0.2283  0.2121
17176TIP3    H172943   5.984   3.087   4.775 -0.0858  1.0294  1.1842
17176TIP3    H272944   5.914   3.220   4.757 -1.0601  0.3711  0.0104
17177TIP3   OH272945   1.056   2.686   2.507  0.0034  0.1988 -0.1769
17177TIP3    H172946   1.034   2.664   2.598  2.4597  1.6281  0.8649
17177TIP3    H272947   1.021   2.774   2.496  0.4200  0.3440 -0.3344
17178TIP3   OH272948   5.552   2.130  14.126  0.1195  0.1206 -0.7060
17178TIP3    H172949   5.646   2.133  14.112 -0.1133 -1.1975 -2.8164
17178TIP3    H272950   5.533   2.039  14.150 -0.7892 -0.0463 -1.9518
17179TIP3   OH272951   6.110   2.739  11.897 -0.0064 -0.4563 -0.0016
17179TIP3    H172952   6.098   2.784  11.981 -0.1577 -0.6594  0.0876
17179TIP3    H272953   6.077   2.800  11.832  0.3795 -0.1792  0.0589
17180TIP3   OH272954   1.939   1.254  13.282  0.0064 -0.4566 -0.0720
17180TIP3    H172955   1.974   1.165  13.285 -0.4685 -0.7063 -1.3381
17180TIP3    H272956   1.866   1.249  13.220  0.1988  0.8852 -0.4385
17181TIP3   OH272957   5.590   3.086   2.764 -0.5992 -0.1162 -0.1279
17181TIP3    H172958   5.510   3.057   2.808 -0.1739 -1.4263 -0.1947
17181TIP3    H272959   5.571   3.076   2.671 -0.4750 -0.0772 -0.1569
17182TIP3   OH272960   5.431   5.136  12.129  0.0311 -0.1978 -0.3705
17182TIP3    H172961   5.420   5.165  12.220 -2.4436  0.5780 -0.8573
17182TIP3    H272962   5.513   5.176  12.101  1.0132 -0.7244  1.5981
17183TIP3   OH272963   0.284   1.802  13.864  0.8996 -0.0980 -0.0388
17183TIP3    H172964   0.248   1.889  13.848  2.3182  0.6102  0.3919
17183TIP3    H272965   0.211   1.742  13.851 -0.2403  1.2027  0.2087
17184TIP3   OH272966   0.608   5.519  15.363  0.2854 -0.1715 -0.5088
17184TIP3    H172967   0.689   5.469  15.367  0.6723  0.4636 -0.2735
17184TIP3    H272968   0.589   5.541  15.454 -1.0842 -1.7709 -0.3587
17185TIP3   OH272969   6.623   2.684  15.719 -0.9608  0.5413  0.0216
17185TIP3    H172970   6.629   2.755  15.656  0.1731 -0.8935 -1.5987
17185TIP3    H272971   6.703   2.690  15.770 -0.9911  0.5902  0.0630
17186TIP3   OH272972   0.693   2.207  15.858 -0.1465 -0.1845 -0.4739
17186TIP3    H172973   0.687   2.255  15.940  1.0346  1.8487 -1.5002
17186TIP3    H272974   0.634   2.253  15.798  2.1708  1.1387 -1.9273
17187TIP3   OH272975   1.775   1.085  16.451  0.3613  0.0317 -0.0926
17187TIP3    H172976   1.806   1.172  16.475  2.7153 -0.9341  0.6730
17187TIP3    H272977   1.746   1.047  16.533 -0.1073 -0.1224 -0.3281
17188TIP3   OH272978   4.652   4.442  17.111  0.1494  0.0078 -0.2568
17188TIP3    H172979   4.704   4.362  17.110 -1.2721 -0.9723  0.3268
17188TIP3    H272980   4.644   4.467  17.019  2.1498  0.5557 -0.3134
17189TIP3   OH272981   5.688   4.213  12.968 -0.4028 -0.1620 -0.0012
17189TIP3    H172982   5.782   4.216  12.949 -0.5656  0.2522 -0.7565
17189TIP3    H272983   5.682   4.228  13.062  0.3856 -1.7632  0.3476
17190TIP3   OH272984   4.294   0.348  12.968 -0.1863 -0.2761 -0.2846
17190TIP3    H172985   4.302   0.360  12.874 -0.4497 -0.7646 -0.3722
17190TIP3    H272986   4.343   0.421  13.006 -0.4203  0.1573 -0.7977
17191TIP3   OH272987   3.228   3.376  13.656  0.5877 -0.1504 -0.8723
17191TIP3    H172988   3.226   3.371  13.752  1.9542  1.5154 -0.7164
17191TIP3    H272989   3.136   3.377  13.631  0.1963 -1.1273  0.3589
17192TIP3   OH272990   5.971   2.839   3.681 -0.3043 -0.2058 -0.4299
17192TIP3    H172991   6.046   2.854   3.738 -0.7206  0.1999  0.0155
17192TIP3    H272992   5.972   2.745   3.664  0.6224 -0.1281 -0.8761
17193TIP3   OH272993   4.976   0.188   3.407  0.2784 -0.0702 -0.0393
17193TIP3    H172994   5.020   0.105   3.427  1.3903  0.6490  0.5505
17193TIP3    H272995   5.033   0.231   3.343 -0.6430 -0.0396 -0.8828
17194TIP3   OH272996   0.914   4.931   3.666  0.1037 -0.4085 -0.0375
17194TIP3    H172997   0.894   4.894   3.581  0.5412  1.2251 -0.8895
17194TIP3    H272998   0.894   5.024   3.658  0.8746 -0.0747  1.4015
17195TIP3   OH272999   3.449   0.516  13.783 -0.1071 -0.2513 -0.2313
17195TIP3    H173000   3.513   0.482  13.720 -1.4125 -1.9449 -0.7122
17195TIP3    H273001   3.399   0.440  13.810 -0.4257  0.6374  1.9440
17196TIP3   OH273002   1.662   2.021  15.688  0.3367  0.6336 -0.5286
17196TIP3    H173003   1.585   2.077  15.693  1.5020  2.2505  0.5329
17196TIP3    H273004   1.662   1.971  15.770 -1.0705 -1.5618 -1.7607
17197TIP3   OH273005   3.012   5.187   2.425  0.6332  0.1315  0.5987
17197TIP3    H173006   2.942   5.182   2.360  0.3721  0.8263  0.8271
17197TIP3    H273007   3.072   5.116   2.400 -0.1167 -0.4340  0.3692
17198TIP3   OH273008   4.256   4.167   2.263  0.5569  0.3623 -0.4329
17198TIP3    H173009   4.232   4.118   2.185  0.7871 -1.2559  0.4769
17198TIP3    H273010   4.190   4.144   2.328 -0.3485  2.6260 -0.4380
17199TIP3   OH273011   0.275   5.134  16.797  0.0629 -0.0495  0.0090
17199TIP3    H173012   0.256   5.094  16.712  0.4365  1.7898 -0.9895
17199TIP3    H273013   0.257   5.065  16.860 -0.5350 -1.3755 -1.5357
17200TIP3   OH273014   6.670   4.668   2.439  0.4332 -0.1878  0.1242
17200TIP3    H173015   6.626   4.635   2.517  0.3572 -1.3927 -0.3988
17200TIP3    H273016   6.679   4.591   2.383  2.0044  0.3005 -0.3484
17201TIP3   OH273017   2.772   1.080   2.459  0.1023  0.0327 -0.7416
17201TIP3    H173018   2.830   1.004   2.473 -0.1955 -0.2431 -0.9987
17201TIP3    H273019   2.718   1.083   2.538 -1.1158 -1.1201 -1.4747
17202TIP3   OH273020   6.636   4.018  14.204 -0.7331 -0.1378 -0.2357
17202TIP3    H173021   6.720   3.978  14.226  0.0236  1.5305  0.0737
17202TIP3    H273022   6.576   3.944  14.195  0.3540 -1.2674  1.2475
17203TIP3   OH273023   2.441   0.098  14.514  0.0175  0.5739 -0.2065
17203TIP3    H173024   2.436   0.193  14.501 -1.9187  0.6734  0.8535
17203TIP3    H273025   2.387   0.082  14.592 -2.2088 -1.7040 -2.0545
17204TIP3   OH273026   2.747   5.183  13.781 -0.3500 -0.0018  0.5761
17204TIP3    H173027   2.744   5.220  13.869  0.4817  0.8845  0.2493
17204TIP3    H273028   2.825   5.222  13.741 -0.7813 -0.2973 -0.5953
17205TIP3   OH273029   0.632   5.302   3.513 -0.2854 -0.0832 -0.2894
17205TIP3    H173030   0.716   5.346   3.526  0.0554 -0.0774 -2.1979
17205TIP3    H273031   0.655   5.210   3.502 -0.6680 -0.2647  0.3708
17206TIP3   OH273032   6.181   5.985  15.184  0.1432  0.3695 -0.4716
17206TIP3    H173033   6.239   6.057  15.208 -0.1433  0.0977  1.1434
17206TIP3    H273034   6.102   6.027  15.150  0.1221  0.7997  0.1084
17207TIP3   OH273035   0.215   3.931  16.744  0.0247 -0.1525 -0.3264
17207TIP3    H173036   0.133   3.903  16.704  0.4283  0.0068 -1.3137
17207TIP3    H273037   0.190   3.974  16.825 -0.9055  0.3459 -0.8639
17208TIP3   OH273038   0.098   1.725  16.715  0.8488 -0.2331 -0.3392
17208TIP3    H173039   0.162   1.776  16.665 -0.5419  0.4391 -1.5053
17208TIP3    H273040   0.019   1.778  16.715  0.2034 -1.1396  0.8869
17209TIP3   OH273041   5.710   2.624   6.472  0.0784 -0.1200  0.1576
17209TIP3    H173042   5.623   2.632   6.434 -0.3303  0.4598  1.1810
17209TIP3    H273043   5.765   2.679   6.417 -0.6234  1.2041  0.7419
17210TIP3   OH273044   2.788   0.252   4.900 -0.2274 -0.0649 -0.3283
17210TIP3    H173045   2.857   0.278   4.960 -1.2651  0.6384  0.5938
17210TIP3    H273046   2.827   0.262   4.813  0.7000  0.7026  0.1606
17211TIP3   OH273047   0.009   1.663   0.405  0.3494 -0.6555 -0.0474
17211TIP3    H173048   0.078   1.651   0.341 -1.3963 -2.9689 -1.6691
17211TIP3    H273049   0.017   1.587   0.464 -1.7251 -1.9467 -1.2951
17212TIP3   OH273050   5.462   0.306   0.663  0.5964  0.0659  0.6772
17212TIP3    H173051   5.382   0.341   0.704  0.9246  0.4478  1.0041
17212TIP3    H273052   5.500   0.380   0.617  2.0626  0.5775  2.5597
17213TIP3   OH273053   2.750   6.271  10.989  0.5649 -0.2576 -0.4024
17213TIP3    H173054   2.810   6.340  10.958 -1.0748  0.0973 -3.1134
17213TIP3    H273055   2.664   6.313  10.988 -0.0524 -1.4341  1.1410
17214TIP3   OH273056   0.015   3.915   0.261  0.2200  0.4087  0.0132
17214TIP3    H173057   0.111   3.922   0.264  0.6672  0.3879 -5.0091
17214TIP3    H273058  -0.017   4.003   0.278  1.2857  0.7849  0.1284
17215TIP3   OH273059   6.756   3.377   0.190 -0.4878 -0.1538  0.1432
17215TIP3    H173060   6.734   3.427   0.269  1.3265  0.6916  0.1522
17215TIP3    H273061   6.799   3.441   0.132 -0.7154 -1.0412 -1.0495
17216TIP3   OH273062   5.262   0.533   1.084  0.1098 -0.4279  0.2940
17216TIP3    H173063   5.212   0.482   1.147 -0.2544 -0.3590  0.0647
17216TIP3    H273064   5.352   0.504   1.095  0.1886  0.2529  1.5032
17217TIP3   OH273065   1.392   0.461   0.805 -0.2849  0.2402  0.1696
17217TIP3    H173066   1.340   0.381   0.811 -0.1606  0.2286  1.2390
17217TIP3    H273067   1.387   0.486   0.713 -2.1828  0.2344  0.2342
17218TIP3   OH273068   0.734   5.607  17.060 -0.1065  0.2578 -0.0861
17218TIP3    H173069   0.660   5.635  17.114 -1.4755 -1.9194 -0.6948
17218TIP3    H273070   0.695   5.584  16.976  1.1206 -1.6263 -0.2075
17219TIP3   OH273071   6.078   4.718   3.322 -0.3749  1.0754  0.3788
17219TIP3    H173072   6.153   4.669   3.357 -0.1802  0.8245 -0.3769
17219TIP3    H273073   6.103   4.810   3.332 -0.3815  1.0093  1.0238
17220TIP3   OH273074   1.806   1.109  12.556  0.5399  0.3011  0.3959
17220TIP3    H173075   1.844   1.197  12.556 -2.6098  1.8013  0.2220
17220TIP3    H273076   1.751   1.107  12.634  1.3424 -1.9872  0.9979
17221TIP3   OH273077   3.336   1.536   2.731  0.2140 -0.6557 -0.1915
17221TIP3    H173078   3.371   1.518   2.644  1.3879  0.6862 -0.0231
17221TIP3    H273079   3.388   1.482   2.790 -1.2700 -2.3801 -0.3618
17222TIP3   OH273080   0.245   3.154   5.809  0.0176  0.8323  0.5126
17222TIP3    H173081   0.324   3.108   5.783 -0.6807 -0.2499  0.2284
17222TIP3    H273082   0.218   3.112   5.891 -0.1345  1.3426  0.7288
17223TIP3   OH273083   0.601   0.345   0.334 -0.0577 -1.0861 -0.4046
17223TIP3    H173084   0.648   0.262   0.345 -0.0379 -0.9136  0.9326
17223TIP3    H273085   0.660   0.398   0.280  1.6709 -0.6380  1.7645
17224TIP3   OH273086   3.946   5.051   5.837 -0.4803  0.1440  0.1563
17224TIP3    H173087   3.975   5.012   5.755  1.0931  2.1681 -0.3084
17224TIP3    H273088   3.913   5.137   5.813 -1.2781  0.2408  1.4977
17225TIP3   OH273089   4.981   5.026  12.757  0.8223  0.6480  0.2858
17225TIP3    H173090   4.960   5.110  12.798 -0.5498  0.2027  0.5286
17225TIP3    H273091   4.934   5.027  12.674  2.9759  1.2213 -1.0230
17226TIP3   OH273092   4.710   2.348   6.013  0.2773  0.5194  0.4221
17226TIP3    H173093   4.639   2.352   5.948 -0.3486 -0.9179  0.9723
17226TIP3    H273094   4.712   2.435   6.052  1.4064  1.8146 -2.2414
17227TIP3   OH273095   1.996   1.336   4.773  0.4869 -0.1840  0.0562
17227TIP3    H173096   2.009   1.246   4.745 -0.7216 -0.7656  1.2601
17227TIP3    H273097   1.903   1.352   4.757 -0.1670 -0.3639  3.0787
17228TIP3   OH273098   2.952   6.499  15.432  0.1038 -0.1675 -0.2476
17228TIP3    H173099   2.953   6.504  15.528  0.6786  0.1453 -0.2634
17228TIP3    H273100   3.019   6.433  15.412 -0.5050 -0.7401 -0.4091
17229TIP3   OH273101   2.042   3.419  15.493 -0.3111  0.3751  0.4095
17229TIP3    H173102   2.109   3.382  15.551 -1.9169 -3.5051  0.1072
17229TIP3    H273103   1.961   3.417  15.545 -1.3515 -1.1310 -1.1375
17230TIP3   OH273104   0.514   4.333   5.858  0.0911 -0.4193  0.2007
17230TIP3    H173105   0.547   4.244   5.874  0.1873 -0.7833 -1.7555
17230TIP3    H273106   0.593   4.384   5.840 -0.0676 -0.2776 -0.0948
17231TIP3   OH273107   4.967   6.492   3.954 -0.1972 -0.2967 -0.1260
17231TIP3    H173108   5.060   6.478   3.973  0.0801  1.4753 -0.0777
17231TIP3    H273109   4.932   6.533   4.033 -0.3237  1.8363 -1.2454
17232TIP3   OH273110   2.666   4.141  17.029  0.4370  0.4977 -0.5181
17232TIP3    H173111   2.672   4.190  16.947  0.2753  0.3778 -0.6008
17232TIP3    H273112   2.729   4.069  17.019  0.3795  0.4532 -0.5573
17233TIP3   OH273113   5.913   5.013   6.742 -0.1837 -0.1911  0.5306
17233TIP3    H173114   5.890   4.920   6.736 -0.3197 -0.1344  0.1380
17233TIP3    H273115   5.838   5.053   6.786 -0.6406 -0.0871 -0.3135
17234TIP3   OH273116   4.515   4.945  16.001  0.0148 -0.0540 -0.3149
17234TIP3    H173117   4.580   5.001  16.042 -0.6441 -0.1593  0.9353
17234TIP3    H273118   4.434   4.963  16.049 -0.2373 -1.9735  0.0805
17235TIP3   OH273119   0.425   1.918   3.750 -0.1029 -0.2095  0.1037
17235TIP3    H173120   0.374   1.911   3.669 -0.4204 -1.7657  0.4147
17235TIP3    H273121   0.500   1.860   3.737  1.2456  1.4813 -0.0501
17236TIP3   OH273122   6.579   3.435   4.159  0.3419  0.5396  0.9827
17236TIP3    H173123   6.553   3.496   4.227 -0.2226  0.6815  0.6475
17236TIP3    H273124   6.575   3.349   4.200 -1.0929  0.5144  0.8200
17237TIP3   OH273125   0.834   6.208  11.391  0.1112  0.1763  0.3067
17237TIP3    H173126   0.806   6.162  11.313 -1.0170  2.2892 -0.6405
17237TIP3    H273127   0.768   6.187  11.457 -0.6046  0.6797 -0.2314
17238TIP3   OH273128   0.197   0.220  13.397  0.1546 -0.1608 -0.0711
17238TIP3    H173129   0.122   0.277  13.409  0.1385 -0.1677 -0.1393
17238TIP3    H273130   0.258   0.246  13.466  0.7605  0.9329 -0.9910
17239TIP3   OH273131   0.514   0.352  11.140  0.3639 -0.3415 -0.5956
17239TIP3    H173132   0.586   0.356  11.204 -0.8426 -0.8615  0.8607
17239TIP3    H273133   0.485   0.261  11.143 -0.4103 -0.1182 -1.1014
17240TIP3   OH273134   4.494   0.586   4.147  0.3382 -0.0232  0.2836
17240TIP3    H173135   4.588   0.585   4.165  0.0711 -1.5244  1.8819
17240TIP3    H273136   4.454   0.610   4.231 -0.7269  0.1970 -0.2710
17241TIP3   OH273137   1.445   6.556  11.889  0.2109 -0.5933 -0.2519
17241TIP3    H173138   1.517   6.599  11.933 -1.1879 -1.5261  3.2471
17241TIP3    H273139   1.367   6.603  11.917 -1.0131 -3.0274  0.7684
17242TIP3   OH273140   1.475   5.368   3.916 -0.0605 -0.3208 -0.0690
17242TIP3    H173141   1.445   5.333   4.000  2.3736 -0.1604  0.9737
17242TIP3    H273142   1.495   5.290   3.864 -5.3819 -0.6213 -2.2890
17243TIP3   OH273143   1.268   1.954   4.511  0.1351  0.4931 -0.1487
17243TIP3    H173144   1.345   1.901   4.532  0.0043  0.8037  1.2057
17243TIP3    H273145   1.268   1.960   4.416  2.3273  1.2583 -0.1676
17244TIP3   OH273146   4.237   1.992  15.119  0.0753 -0.3923  0.2787
17244TIP3    H173147   4.164   2.051  15.100 -0.1920 -0.3119  1.5195
17244TIP3    H273148   4.205   1.905  15.093  0.1277 -0.1451 -0.6570
17245TIP3   OH273149   0.253   4.936  16.950 -0.5746  0.5547  0.0776
17245TIP3    H173150   0.316   4.956  17.019 -0.5181 -0.3472  0.2938
17245TIP3    H273151   0.207   4.858  16.981 -0.9220  0.4622 -0.6547
17246TIP3   OH273152   0.146   6.111  12.989  0.2564 -0.6853 -0.0135
17246TIP3    H173153   0.136   6.192  12.938 -0.9716 -0.5981  0.3517
17246TIP3    H273154   0.185   6.049  12.926  1.9682  0.3778 -0.0792
17247TIP3   OH273155   1.913   4.036  14.897 -0.0815  0.2388 -0.3818
17247TIP3    H173156   2.002   4.058  14.869  0.1740  0.7833  0.8073
17247TIP3    H273157   1.863   4.029  14.816  1.2803 -1.1856 -1.1477
17248TIP3   OH273158   0.871   5.958   1.850  0.5304  0.5514 -0.0842
17248TIP3    H173159   0.888   5.945   1.757 -0.4190 -0.1021 -0.1804
17248TIP3    H273160   0.957   5.953   1.891  0.9226  0.5325 -0.8908
17249TIP3   OH273161   3.228   0.749   2.489  0.7049 -0.1447  0.2815
17249TIP3    H173162   3.225   0.774   2.581 -1.1978  0.2472  0.1438
17249TIP3    H273163   3.158   0.799   2.448  0.9981 -0.9271 -1.2339
17250TIP3   OH273164   0.877   0.601   3.610  0.0013 -0.0496  0.6440
17250TIP3    H173165   0.961   0.590   3.566  1.4644  4.7151  1.6485
17250TIP3    H273166   0.817   0.630   3.541  0.2971  0.3844  0.5683
17251TIP3   OH273167   4.662   3.158  10.962 -0.4249 -0.0440 -0.2966
17251TIP3    H173168   4.658   3.230  10.899  0.1391  1.1119  0.9406
17251TIP3    H273169   4.592   3.177  11.024  0.0096 -0.3201  0.2861
17252TIP3   OH273170   3.580   1.113   0.022 -0.0745 -0.0453 -0.4944
17252TIP3    H173171   3.498   1.068   0.004 -0.9310  1.1907  0.1413
17252TIP3    H273172   3.560   1.206   0.009  1.1965  0.2962 -0.2062
17253TIP3   OH273173   4.112   3.657  14.534 -0.9805  0.1828  0.0488
17253TIP3    H173174   4.200   3.686  14.512 -0.9201 -0.2445 -0.3019
17253TIP3    H273175   4.119   3.626  14.624 -0.9211  0.7269  0.2345
17254TIP3   OH273176   1.105   5.311   4.263 -0.2597  0.1502 -1.0320
17254TIP3    H173177   1.175   5.352   4.313 -0.5801  0.7273 -1.0404
17254TIP3    H273178   1.030   5.370   4.274 -0.3726  0.2305 -2.0751
17255TIP3   OH273179   3.153   6.476  11.953  0.3468  0.0592 -0.6130
17255TIP3    H173180   3.125   6.389  11.923  0.8758 -0.5896  0.7118
17255TIP3    H273181   3.145   6.472  12.048 -1.1256  1.9998 -0.5934
17256TIP3   OH273182   1.627   2.948   3.312 -0.3327  0.3991  0.3562
17256TIP3    H173183   1.663   3.006   3.244  0.9034 -0.0622  0.5945
17256TIP3    H273184   1.687   2.958   3.386  0.7064 -2.1843 -0.0565
17257TIP3   OH273185   3.705   3.616   3.980  0.7619 -0.9339 -0.2077
17257TIP3    H173186   3.715   3.690   3.921  0.0938 -1.9503 -1.6374
17257TIP3    H273187   3.639   3.644   4.044  1.5445  0.1951  0.1372
17258TIP3   OH273188   0.282   4.499   5.880 -0.0377 -0.3173  0.4016
17258TIP3    H173189   0.261   4.484   5.787  0.7935  1.3000 -0.0878
17258TIP3    H273190   0.359   4.444   5.896  0.4075  0.1259 -0.1595
17259TIP3   OH273191   1.334   2.691  15.299  0.0185  0.0653 -0.2857
17259TIP3    H173192   1.400   2.664  15.234  0.5640  0.0440  0.2662
17259TIP3    H273193   1.352   2.784  15.312 -0.7705  0.3200 -0.9328
17260TIP3   OH273194   6.510   3.947  11.321  0.1845  0.3780 -0.3912
17260TIP3    H173195   6.578   3.987  11.377 -0.0926 -0.0323  0.2562
17260TIP3    H273196   6.558   3.884  11.267  0.5306  1.1326 -0.9823
17261TIP3   OH273197   5.440   3.547   0.489  0.7090 -0.4987 -0.0548
17261TIP3    H173198   5.396   3.604   0.551  1.1553  0.9387 -1.0196
17261TIP3    H273199   5.421   3.458   0.520  2.4714  0.1444  3.1956
17262TIP3   OH273200   1.826   1.095   3.033 -0.2616 -0.6564 -0.7691
17262TIP3    H173201   1.914   1.059   3.018  1.2469  1.5522  1.7516
17262TIP3    H273202   1.822   1.171   2.975  1.3769  1.7604  2.0183
17263TIP3   OH273203   2.529   5.515  12.720  0.2746  0.5762  0.2387
17263TIP3    H173204   2.574   5.432  12.704 -0.3708  0.3033 -0.1992
17263TIP3    H273205   2.449   5.490  12.766  0.2430  0.9993  0.4180
17264TIP3   OH273206   2.062   4.683   5.117  0.5772 -0.3450 -0.3328
17264TIP3    H173207   2.149   4.652   5.090  1.2019  0.1110  1.0560
17264TIP3    H273208   2.050   4.764   5.068  0.7007 -0.6840 -0.9354
17265TIP3   OH273209   1.059   4.194   3.889 -0.3909 -0.4450  0.3122
17265TIP3    H173210   1.098   4.240   3.815 -0.5634  0.0108  0.4963
17265TIP3    H273211   1.000   4.258   3.929 -1.0078 -0.9874  0.2897
17266TIP3   OH273212   0.841   5.875   4.582 -0.0001 -0.5483  0.5079
17266TIP3    H173213   0.777   5.811   4.553  1.3862 -1.8934  0.2622
17266TIP3    H273214   0.798   5.923   4.653 -1.0921 -1.7022  0.6424
17267TIP3   OH273215   3.981   2.735  14.809 -0.2252 -0.5563  0.5047
17267TIP3    H173216   3.977   2.723  14.904 -0.1094 -1.9944  0.3467
17267TIP3    H273217   4.057   2.685  14.781  0.3647  0.7120 -0.2456
17268TIP3   OH273218   4.249   4.824  13.409  0.5921 -0.5191 -0.1351
17268TIP3    H173219   4.202   4.750  13.448 -0.0500  0.0738  0.2388
17268TIP3    H273220   4.300   4.860  13.482 -2.1125  1.8110  0.7920
17269TIP3   OH273221   2.075   0.684  15.087  0.4605 -0.0349  0.2758
17269TIP3    H173222   1.991   0.703  15.129 -0.1553 -1.2556 -0.3395
17269TIP3    H273223   2.066   0.718  14.998  0.0308 -1.4580 -0.2571
17270TIP3   OH273224   2.443   0.648   2.651 -0.2022  0.1262  0.3496
17270TIP3    H173225   2.363   0.636   2.600 -1.1445  0.0459  1.8115
17270TIP3    H273226   2.508   0.594   2.606 -1.4308 -1.2733  0.1789
17271TIP3   OH273227   4.326   6.614  17.143  0.1417  0.4965  0.2610
17271TIP3    H173228   4.327   6.668  17.222  4.1176 -0.2644  0.9340
17271TIP3    H273229   4.410   6.630  17.102 -0.8404 -0.9835 -2.5771
17272TIP3   OH273230   3.413   3.256  15.524 -0.0383 -0.7565 -0.2828
17272TIP3    H173231   3.403   3.341  15.480 -0.9733 -1.0947 -0.7460
17272TIP3    H273232   3.479   3.272  15.591  0.4178  0.1203 -0.9247
17273TIP3   OH273233   5.761   3.847   0.815  0.0567  0.0675 -0.2570
17273TIP3    H173234   5.855   3.850   0.797  0.0525  0.4655 -0.2255
17273TIP3    H273235   5.732   3.764   0.778  0.5878 -0.4891  0.5602
17274TIP3   OH273236   2.427   4.907   5.601  0.2507 -0.0187  0.3139
17274TIP3    H173237   2.343   4.911   5.556  0.1088  0.3907  0.6055
17274TIP3    H273238   2.410   4.854   5.679  0.6054 -1.1073 -0.3323
17275TIP3   OH273239   1.224   6.006   5.693 -0.1100  0.0304  0.1537
17275TIP3    H173240   1.165   5.954   5.748 -1.0014 -0.0225 -0.8315
17275TIP3    H273241   1.304   6.013   5.745 -1.5232  1.5640  2.3085
17276TIP3   OH273242   0.301   3.521  11.240 -0.1178  0.4335  0.1661
17276TIP3    H173243   0.336   3.479  11.318 -0.3438 -0.7060 -0.3217
17276TIP3    H273244   0.339   3.472  11.167 -0.3323  1.1296 -0.4287
17277TIP3   OH273245   3.352   4.848  13.566  0.0551  0.3240 -0.2495
17277TIP3    H173246   3.302   4.785  13.617  1.3553  0.5401  1.3527
17277TIP3    H273247   3.357   4.809  13.479  0.0485 -1.3431  0.4609
17278TIP3   OH273248   4.835   4.746  14.449  0.2041  0.1247  0.1511
17278TIP3    H173249   4.851   4.781  14.537  1.5225  1.5930 -0.6167
17278TIP3    H273250   4.814   4.823  14.396  0.5802 -0.5821 -1.0656
17279TIP3   OH273251   1.198   4.698  14.951  0.0962  0.2614 -0.0287
17279TIP3    H173252   1.174   4.746  15.030 -0.9172 -2.2031  1.2542
17279TIP3    H273253   1.206   4.607  14.979 -1.1285 -0.8489 -2.8847
17280TIP3   OH273254   1.348   0.084  17.132 -0.4345 -0.1965  0.2105
17280TIP3    H173255   1.407   0.087  17.057 -0.8165 -2.1644 -0.2267
17280TIP3    H273256   1.406   0.093  17.208  0.2424 -0.5460 -0.2552
17281TIP3   OH273257   4.202   3.011   6.176 -0.0142  0.6671  0.3345
17281TIP3    H173258   4.163   2.924   6.177 -1.9107  1.4713  0.0275
17281TIP3    H273259   4.227   3.026   6.085  0.0815  0.5505  0.3413
17282TIP3   OH273260   6.649   1.439   1.726  0.5343 -0.4136  0.4102
17282TIP3    H173261   6.728   1.387   1.738  1.2330  0.2292 -1.1416
17282TIP3    H273262   6.681   1.526   1.702 -0.5791  0.9341  3.3385
17283TIP3   OH273263   4.705   1.225  11.512  0.0585  0.1499  0.5398
17283TIP3    H173264   4.715   1.251  11.421 -1.2716 -0.9869  0.0261
17283TIP3    H273265   4.783   1.173  11.531 -0.4817 -1.1525 -0.5681
17284TIP3   OH273266   5.031   1.449  16.836 -0.5147  0.7345  0.1304
17284TIP3    H173267   4.993   1.525  16.791  0.4913  0.2398 -1.6572
17284TIP3    H273268   4.958   1.412  16.885 -1.4709  1.8124 -0.4098
17285TIP3   OH273269   3.522   3.825  15.072 -0.7436 -0.0531  0.1356
17285TIP3    H173270   3.437   3.845  15.035 -0.0910  0.5956 -1.0702
17285TIP3    H273271   3.569   3.780  15.003 -0.4252 -1.2978  1.1215
17286TIP3   OH273272   3.983   2.509   2.669  0.0631 -0.4962 -0.0888
17286TIP3    H173273   4.002   2.591   2.622  0.8545 -0.4408  0.3042
17286TIP3    H273274   3.888   2.509   2.680 -0.0570 -0.1357 -1.0153
17287TIP3   OH273275   1.690   0.594  13.602 -0.0861 -0.2416  0.5462
17287TIP3    H173276   1.630   0.535  13.646 -0.3680  0.0423  0.5509
17287TIP3    H273277   1.643   0.677  13.597  0.8204  0.3759  1.7609
17288TIP3   OH273278   2.991   5.425  13.428 -0.2955  0.7030 -0.1758
17288TIP3    H173279   3.058   5.475  13.381  1.4072 -1.5474 -0.2772
17288TIP3    H273280   2.944   5.377  13.360 -0.0964  0.0438  0.1516
17289TIP3   OH273281   6.338   1.798  12.443  0.2267  0.6938  0.3145
17289TIP3    H173282   6.423   1.756  12.453 -0.6172 -1.4358 -0.7525
17289TIP3    H273283   6.309   1.814  12.533  0.7063 -0.8813  0.7862
17290TIP3   OH273284   1.949   3.489   0.738 -0.4623  0.6064  0.4076
17290TIP3    H173285   1.916   3.570   0.700 -0.7432  0.5038  0.4357
17290TIP3    H273286   1.930   3.421   0.674 -1.2391  0.3777  0.8642
17291TIP3   OH273287   0.790   2.662   2.309 -0.1985  0.0131 -0.2587
17291TIP3    H173288   0.832   2.731   2.361 -4.5889  2.8184  0.1055
17291TIP3    H273289   0.754   2.602   2.374 -0.1899 -0.1074 -0.3657
17292TIP3   OH273290   1.293   0.457   4.233 -0.0411 -0.2674  0.0767
17292TIP3    H173291   1.285   0.552   4.234 -1.2403 -0.3362  1.7039
17292TIP3    H273292   1.203   0.425   4.240  0.3376 -1.5302 -0.4708
17293TIP3   OH273293   1.922   5.981   1.953 -0.3841  0.0173 -0.0048
17293TIP3    H173294   1.902   6.073   1.939 -0.8804 -0.1843 -0.7021
17293TIP3    H273295   1.979   5.957   1.879 -1.0931 -0.4768 -0.4078
17294TIP3   OH273296   0.523   1.667  14.791  0.2398 -0.4479 -0.1157
17294TIP3    H173297   0.617   1.651  14.801  0.9289  1.5037 -2.3808
17294TIP3    H273298   0.514   1.762  14.796 -1.8833 -0.6709  1.5098
17295TIP3   OH273299   5.920   3.696   4.715 -0.3562  0.1906 -0.0179
17295TIP3    H173300   5.849   3.732   4.767 -1.6443 -0.2711 -1.3731
17295TIP3    H273301   5.904   3.729   4.627  0.1122 -1.2587 -0.6862
17296TIP3   OH273302   1.967   3.181  15.608 -0.9027 -0.1435 -0.4072
17296TIP3    H173303   1.918   3.121  15.663 -1.0532  1.0364  0.7934
17296TIP3    H273304   1.918   3.185  15.525 -0.7218 -1.8635 -0.6229
17297TIP3   OH273305   2.677   3.561  13.870  0.5528  0.5962  0.4423
17297TIP3    H173306   2.619   3.620  13.919 -1.3672  0.1862 -1.2147
17297TIP3    H273307   2.652   3.574  13.778 -0.1231 -2.9080 -0.0073
17298TIP3   OH273308   0.114   0.757  17.246  0.0259 -0.0259  0.7503
17298TIP3    H173309   0.209   0.759  17.242 -0.0116  0.6063 -2.3713
17298TIP3    H273310   0.090   0.667  17.221 -0.1576  0.7829 -2.3145
17299TIP3   OH273311   5.091   1.440  11.775  0.3880  0.5770  0.1115
17299TIP3    H173312   4.995   1.449  11.774  0.5352  2.5356 -0.9194
17299TIP3    H273313   5.108   1.360  11.725 -0.6683  1.0892 -1.1371
17300TIP3   OH273314   1.696   4.429   3.774  0.0515  0.5698 -0.6009
17300TIP3    H173315   1.746   4.351   3.797 -0.7747  0.0347 -0.5679
17300TIP3    H273316   1.624   4.431   3.837  0.3646  1.6765 -0.2493
17301TIP3   OH273317   1.298   6.609   0.691  0.6150 -0.2471  0.4410
17301TIP3    H173318   1.279   6.585   0.781  2.4620  1.6866  1.4567
17301TIP3    H273319   1.349   6.536   0.656 -1.0859 -1.5338  0.5012
17302TIP3   OH273320   5.255   3.930  14.886  0.0941  0.3573  0.2611
17302TIP3    H173321   5.297   3.963  14.806  1.8069  1.2233  1.4743
17302TIP3    H273322   5.167   3.966  14.883  0.1197  0.3812 -1.2162
17303TIP3   OH273323   2.280   4.854  14.520 -0.2626  0.5350  0.4197
17303TIP3    H173324   2.298   4.800  14.598  1.9966  0.1511 -0.2735
17303TIP3    H273325   2.366   4.867  14.481 -1.3499  0.5020 -2.1751
17304TIP3   OH273326   2.693   3.964  16.274 -0.0658 -0.0617 -0.1824
17304TIP3    H173327   2.652   4.046  16.300  0.2342  0.1705 -0.4260
17304TIP3    H273328   2.750   3.988  16.201 -1.7401 -0.8855 -1.8256
17305TIP3   OH273329   4.575   0.619  13.626  0.5010 -0.5296  0.1940
17305TIP3    H173330   4.573   0.571  13.708 -0.7247  0.0326  0.5170
17305TIP3    H273331   4.530   0.701  13.645  1.0658  0.0300 -0.7867
17306TIP3   OH273332   1.371   1.314   0.853  0.4223 -0.4295 -0.0094
17306TIP3    H173333   1.338   1.258   0.923 -0.2737  0.4679  0.3995
17306TIP3    H273334   1.456   1.276   0.830 -0.6157 -2.4776 -0.7174
17307TIP3   OH273335   5.025   1.775   4.388  0.5893  0.2831 -0.1089
17307TIP3    H173336   5.070   1.765   4.472 -0.1010 -0.3228  0.2065
17307TIP3    H273337   4.958   1.841   4.405 -0.3545 -0.7056  0.1907
17308TIP3   OH273338   6.305   5.450  13.573 -0.2763  0.9015 -0.5746
17308TIP3    H173339   6.259   5.464  13.656  1.2021  2.1001  0.0773
17308TIP3    H273340   6.384   5.502  13.580  1.5549 -1.5933 -1.3848
17309TIP3   OH273341   4.168   2.825   3.235  0.4081 -0.0679 -0.0340
17309TIP3    H173342   4.199   2.915   3.242  2.0518 -0.3372 -2.4046
17309TIP3    H273343   4.217   2.777   3.302  0.1594  0.6280  0.6606
17310TIP3   OH273344   6.565   5.927   2.715 -0.4751  0.1186 -0.1583
17310TIP3    H173345   6.650   5.911   2.756 -1.7921 -0.3333  2.6403
17310TIP3    H273346   6.524   5.841   2.713 -1.8076  0.6987  0.8985
17311TIP3   OH273347   6.715   2.987  16.422  0.5323 -0.3748 -0.5561
17311TIP3    H173348   6.651   2.917  16.411  0.2782 -0.0330 -1.3182
17311TIP3    H273349   6.663   3.065  16.443  0.6756 -0.0662 -1.3132
17312TIP3   OH273350   4.695   3.245   0.543  0.0389 -0.5590 -0.3066
17312TIP3    H173351   4.700   3.248   0.447 -0.6035 -0.0954 -0.3371
17312TIP3    H273352   4.711   3.336   0.570  2.7516 -1.1086  0.1889
17313TIP3   OH273353   4.800   5.589   6.140 -0.2240 -0.3059  0.1371
17313TIP3    H173354   4.825   5.646   6.068 -0.3129 -0.5336 -0.0753
17313TIP3    H273355   4.837   5.631   6.218  1.1685 -0.8506 -0.2075
17314TIP3   OH273356   3.637   1.986   1.700 -0.4834  0.4966 -0.6510
17314TIP3    H173357   3.617   1.915   1.639  0.6565 -1.4546  1.1258
17314TIP3    H273358   3.624   1.948   1.787 -0.2545  2.6154  0.3825
17315TIP3   OH273359   0.584   5.442  15.616  0.1063  0.3087 -0.3236
17315TIP3    H173360   0.552   5.443  15.706  2.7665 -0.5665  0.7259
17315TIP3    H273361   0.558   5.356  15.582  0.1684  0.1387  0.0557
17316TIP3   OH273362   4.791   4.909  13.848 -0.2751 -0.5246 -0.2845
17316TIP3    H173363   4.810   4.861  13.767  2.9674  0.0185  0.0322
17316TIP3    H273364   4.792   5.001  13.822  3.4570 -0.1561  0.6452
17317TIP3   OH273365   6.618   5.675  11.177 -0.4043  0.4122 -0.6761
17317TIP3    H173366   6.560   5.607  11.211 -0.6844  1.5884  1.3962
17317TIP3    H273367   6.700   5.662  11.223 -0.2982  1.1415 -0.6393
17318TIP3   OH273368   3.221   0.223  14.555 -0.1938  0.2760  0.7227
17318TIP3    H173369   3.152   0.167  14.521  0.9609 -1.2523  0.7651
17318TIP3    H273370   3.213   0.305  14.506 -0.6275 -0.6813 -0.8619
17319TIP3   OH273371   4.375   4.763  16.322  0.2807 -0.8407  0.6948
17319TIP3    H173372   4.300   4.820  16.342  0.2104 -0.8167  0.3725
17319TIP3    H273373   4.451   4.812  16.353  0.2669 -0.3350 -0.0520
17320TIP3   OH273374   0.474   3.609  16.266  0.1953 -0.0328 -0.1125
17320TIP3    H173375   0.510   3.688  16.307  3.1756 -0.6575 -1.2089
17320TIP3    H273376   0.475   3.543  16.336 -0.6103  0.4460  0.3539
17321TIP3   OH273377   5.457   4.867  12.152 -0.5264  0.2644  0.4184
17321TIP3    H173378   5.449   4.832  12.241  2.7565 -2.2001 -0.0961
17321TIP3    H273379   5.430   4.959  12.160 -2.1373 -0.3547  3.5077
17322TIP3   OH273380   5.767   1.591   0.435  0.2074  0.6609 -0.1507
17322TIP3    H173381   5.849   1.581   0.484  0.1939  2.9154  0.4139
17322TIP3    H273382   5.775   1.528   0.364  2.3973  0.7478 -0.0594
17323TIP3   OH273383   4.962   0.290   3.719  0.5476 -0.2238  0.1806
17323TIP3    H173384   5.037   0.252   3.672  0.7260 -0.1355  0.3913
17323TIP3    H273385   4.903   0.320   3.650 -0.0257 -1.6955 -0.0047
17324TIP3   OH273386   4.570   3.305   4.636 -0.3248  0.5951  0.2686
17324TIP3    H173387   4.570   3.270   4.547  0.8743 -0.9013  0.8171
17324TIP3    H273388   4.523   3.388   4.629 -1.6344 -0.2395 -1.4516
17325TIP3   OH273389   1.817   3.900   2.683 -0.0884 -0.4965  0.6926
17325TIP3    H173390   1.768   3.976   2.714 -0.4752 -0.2290 -0.5261
17325TIP3    H273391   1.873   3.875   2.757 -1.7096 -0.5251  1.9591
17326TIP3   OH273392   5.099   3.064   1.768 -0.0599  0.0847 -0.1589
17326TIP3    H173393   5.008   3.034   1.766  0.3047 -1.0027 -1.0435
17326TIP3    H273394   5.140   3.010   1.835  0.2715 -0.4682 -0.7948
17327TIP3   OH273395   0.253   4.617   6.883  0.0003  0.0518 -0.2344
17327TIP3    H173396   0.299   4.685   6.835 -0.7475  1.3730  0.8478
17327TIP3    H273397   0.238   4.548   6.818  1.5853  0.4936 -1.1215
17328TIP3   OH273398   1.530   4.200  13.436  1.0592  0.3256  0.1269
17328TIP3    H173399   1.451   4.240  13.474  0.7942 -1.6831  1.8656
17328TIP3    H273400   1.496   4.132  13.378  1.5298 -0.0190  0.2607
17329TIP3   OH273401   5.051   2.603  15.175 -0.4099 -0.2239 -0.5633
17329TIP3    H173402   5.140   2.580  15.150  0.1624  0.5803  0.6541
17329TIP3    H273403   5.029   2.542  15.245 -0.9735 -0.6617 -1.1048
17330TIP3   OH273404   1.407   4.751  15.516  0.0400 -0.1572 -0.3587
17330TIP3    H173405   1.372   4.734  15.428  0.9668 -1.7092 -0.4473
17330TIP3    H273406   1.367   4.685  15.571  1.0721 -0.5145 -0.0226
17331TIP3   OH273407   5.295   1.725   1.378  0.5095  0.1235 -0.0318
17331TIP3    H173408   5.237   1.777   1.322 -0.4579  0.0648  0.9057
17331TIP3    H273409   5.349   1.676   1.316  0.3523  1.0368 -0.9229
17332TIP3   OH273410   6.251   0.766  15.807  0.0187  0.0743 -0.4676
17332TIP3    H173411   6.320   0.786  15.870  0.3903 -0.8921 -0.5467
17332TIP3    H273412   6.226   0.850  15.770  2.2995  0.2966 -1.6345
17333TIP3   OH273413   3.658   3.329  12.859  0.2996 -0.4372 -0.3228
17333TIP3    H173414   3.662   3.331  12.763  1.4594 -0.7012 -0.2929
17333TIP3    H273415   3.749   3.320  12.887  0.1446  1.1187  0.8479
17334TIP3   OH273416   3.700   3.074  16.945  0.4124 -0.0547  0.2244
17334TIP3    H173417   3.793   3.068  16.925  0.7699  0.1037  1.6857
17334TIP3    H273418   3.693   3.039  17.034 -1.2009 -1.7930 -0.5194
17335TIP3   OH273419   5.588   1.582  11.873 -0.2352  0.4823 -0.3362
17335TIP3    H173420   5.508   1.622  11.838 -1.6391 -1.5175  0.4344
17335TIP3    H273421   5.567   1.562  11.965 -0.0159 -2.7983 -0.8790
17336TIP3   OH273422   5.252   2.642   5.585 -0.5725  0.4369 -0.6025
17336TIP3    H173423   5.195   2.716   5.564 -2.4211 -0.9231 -0.6559
17336TIP3    H273424   5.225   2.615   5.673 -0.2699 -0.4612 -0.7684
17337TIP3   OH273425   3.784   2.862  15.992 -0.5719 -0.1237 -0.2930
17337TIP3    H173426   3.855   2.805  15.962  0.0251  0.1135  0.6541
17337TIP3    H273427   3.790   2.939  15.936  1.2338  0.8038  1.0810
17338TIP3   OH273428   3.607   4.691  13.187 -0.6783 -1.1983 -0.4139
17338TIP3    H173429   3.524   4.695  13.139 -1.1245 -2.7979  0.1827
17338TIP3    H273430   3.585   4.718  13.276  0.3955  3.1473 -1.1865
17339TIP3   OH273431   5.200   3.485   1.552 -0.2340 -0.0180 -0.4761
17339TIP3    H173432   5.249   3.521   1.626 -0.9100  0.6583 -0.3468
17339TIP3    H273433   5.129   3.434   1.591 -0.0788 -0.3885 -0.6649
17340TIP3   OH273434   1.307   4.212  15.820  0.1622  0.2896 -0.8074
17340TIP3    H173435   1.323   4.171  15.735  0.5267  1.0216 -1.1043
17340TIP3    H273436   1.395   4.222  15.857 -0.0446 -0.6947 -0.0126
17341TIP3   OH273437   0.331   2.530  14.794  0.1516 -0.4610  0.1388
17341TIP3    H173438   0.424   2.511  14.776 -0.1539 -0.0659 -2.2991
17341TIP3    H273439   0.326   2.625  14.795  0.2272 -0.3953  3.4998
17342TIP3   OH273440   5.259   1.179   3.940 -0.1973 -0.1667  0.0583
17342TIP3    H173441   5.331   1.117   3.930 -1.0531 -0.8882 -2.1602
17342TIP3    H273442   5.301   1.264   3.950  0.9694 -0.8769  1.7098
17343TIP3   OH273443   0.256   1.322   3.019 -1.0993 -0.8227  0.2387
17343TIP3    H173444   0.201   1.260   2.971 -0.2695 -1.4367  0.0390
17343TIP3    H273445   0.330   1.338   2.959  0.5031 -2.4131  1.6713
17344TIP3   OH273446   6.770   1.498   5.271  0.5027  0.2240 -0.6079
17344TIP3    H173447   6.744   1.486   5.362 -0.0432 -0.8583 -0.8829
17344TIP3    H273448   6.824   1.421   5.251  0.3594  0.2884 -1.2813
17345TIP3   OH273449   6.510   5.383  15.702  0.7844 -0.8433  0.2667
17345TIP3    H173450   6.521   5.393  15.797 -0.2844 -2.1456  0.5619
17345TIP3    H273451   6.445   5.449  15.678 -0.4794 -1.8359  0.8301
17346TIP3   OH273452   1.496   5.956   4.277 -0.1459  0.1505 -0.2253
17346TIP3    H173453   1.576   6.005   4.256 -0.4549  1.4924  1.5210
17346TIP3    H273454   1.497   5.882   4.216  2.2083  0.3443 -0.5221
17347TIP3   OH273455   4.403   0.346   4.133  0.1046 -0.5007 -0.3808
17347TIP3    H173456   4.419   0.441   4.135  1.7799 -0.7458  1.1309
17347TIP3    H273457   4.489   0.308   4.118 -0.5031 -1.8037 -0.6816
17348TIP3   OH273458   1.124   2.555  16.683  0.6360  0.3514 -0.0163
17348TIP3    H173459   1.038   2.511  16.680  2.1339 -3.0628  1.3563
17348TIP3    H273460   1.161   2.542  16.595  0.5697 -0.0494  0.0124
17349TIP3   OH273461   2.722   4.020  13.891 -0.0135  0.1864  0.3448
17349TIP3    H173462   2.766   4.027  13.806  0.4630 -1.8970  0.3644
17349TIP3    H273463   2.794   4.021  13.955 -0.3124  0.9131  0.6838
17350TIP3   OH273464   3.136   3.646   2.398  0.1055 -0.6142 -0.1998
17350TIP3    H173465   3.085   3.726   2.408 -0.4370 -0.9647 -0.1199
17350TIP3    H273466   3.141   3.631   2.304  1.1322  0.0927 -0.2728
17351TIP3   OH273467   6.277   3.136   0.294 -0.0495  0.4112 -0.1943
17351TIP3    H173468   6.338   3.157   0.365  0.2459 -1.3020  0.1126
17351TIP3    H273469   6.297   3.200   0.225  1.6595  0.2940  0.1460
17352TIP3   OH273470   3.851   2.276  12.728 -0.0219 -0.1140  0.5121
17352TIP3    H173471   3.789   2.298  12.658  0.2067 -0.6212  0.1466
17352TIP3    H273472   3.891   2.194  12.699  1.8483  0.9069  0.0676
17353TIP3   OH273473   4.925   2.012   1.618  0.2090  0.5197 -0.1999
17353TIP3    H173474   4.906   2.050   1.532 -1.2802  1.0994  0.3580
17353TIP3    H273475   4.989   1.943   1.600 -0.7181  0.0573 -1.8931
17354TIP3   OH273476   1.398   1.452   2.214  0.6840  0.2343  0.0930
17354TIP3    H173477   1.355   1.517   2.270  0.1757 -0.5796  0.6707
17354TIP3    H273478   1.466   1.413   2.270 -1.0970 -1.9773  0.8866
17355TIP3   OH273479   1.666   5.941   0.711  0.2805  0.5129 -0.1316
17355TIP3    H173480   1.666   5.867   0.651  1.1445 -1.2455  1.8816
17355TIP3    H273481   1.583   5.933   0.758  0.7602  0.2360  0.7030
17356TIP3   OH273482   0.565   4.483  11.700  0.1629  0.1556  0.7086
17356TIP3    H173483   0.627   4.452  11.766  0.0458 -0.7336  0.4140
17356TIP3    H273484   0.620   4.507  11.625  0.3393  1.5886  1.2451
17357TIP3   OH273485   1.683   1.639   3.652  0.2346  0.2397 -0.5030
17357TIP3    H173486   1.690   1.693   3.573 -1.2304  2.2264  0.6216
17357TIP3    H273487   1.770   1.644   3.693  1.3151 -1.6341 -2.4096
17358TIP3   OH273488   3.980   1.016   2.467 -0.3250 -0.0027 -0.6917
17358TIP3    H173489   3.922   1.015   2.543 -0.6553 -0.2644 -0.9455
17358TIP3    H273490   4.007   1.108   2.459 -2.6560  0.6691 -2.0252
17359TIP3   OH273491   2.571   0.434  14.834  0.1590 -0.3609  0.4216
17359TIP3    H173492   2.602   0.408  14.921  0.3153  0.9289  0.7774
17359TIP3    H273493   2.598   0.363  14.777 -0.1707 -1.3624  1.4665
17360TIP3   OH273494   0.610   2.638  17.097 -0.5751  0.6257 -0.0072
17360TIP3    H173495   0.643   2.692  17.025  0.6848  0.5848  0.5107
17360TIP3    H273496   0.515   2.647  17.092 -0.6279 -0.5851 -2.5824
17361TIP3   OH273497   6.032   0.792   2.398 -0.2755 -0.3686 -0.6130
17361TIP3    H173498   6.044   0.817   2.306 -4.3590 -0.5829 -1.4035
17361TIP3    H273499   6.000   0.872   2.440 -0.2311 -0.7669  0.2045
17362TIP3   OH273500   2.294   1.721   2.405  0.2994 -0.8350 -0.2882
17362TIP3    H173501   2.298   1.675   2.321  0.2264  0.6638 -1.1501
17362TIP3    H273502   2.385   1.743   2.425  0.1484  0.6768 -1.0929
17363TIP3   OH273503   2.553   1.762   2.444 -0.2770 -0.1707  0.3585
17363TIP3    H173504   2.622   1.762   2.510  0.7981  1.3705 -0.6872
17363TIP3    H273505   2.535   1.855   2.429 -2.2687 -0.5350  0.2559
17364TIP3   OH273506   3.710   1.932   0.353 -0.0202  0.0251 -0.2523
17364TIP3    H173507   3.706   1.895   0.441 -1.3294 -0.3180 -0.4287
17364TIP3    H273508   3.711   2.027   0.366  0.6786 -0.0342  0.1439
17365TIP3   OH273509   6.737   3.275  12.747  0.5928 -0.3172  0.1179
17365TIP3    H173510   6.795   3.257  12.820 -0.4918  0.6041  1.2461
17365TIP3    H273511   6.743   3.369  12.734  1.2374 -0.5365 -1.4105
17366TIP3   OH273512   5.834   4.883   1.601 -0.4486 -0.1063  0.2597
17366TIP3    H173513   5.900   4.854   1.537 -1.2023 -3.0240  0.6693
17366TIP3    H273514   5.750   4.863   1.559 -0.9817 -0.2609  1.3705
17367TIP3   OH273515   2.782   5.335   3.037  0.1676 -0.0294 -0.1551
17367TIP3    H173516   2.828   5.259   3.074  0.8210 -0.0372 -0.9647
17367TIP3    H273517   2.691   5.322   3.063  0.6083 -0.0008  1.4860
17368TIP3   OH273518   6.095   0.846  15.561 -0.1380  0.4063  0.1748
17368TIP3    H173519   6.148   0.881  15.633  0.6223 -0.2796 -0.0272
17368TIP3    H273520   6.010   0.888  15.570 -0.2179 -0.0731  1.7935
17369TIP3   OH273521   6.323   4.605  11.659  0.3296  0.2958 -0.0885
17369TIP3    H173522   6.311   4.679  11.599  0.9263 -0.0261 -0.6203
17369TIP3    H273523   6.311   4.642  11.746  1.4823  1.2231 -0.2969
17370TIP3   OH273524   3.597   4.590  13.890  0.0099  0.3923 -0.2334
17370TIP3    H173525   3.681   4.635  13.889 -0.4226  1.2075 -0.1483
17370TIP3    H273526   3.546   4.633  13.959 -0.4641 -0.1337 -0.2392
17371TIP3   OH273527   5.219   5.954  13.818  0.6145  0.3349 -0.1693
17371TIP3    H173528   5.262   6.011  13.881  0.1101 -0.9297  1.3807
17371TIP3    H273529   5.133   5.994  13.804  0.1415 -0.1592  1.1509
17372TIP3   OH273530   2.308   4.476  12.210 -0.3110  0.4280  0.1078
17372TIP3    H173531   2.359   4.418  12.267  0.8185  0.0675 -1.2140
17372TIP3    H273532   2.279   4.420  12.138 -0.5344  1.1636 -0.3898
17373TIP3   OH273533   2.211   5.425   1.087 -0.0486  0.1326  0.5991
17373TIP3    H173534   2.254   5.416   1.172 -0.0509 -0.9309  0.4961
17373TIP3    H273535   2.130   5.374   1.095  0.2633 -0.5252 -0.2461
17374TIP3   OH273536   3.438   1.781   2.776 -0.0650  0.3569 -0.0200
17374TIP3    H173537   3.505   1.792   2.708  1.9620  0.3778  1.8819
17374TIP3    H273538   3.431   1.686   2.786 -0.8148  0.3341 -0.6281
17375TIP3   OH273539   3.587   6.009  15.975  0.4330  0.4386  0.5362
17375TIP3    H173540   3.498   6.046  15.974 -0.7155 -2.0567 -1.1818
17375TIP3    H273541   3.594   5.967  16.060  0.4117  1.5566  1.1081
17376TIP3   OH273542   0.374   3.516   0.017  0.2676 -0.3043  0.1833
17376TIP3    H173543   0.451   3.572   0.024  1.0705 -1.3439 -0.0139
17376TIP3    H273544   0.392   3.442   0.075 -0.4516 -0.6990 -0.0751
17377TIP3   OH273545   2.378   1.345   3.248 -0.3635 -0.2383 -0.2530
17377TIP3    H173546   2.455   1.396   3.222  0.0011 -1.4629 -1.6948
17377TIP3    H273547   2.310   1.411   3.262 -0.0315  0.6993 -2.4910
17378TIP3   OH273548   2.770   6.372   1.863 -0.1679  0.1142  0.0102
17378TIP3    H173549   2.765   6.439   1.930  1.4867 -1.3515  1.7314
17378TIP3    H273550   2.812   6.297   1.907 -0.0954 -1.3303 -2.3363
17379TIP3   OH273551   1.808   4.853  15.206 -0.2036  0.0429 -0.0015
17379TIP3    H173552   1.780   4.780  15.151  1.5845 -0.7620  0.0771
17379TIP3    H273553   1.820   4.926  15.145  1.3253 -0.7155 -0.6539
17380TIP3   OH273554   6.592   4.506  11.647 -0.3096  0.6658 -0.0324
17380TIP3    H173555   6.502   4.518  11.618  0.0584 -0.7514 -1.8915
17380TIP3    H273556   6.585   4.487  11.741 -2.1312 -1.4121 -0.5358
17381TIP3   OH273557   6.457   5.600   0.337  0.6403  0.5119 -0.3642
17381TIP3    H173558   6.376   5.550   0.326  1.2696 -0.6041 -0.0627
17381TIP3    H273559   6.526   5.542   0.304  1.5146  0.7367  0.9846
17382TIP3   OH273560   4.636   2.905  11.130  1.0297 -0.2308 -0.0930
17382TIP3    H173561   4.628   2.909  11.034  1.8216 -1.9269 -0.2599
17382TIP3    H273562   4.570   2.967  11.162  1.1084  0.7603 -1.7329
17383TIP3   OH273563   4.340   3.497   5.776 -0.6931 -0.1532 -0.5300
17383TIP3    H173564   4.267   3.553   5.799 -1.4768 -1.6300  0.7231
17383TIP3    H273565   4.304   3.435   5.712 -0.2371 -0.1801 -0.7662
17384TIP3   OH273566   6.164   1.432   6.735  0.6606  0.4968  0.3766
17384TIP3    H173567   6.195   1.344   6.712  1.8240  0.9985 -0.0526
17384TIP3    H273568   6.075   1.436   6.700  0.7674 -0.3421 -0.0258
17385TIP3   OH273569   5.341   1.095   2.384  0.3855  0.4140 -0.1469
17385TIP3    H173570   5.265   1.037   2.385  0.0480  0.8346 -0.7384
17385TIP3    H273571   5.337   1.138   2.299  1.7849 -0.2118 -0.5573
17386TIP3   OH273572   5.084   6.233  15.556 -0.1759  0.2077  0.2397
17386TIP3    H173573   4.998   6.193  15.570 -0.0194 -0.0499  0.4859
17386TIP3    H273574   5.065   6.326  15.538 -0.5592 -0.0390 -0.6647
17387TIP3   OH273575   2.684   0.409  15.083  0.4898  0.1787  0.7446
17387TIP3    H173576   2.779   0.420  15.096  0.8170  1.5058 -1.9845
17387TIP3    H273577   2.660   0.337  15.141  3.6093 -1.7920 -0.1634
17388TIP3   OH273578   4.022   1.674  13.914 -0.0453 -0.0957 -0.0181
17388TIP3    H173579   4.117   1.672  13.907 -0.0229  0.7937 -0.0416
17388TIP3    H273580   4.003   1.751  13.966 -0.7726 -0.0941 -0.2733
17389TIP3   OH273581   0.815   6.032   0.124 -0.3672  0.5251 -0.5070
17389TIP3    H173582   0.905   6.043   0.153 -1.0798 -0.6390  2.4887
17389TIP3    H273583   0.816   5.953   0.071  0.0087 -1.1279  1.8190
17390TIP3   OH273584   3.315   6.085  15.605 -0.5977 -0.0038  0.2548
17390TIP3    H173585   3.250   6.034  15.558 -0.6916  0.7384 -0.4408
17390TIP3    H273586   3.328   6.038  15.688  0.1582 -1.7757 -0.8130
17391TIP3   OH273587   5.193   5.646   3.472  0.2335 -0.0188 -1.2851
17391TIP3    H173588   5.115   5.696   3.453 -0.4472 -0.3882  0.3930
17391TIP3    H273589   5.194   5.577   3.405 -0.6206  0.2487 -1.5852
17392TIP3   OH273590   6.762   4.773   0.800 -0.0606 -0.1131 -0.0862
17392TIP3    H173591   6.734   4.861   0.825  1.0136  0.7081 -1.6353
17392TIP3    H273592   6.856   4.772   0.816  0.0374 -0.7649 -0.6587
17393TIP3   OH273593   3.207   6.297  14.438  0.1074 -0.4125  0.3334
17393TIP3    H173594   3.176   6.211  14.413 -1.4040  0.1273  0.2746
17393TIP3    H273595   3.262   6.326  14.365  0.2605 -1.1306  0.1610
17394TIP3   OH273596   5.104   6.295  13.450  0.7132 -0.2332  0.3244
17394TIP3    H173597   5.150   6.237  13.389  2.4255  0.5365  0.8142
17394TIP3    H273598   5.041   6.342  13.396  1.3635 -0.4383 -0.6306
17395TIP3   OH273599   6.656   0.847   2.503  0.5299  0.0366 -0.2055
17395TIP3    H173600   6.629   0.767   2.459  0.2446  0.0966 -0.1392
17395TIP3    H273601   6.721   0.819   2.568  0.9569 -0.0526 -0.6653
17396TIP3   OH273602   5.596   4.309  12.506  0.0573 -0.2266  0.4971
17396TIP3    H173603   5.578   4.280  12.595  2.9654  1.2064  1.6784
17396TIP3    H273604   5.673   4.260  12.479  1.0746  1.5172  0.0330
17397TIP3   OH273605   1.873   4.421   1.988  0.0962 -0.3556 -0.0760
17397TIP3    H173606   1.831   4.339   2.012 -0.9383 -0.5121 -2.1734
17397TIP3    H273607   1.889   4.413   1.894  3.8559  0.1579  0.3569
17398TIP3   OH273608   4.925   4.421   4.203  0.5391 -0.3071  0.5150
17398TIP3    H173609   4.977   4.443   4.125  0.8458 -0.7826  0.5804
17398TIP3    H273610   4.863   4.493   4.212 -0.8876 -1.1979 -1.3799
17399TIP3   OH273611   1.041   4.701   0.981  0.3547  0.2410 -0.3433
17399TIP3    H173612   0.999   4.615   0.977  1.0322 -0.2048  1.2080
17399TIP3    H273613   1.086   4.710   0.898 -0.4917 -0.4870 -0.9043
17400TIP3   OH273614   5.251   3.308  15.265  0.1623  0.2675 -0.4070
17400TIP3    H173615   5.315   3.239  15.285 -0.6788 -0.2762  0.4512
17400TIP3    H273616   5.223   3.340  15.350 -2.5316 -1.1957 -0.6532
17401TIP3   OH273617   1.292   5.539   0.183  0.5496 -0.2698 -0.2016
17401TIP3    H173618   1.372   5.570   0.139 -1.0969  1.5235 -2.2089
17401TIP3    H273619   1.229   5.527   0.112 -0.7201 -2.6607  1.1970
17402TIP3   OH273620   5.305   5.825   5.709 -0.1372 -0.8667 -0.0078
17402TIP3    H173621   5.364   5.875   5.653 -0.1392 -1.0126 -0.1423
17402TIP3    H273622   5.285   5.746   5.658 -0.6072 -0.7249 -0.0540
17403TIP3   OH273623   5.356   2.885  14.952 -0.0629  0.0561 -0.6276
17403TIP3    H173624   5.417   2.814  14.936  0.8184  0.3696  1.0915
17403TIP3    H273625   5.377   2.951  14.886  1.5601  0.2082  0.0085
17404TIP3   OH273626   4.153   0.227  12.275  0.2816  0.1663 -0.2932
17404TIP3    H173627   4.109   0.148  12.308  0.4359 -0.3912 -1.4010
17404TIP3    H273628   4.241   0.223  12.312  0.5515 -0.6156 -0.9919
17405TIP3   OH273629   1.853   1.072  15.406  0.1401  0.5272 -0.1107
17405TIP3    H173630   1.836   1.014  15.332 -0.3582 -0.6158  0.8679
17405TIP3    H273631   1.773   1.124  15.415 -0.2406 -0.1067  0.2864
17406TIP3   OH273632   3.680   3.256   1.786 -0.2224  0.5620  0.2759
17406TIP3    H173633   3.645   3.250   1.697  2.6208 -3.5015 -0.8618
17406TIP3    H273634   3.626   3.196   1.838  0.8107 -0.5813  0.0918
17407TIP3   OH273635   1.052   0.811   0.489 -0.1716  0.1133  0.2642
17407TIP3    H173636   1.009   0.727   0.504  0.3934  0.1778  2.5628
17407TIP3    H273637   1.112   0.794   0.415 -0.2712 -1.4205  0.5078
17408TIP3   OH273638   4.455   1.091  10.707 -0.2390  0.4448  0.1254
17408TIP3    H173639   4.545   1.109  10.679 -0.7269 -1.1391 -2.8436
17408TIP3    H273640   4.447   0.996  10.705 -1.6667  0.4790  1.6091
17409TIP3   OH273641   4.262   5.524  12.541 -0.4335  0.1864  0.3872
17409TIP3    H173642   4.317   5.522  12.620  1.9460  0.3912 -1.1629
17409TIP3    H273643   4.181   5.567  12.569  0.6105  0.8999  2.5408
17410TIP3   OH273644   0.952   3.355  11.195 -0.5169  0.6735  0.0591
17410TIP3    H173645   1.046   3.349  11.207 -0.8492 -1.1249  2.8418
17410TIP3    H273646   0.939   3.350  11.101  2.1298  0.7031 -0.3786
17411TIP3   OH273647   1.827   6.592  16.861 -0.2959  0.5575 -0.0944
17411TIP3    H173648   1.741   6.559  16.838  0.1379 -0.0762 -0.8801
17411TIP3    H273649   1.884   6.563  16.789  0.5872  0.8885  0.4486
17412TIP3   OH273650   2.459   5.802  10.385  0.7447 -0.2108 -0.5869
17412TIP3    H173651   2.411   5.881  10.361  0.9949 -0.1357 -0.8461
17412TIP3    H273652   2.402   5.757  10.448  0.2048 -0.2740 -1.1149
17413TIP3   OH273653   0.535   3.249   4.814  0.1692  0.3131  0.5319
17413TIP3    H173654   0.615   3.212   4.851 -0.7562 -0.7598  1.5378
17413TIP3    H273655   0.528   3.210   4.727  0.2104 -0.4117  0.8463
17414TIP3   OH273656   6.252   5.235  13.143  0.6498  0.0370 -0.2920
17414TIP3    H173657   6.238   5.310  13.202  1.5338 -0.4710  0.5921
17414TIP3    H273658   6.212   5.262  13.061 -0.9320  0.6372  0.6290
17415TIP3   OH273659   0.745   3.874   0.035 -0.3059  0.1312  0.3609
17415TIP3    H173660   0.666   3.927   0.025 -0.6799 -0.3939  0.4925
17415TIP3    H273661   0.765   3.878   0.128  0.5853  1.3285  0.1485
17416TIP3   OH273662   6.106   6.347  12.372 -0.4690  0.0371 -0.4713
17416TIP3    H173663   6.167   6.286  12.331 -0.8848  0.3009 -1.5023
17416TIP3    H273664   6.162   6.414  12.410  0.0527 -1.3801  1.4153
17417TIP3   OH273665   4.474   1.857   4.989 -0.4431  0.0778 -0.6524
17417TIP3    H173666   4.512   1.806   5.060 -0.0269  0.6038 -0.4889
17417TIP3    H273667   4.382   1.867   5.012 -0.1598  0.8532  0.1870
17418TIP3   OH273668   5.460   1.532   5.794  0.1970 -0.5739  0.2702
17418TIP3    H173669   5.536   1.587   5.774 -1.0588  0.6444 -1.5315
17418TIP3    H273670   5.484   1.445   5.763  0.2897  0.1716 -1.9044
17419TIP3   OH273671   6.007   3.196   2.334 -0.2311 -1.1834  0.1248
17419TIP3    H173672   6.013   3.117   2.388 -1.6335 -1.5927 -0.2686
17419TIP3    H273673   5.927   3.184   2.283 -1.0693  0.9768  0.8185
17420TIP3   OH273674   5.815   5.710  12.880 -0.0008 -0.0538  0.4941
17420TIP3    H173675   5.796   5.706  12.974 -0.4114 -0.3223  0.4011
17420TIP3    H273676   5.733   5.741  12.841  0.2212  0.2227  0.2374
17421TIP3   OH273677   0.696   6.202  13.464 -0.6089  0.3228  0.2823
17421TIP3    H173678   0.708   6.284  13.417 -0.8016  1.0887  1.5331
17421TIP3    H273679   0.754   6.140  13.419  0.6126  1.4964  0.1878
17422TIP3   OH273680   6.386   6.215  11.784  0.5378  0.3959  0.2386
17422TIP3    H173681   6.351   6.280  11.845  2.5474  0.8553  0.9944
17422TIP3    H273682   6.426   6.267  11.714  1.8460 -0.0031  0.6634
17423TIP3   OH273683   4.855   4.459   5.025  0.5999 -0.7315  0.0687
17423TIP3    H173684   4.917   4.530   5.008  1.7689 -1.5980  0.5711
17423TIP3    H273685   4.813   4.482   5.108 -0.1623  0.1330 -0.5509
17424TIP3   OH273686   6.434   6.667  13.722  0.0317 -0.1968  0.1971
17424TIP3    H173687   6.495   6.608  13.680  0.5369 -0.6481  1.5144
17424TIP3    H273688   6.348   6.642  13.687  0.4034 -0.7162 -0.3569
17425TIP3   OH273689   0.221   2.637   0.034  0.6335 -0.3137 -0.4913
17425TIP3    H173690   0.234   2.652  -0.059  1.0298  0.1049 -0.3730
17425TIP3    H273691   0.146   2.577   0.039 -0.0838  0.5111 -1.0403
17426TIP3   OH273692   0.750   4.105   4.513  0.4410  0.2268  0.0924
17426TIP3    H173693   0.689   4.061   4.453  0.3420  0.0328  0.3332
17426TIP3    H273694   0.693   4.150   4.576  0.5496 -0.3137  0.5761
17427TIP3   OH273695   5.174   2.803   5.811  0.8427 -0.3655 -0.5123
17427TIP3    H173696   5.259   2.767   5.836  0.0736 -1.1965  1.0615
17427TIP3    H273697   5.191   2.897   5.797  1.6941 -0.1319  1.6593
17428TIP3   OH273698   5.521   6.536  13.042  0.1465  0.2805  0.2441
17428TIP3    H173699   5.585   6.601  13.071  0.6581 -0.0181 -0.1900
17428TIP3    H273700   5.555   6.452  13.072  0.8984 -0.0863 -1.4870
17429TIP3   OH273701   2.263   6.657  16.899  0.0254  0.4003 -0.2642
17429TIP3    H173702   2.302   6.711  16.967 -2.1203 -1.1991  2.4527
17429TIP3    H273703   2.317   6.577  16.897 -0.7067 -0.1424  0.6519
17430TIP3   OH273704   6.606   1.637   2.705  0.1388  0.1692 -0.8630
17430TIP3    H173705   6.578   1.549   2.678  0.7072 -0.8710  1.6607
17430TIP3    H273706   6.563   1.652   2.789  2.2124  1.1092  0.1035
17431TIP3   OH273707   1.697   1.678   0.762  0.0924  0.0498  0.3739
17431TIP3    H173708   1.615   1.726   0.754  1.2824  2.1287 -0.2883
17431TIP3    H273709   1.671   1.586   0.771 -2.3078  0.7604  1.5675
17432TIP3   OH273710   5.339   5.023  14.248 -0.3061  0.2433 -0.4304
17432TIP3    H173711   5.354   4.930  14.266  0.2468  0.4147  0.0336
17432TIP3    H273712   5.409   5.068  14.296  0.1967  0.8209 -1.6387
17433TIP3   OH273713   5.653   5.848   1.437 -0.3433  0.0806 -0.2041
17433TIP3    H173714   5.558   5.842   1.440 -0.3849  1.0179  1.9580
17433TIP3    H273715   5.671   5.931   1.393 -0.5381  0.1934 -0.0705
17434TIP3   OH273716   5.166   5.120  15.602  0.6131 -0.4913 -0.5433
17434TIP3    H173717   5.095   5.126  15.537 -0.2518  0.0969  0.4186
17434TIP3    H273718   5.145   5.041  15.652  0.7291 -0.4049 -0.3599
17435TIP3   OH273719   4.314   0.727   1.331 -0.7392  0.0169 -0.7871
17435TIP3    H173720   4.311   0.632   1.332  0.7853 -0.1055  1.4101
17435TIP3    H273721   4.241   0.754   1.387  0.4652 -0.0418  0.8789
17436TIP3   OH273722   1.743   0.537   5.848 -0.2368 -0.3492  0.9732
17436TIP3    H173723   1.740   0.506   5.938  0.0283  0.7421  1.3779
17436TIP3    H273724   1.774   0.462   5.797  1.3721 -0.4478  2.0487
17437TIP3   OH273725   0.701   1.692  14.426 -0.1158  0.3037 -0.1757
17437TIP3    H173726   0.642   1.733  14.363 -0.3467  0.2038 -0.0300
17437TIP3    H273727   0.703   1.600  14.400 -0.2096  0.2628 -0.0411
17438TIP3   OH273728   2.826   0.540   2.655 -0.8298 -0.2987 -0.5721
17438TIP3    H173729   2.847   0.555   2.563 -0.0370  2.1028 -0.0549
17438TIP3    H273730   2.909   0.515   2.695 -0.7974  0.4480 -0.1710
17439TIP3   OH273731   5.168   2.790   3.141 -0.3081 -0.2058  0.4173
17439TIP3    H173732   5.254   2.828   3.157  0.3142 -1.1954 -0.4560
17439TIP3    H273733   5.126   2.851   3.080 -0.4764  0.5922  1.3084
17440TIP3   OH273734   4.016   6.277   2.814  0.1246 -0.2314 -0.1548
17440TIP3    H173735   4.090   6.219   2.831 -1.1090 -1.3640  1.6925
17440TIP3    H273736   3.975   6.289   2.899 -2.6849 -0.8554 -1.3161
17441TIP3   OH273737   4.995   3.366  17.010 -0.2344 -0.0054  0.1110
17441TIP3    H173738   4.904   3.340  16.995  0.1786 -0.9983 -0.8502
17441TIP3    H273739   5.037   3.286  17.043  0.3311  0.3919  0.3633
17442TIP3   OH273740   3.491   4.675   1.441  0.2376  0.3204  0.4263
17442TIP3    H173741   3.489   4.668   1.536  0.7045 -0.4236  0.3922
17442TIP3    H273742   3.415   4.624   1.412 -2.3882  3.8063  0.4974
17443TIP3   OH273743   3.977   3.739   5.261 -0.0097  0.5187 -0.4808
17443TIP3    H173744   3.897   3.789   5.249 -0.1944  0.3162 -0.0919
17443TIP3    H273745   3.948   3.649   5.277  0.2435  0.6384  0.7776
17444TIP3   OH273746   5.916   6.020  12.162 -0.4862 -0.1731  0.6867
17444TIP3    H173747   6.000   6.028  12.118 -0.0531 -1.7658  1.1492
17444TIP3    H273748   5.874   6.105  12.150  0.9264  0.4475 -0.0727
17445TIP3   OH273749   4.283   1.696   5.296  0.2042  0.1031  0.2444
17445TIP3    H173750   4.301   1.771   5.240 -0.2061 -0.3275 -0.4900
17445TIP3    H273751   4.245   1.733   5.376  0.9064  0.7341  0.2910
17446TIP3   OH273752   3.938   2.983   0.943  0.1765 -0.8188 -0.1196
17446TIP3    H173753   3.945   2.892   0.914  0.9611 -1.1892  1.1687
17446TIP3    H273754   4.002   3.030   0.888 -0.0260 -1.0780 -0.5864
17447TIP3   OH273755   1.067   1.155   1.771  0.5548 -0.3334 -0.0434
17447TIP3    H173756   1.117   1.132   1.849  1.1983  0.9855 -0.0280
17447TIP3    H273757   1.121   1.125   1.698  1.1859  0.6715 -0.0151
17448TIP3   OH273758   4.929   4.610  14.777  0.1622 -0.4150 -0.9053
17448TIP3    H173759   4.847   4.578  14.815  0.1052  0.4054 -0.3156
17448TIP3    H273760   4.924   4.586  14.685 -1.0125  0.1508 -1.0046
17449TIP3   OH273761   4.884   5.954  14.677  0.2250 -0.0203 -0.4426
17449TIP3    H173762   4.832   5.982  14.602 -0.2505 -1.0417 -0.5195
17449TIP3    H273763   4.821   5.910  14.734  0.1235  2.5106  1.5868
17450TIP3   OH273764   1.879   4.738  16.636  0.7589  0.7334  0.6316
17450TIP3    H173765   1.806   4.736  16.574  1.8243  2.3312 -0.7353
17450TIP3    H273766   1.945   4.680  16.598  0.7635  0.3670  1.1775
17451TIP3   OH273767   0.029   0.311  10.940  0.4723 -0.0493  0.3005
17451TIP3    H173768  -0.061   0.344  10.933  0.9082  1.3056  0.7970
17451TIP3    H273769   0.022   0.219  10.916 -1.0450  0.0384  0.2829
17452TIP3   OH273770   4.659   6.610   3.073  0.1178 -0.4873  0.1580
17452TIP3    H173771   4.687   6.533   3.024  1.6849  0.2338 -0.1368
17452TIP3    H273772   4.714   6.611   3.151  0.5606  0.6654 -0.1477
17453TIP3   OH273773   0.896   3.991   5.199 -0.1482  0.1673 -0.5350
17453TIP3    H173774   0.837   4.036   5.140 -0.0640  1.2803  0.2068
17453TIP3    H273775   0.838   3.946   5.262 -0.2281 -0.7117 -1.2139
17454TIP3   OH273776   0.870   1.279   0.153  0.8497  0.1007  0.1623
17454TIP3    H173777   0.925   1.204   0.131  0.1363 -0.7843  1.2611
17454TIP3    H273778   0.792   1.241   0.194 -0.0847  1.3807 -0.3448
17455TIP3   OH273779   4.872   1.629  15.071 -0.8884 -0.3676 -0.4203
17455TIP3    H173780   4.809   1.572  15.114  0.2638 -0.4997  1.1724
17455TIP3    H273781   4.925   1.570  15.016 -0.2520 -0.7301  0.5587
17456TIP3   OH273782   3.412   2.243  14.551 -0.1770 -0.0713  0.8833
17456TIP3    H173783   3.397   2.329  14.511  1.1085 -0.7587 -1.2189
17456TIP3    H273784   3.505   2.244  14.574  0.7428 -1.9795 -2.1946
17457TIP3   OH273785   3.529   6.137   3.048 -0.3814  0.0815 -0.2375
17457TIP3    H173786   3.539   6.051   3.088 -0.8285  0.7226  1.3491
17457TIP3    H273787   3.477   6.121   2.969 -1.7444 -0.9479  0.8108
17458TIP3   OH273788   2.239   5.126   3.999 -0.3799 -0.0011 -0.2833
17458TIP3    H173789   2.197   5.040   4.008  0.1898 -0.2333  0.2346
17458TIP3    H273790   2.288   5.120   3.917  0.3905 -0.5031  0.1983
17459TIP3   OH273791   1.759   4.927  13.575  0.5107  0.1628 -0.1158
17459TIP3    H173792   1.734   5.016  13.598 -0.7462 -0.2600  0.1934
17459TIP3    H273793   1.825   4.904  13.641 -0.5179  0.2122  0.9594
17460TIP3   OH273794   0.747   6.743  15.067  0.0669  0.0591 -0.3155
17460TIP3    H173795   0.652   6.745  15.080 -0.0328  1.4369 -1.0598
17460TIP3    H273796   0.781   6.707  15.149 -0.9510  1.9161  1.0042
17461TIP3   OH273797   4.510   5.979  13.478  0.0991  0.5400 -0.6605
17461TIP3    H173798   4.590   5.978  13.426  1.3873 -1.7911  1.1700
17461TIP3    H273799   4.461   5.902  13.448  0.6513 -0.5661  1.1338
17462TIP3   OH273800   2.727   1.410  10.406  0.2245 -0.2944 -0.3218
17462TIP3    H173801   2.656   1.467  10.377  0.2586 -1.2308 -2.4663
17462TIP3    H273802   2.806   1.461  10.391  0.1019  0.4223  1.2539
17463TIP3   OH273803   1.718   2.322   3.958  0.2870  0.3547 -0.2170
17463TIP3    H173804   1.696   2.397   4.014  1.1263  1.4849 -1.3265
17463TIP3    H273805   1.636   2.273   3.952  0.0649  0.4115  1.6296
17464TIP3   OH273806   1.443   4.951  11.393 -0.5993  0.4665 -0.0515
17464TIP3    H173807   1.467   4.913  11.308 -0.8242 -0.9224  0.4802
17464TIP3    H273808   1.373   5.013  11.372 -0.2645  0.5638 -0.9491
17465TIP3   OH273809   5.056   2.171   4.453  0.3706  0.5458 -0.7838
17465TIP3    H173810   5.043   2.262   4.478  1.0833  0.4277  0.0754
17465TIP3    H273811   4.972   2.129   4.472 -0.3158  1.2056 -2.1857
17466TIP3   OH273812   3.414   4.661  12.830 -0.1136  0.0901  0.1989
17466TIP3    H173813   3.395   4.683  12.739  0.0394 -0.1983  0.0961
17466TIP3    H273814   3.477   4.589  12.825  0.4001  0.5076  0.5353
17467TIP3   OH273815   0.711   6.722  14.291  0.6052  0.0527  0.0736
17467TIP3    H173816   0.617   6.706  14.278  0.4447 -0.1714  1.3949
17467TIP3    H273817   0.717   6.814  14.315  0.8070  0.2392 -0.6590
17468TIP3   OH273818   3.954   3.909  16.114 -0.1789 -0.2200 -0.7576
17468TIP3    H173819   3.960   3.963  16.193  1.7283  0.0867 -1.0453
17468TIP3    H273820   3.863   3.917  16.086 -0.1477  2.3253 -0.3948
17469TIP3   OH273821   5.041   5.380  13.441  0.3699 -1.3122  0.2413
17469TIP3    H173822   5.136   5.388  13.429  0.4320 -1.6337  0.4976
17469TIP3    H273823   5.003   5.426  13.366  0.7342 -2.5330 -0.7145
17470TIP3   OH273824   6.415   5.369   3.930 -0.0055 -0.3017  0.0464
17470TIP3    H173825   6.399   5.314   4.006 -0.0453  1.8497  1.6851
17470TIP3    H273826   6.331   5.411   3.913 -0.3219 -1.6186 -1.9911
17471TIP3   OH273827   0.918   5.899  16.619 -0.3878  0.1755  0.0542
17471TIP3    H173828   0.999   5.951  16.620 -0.4671  0.2960  0.6184
17471TIP3    H273829   0.919   5.855  16.534  0.4950 -0.1644  0.2189
17472TIP3   OH273830   2.375   5.808   5.816  0.2693 -0.3664  0.2093
17472TIP3    H173831   2.414   5.889   5.786 -2.0584  0.4491 -0.8505
17472TIP3    H273832   2.347   5.763   5.736 -0.0547 -1.3656  0.8568
17473TIP3   OH273833   5.789   1.225  14.492 -0.0010  0.0725 -0.4402
17473TIP3    H173834   5.749   1.141  14.468 -0.7203  0.7892 -1.8581
17473TIP3    H273835   5.726   1.264  14.553  0.4747 -0.5102  0.4586
17474TIP3   OH273836   2.206   2.109  16.804 -0.2323 -0.2045 -0.5961
17474TIP3    H173837   2.111   2.118  16.797 -0.5072 -0.2682  2.0755
17474TIP3    H273838   2.220   2.018  16.830  0.7110 -0.5680 -2.1930
17475TIP3   OH273839   4.780   0.528   1.239 -0.7467  0.2887 -0.0288
17475TIP3    H173840   4.744   0.458   1.185 -1.2675  0.1313  0.5100
17475TIP3    H273841   4.726   0.527   1.319  0.3647  0.1514  0.7389
17476TIP3   OH273842   0.843   3.717   2.218 -0.8756  0.5830  0.1063
17476TIP3    H173843   0.822   3.809   2.236  0.4096  0.5602  2.0840
17476TIP3    H273844   0.761   3.671   2.232 -1.2385  1.2923  0.3913
17477TIP3   OH273845   6.050   4.870  15.684 -0.5517  0.6080  0.3468
17477TIP3    H173846   6.005   4.794  15.647  0.3874  0.4351 -0.4635
17477TIP3    H273847   6.119   4.832  15.739 -1.0686  0.8758  1.2051
17478TIP3   OH273848   2.948   0.484   4.723  0.4626 -0.3543  0.1215
17478TIP3    H173849   3.024   0.541   4.712  0.6649 -0.7926 -0.9179
17478TIP3    H273850   2.985   0.395   4.728  0.2027 -0.3799  2.3792
17479TIP3   OH273851   1.386   1.144   5.150 -0.3934 -0.0367  0.0411
17479TIP3    H173852   1.438   1.163   5.072 -1.5387  1.1003 -0.4676
17479TIP3    H273853   1.441   1.082   5.200  2.3678  2.5403  0.5051
17480TIP3   OH273854   4.972   1.198   6.034 -0.3031  0.1644  1.2049
17480TIP3    H173855   4.960   1.284   6.074 -1.0874 -0.3271  2.0490
17480TIP3    H273856   5.021   1.148   6.098  2.9724  0.8516 -0.5104
17481TIP3   OH273857   0.324   2.442   6.705  0.8757 -0.1756 -0.1447
17481TIP3    H173858   0.279   2.525   6.721 -1.7320 -1.4887 -0.2069
17481TIP3    H273859   0.270   2.397   6.640  1.9278 -2.1448  0.2439
17482TIP3   OH273860   0.916   0.676  14.822  0.2523 -0.1163  0.1823
17482TIP3    H173861   0.997   0.625  14.815  0.1109 -0.4467  0.8765
17482TIP3    H273862   0.850   0.620  14.781  0.7001  0.9779 -2.1825
17483TIP3   OH273863   0.507   6.019  12.768 -0.3062 -0.6525  0.0527
17483TIP3    H173864   0.539   6.103  12.735 -0.0415 -0.0175  1.8490
17483TIP3    H273865   0.466   6.040  12.852 -1.5697 -2.1167 -0.1581
17484TIP3   OH273866   1.037   3.510   3.807 -0.1946  0.1897 -0.0989
17484TIP3    H173867   0.968   3.498   3.873 -0.4584  0.2036 -0.3739
17484TIP3    H273868   1.057   3.422   3.778  1.2713 -0.0149  1.3694
17485TIP3   OH273869   2.386   6.583   5.423  0.0471  0.3455  0.2461
17485TIP3    H173870   2.303   6.597   5.468  0.0082  0.4514  0.1436
17485TIP3    H273871   2.413   6.496   5.449  0.0989  0.4643  0.5901
17486TIP3   OH273872   5.527   1.962   3.851 -0.8199 -0.2605 -0.2572
17486TIP3    H173873   5.535   1.905   3.775 -1.5876 -1.5042  0.5585
17486TIP3    H273874   5.511   2.049   3.814 -2.8782 -1.1118 -1.5364
17487TIP3   OH273875   5.582   2.042  14.875 -0.4828  0.2431  0.0970
17487TIP3    H173876   5.528   1.978  14.920 -2.1779  0.0570 -2.0838
17487TIP3    H273877   5.650   1.991  14.831  0.6868  0.3621  1.6706
17488TIP3   OH273878   1.451   2.643  15.027  0.0086 -0.1801  0.7006
17488TIP3    H173879   1.472   2.571  14.967  1.2349 -0.2945  1.2329
17488TIP3    H273880   1.394   2.701  14.975 -0.3205 -1.1061 -0.0046
17489TIP3   OH273881   1.525   5.783  12.456  0.1495  0.4767  0.0311
17489TIP3    H173882   1.589   5.854  12.450  1.4311 -0.5151  1.3103
17489TIP3    H273883   1.468   5.808  12.528 -0.8314  1.2517 -0.9660
17490TIP3   OH273884   3.228   5.955   3.251 -0.0935  0.1110  0.0115
17490TIP3    H173885   3.321   5.962   3.230 -0.3776  0.4460 -1.2281
17490TIP3    H273886   3.185   6.015   3.190 -1.0459  0.6919  1.2039
17491TIP3   OH273887   2.585   0.449   2.509 -0.1501 -0.1839 -0.0411
17491TIP3    H173888   2.674   0.476   2.486 -0.1270  1.5657  1.7167
17491TIP3    H273889   2.594   0.414   2.598 -1.0449 -1.0757 -0.3019
17492TIP3   OH273890   3.326   5.256   1.650  0.4726  0.2182 -0.1686
17492TIP3    H173891   3.315   5.161   1.645  1.9416  0.0098  0.0306
17492TIP3    H273892   3.318   5.276   1.743  2.2423 -0.0347  0.0740
17493TIP3   OH273893   6.169   1.277   1.752  0.0682 -0.5538  0.1780
17493TIP3    H173894   6.115   1.294   1.675 -0.4428  1.5726  0.9224
17493TIP3    H273895   6.195   1.185   1.744 -0.3187 -0.5071 -2.2738
17494TIP3   OH273896   4.088   5.297   1.529  0.2320 -0.1494  0.3620
17494TIP3    H173897   4.072   5.236   1.458  2.7938 -1.4077  0.7611
17494TIP3    H273898   4.092   5.383   1.487 -0.3267 -0.6248 -0.6781
17495TIP3   OH273899   5.748   4.045   1.929  0.3045  0.2049  0.5046
17495TIP3    H173900   5.826   4.064   1.878  0.0750  1.5335  0.6122
17495TIP3    H273901   5.680   4.100   1.890 -0.5938 -0.9495  0.3926
17496TIP3   OH273902   2.910   5.293   3.352  0.3087  0.2963 -0.6928
17496TIP3    H173903   2.825   5.324   3.322 -0.6173 -0.9238  0.5177
17496TIP3    H273904   2.971   5.317   3.282 -1.1654  0.4295 -1.9800
17497TIP3   OH273905   3.616   1.428  12.483 -0.0821  0.1148  0.0670
17497TIP3    H173906   3.630   1.518  12.453 -1.5964 -0.1028 -1.4774
17497TIP3    H273907   3.687   1.378  12.443  0.9673  0.6423  1.2101
17498TIP3   OH273908   0.905   3.160  16.157 -0.1797 -0.0229  0.0023
17498TIP3    H173909   0.997   3.183  16.144  0.0720 -0.4473  0.9337
17498TIP3    H273910   0.870   3.231  16.211  0.0376 -0.6700  1.0284
17499TIP3   OH273911   4.937   6.220   1.592  0.2621  0.5928 -0.3148
17499TIP3    H173912   5.009   6.207   1.653 -0.5896 -0.4156  0.5148
17499TIP3    H273913   4.904   6.132   1.574  0.8472  0.7864 -2.7270
17500TIP3   OH273914   6.331   0.551   3.256  0.9206  0.0486  0.0948
17500TIP3    H173915   6.240   0.524   3.245  0.1852  2.3628  0.0098
17500TIP3    H273916   6.381   0.493   3.198 -0.5365 -0.9789 -0.1681
17501TIP3   OH273917   0.702   4.845   2.887  0.1926  0.2869 -0.0831
17501TIP3    H173918   0.710   4.767   2.832  0.1599  0.6865 -0.6626
17501TIP3    H273919   0.735   4.916   2.833 -1.3517  0.9483 -0.2011
17502TIP3   OH273920   4.246   5.314  15.667 -0.0164  0.2806  0.3519
17502TIP3    H173921   4.157   5.342  15.687 -0.0570 -0.7745  1.8563
17502TIP3    H273922   4.273   5.263  15.743  0.7086 -2.1366 -1.3674
17503TIP3   OH273923   6.616   1.434  15.386 -0.0442  0.7714  0.0789
17503TIP3    H173924   6.613   1.384  15.468 -0.2417 -0.4273 -0.6295
17503TIP3    H273925   6.638   1.523  15.413 -1.3981  0.7122  1.5730
17504TIP3   OH273926   1.264   0.410   1.991 -0.5668 -0.5873 -0.3647
17504TIP3    H173927   1.313   0.481   1.950 -0.5224 -0.6943 -0.4986
17504TIP3    H273928   1.277   0.423   2.085 -0.7626 -0.2730 -0.3775
17505TIP3   OH273929   5.603   0.548   4.541  0.1764  0.2457  0.0239
17505TIP3    H173930   5.603   0.584   4.452  1.9360 -0.3027 -0.2362
17505TIP3    H273931   5.657   0.609   4.592 -0.3337  0.2377  0.5878
17506TIP3   OH273932   3.687   3.915  10.939 -0.4148 -0.3535  0.6242
17506TIP3    H173933   3.659   3.825  10.952  3.1005 -1.6239  0.4330
17506TIP3    H273934   3.688   3.927  10.844 -0.1405 -0.3748  0.6240
17507TIP3   OH273935   1.806   4.367   4.226 -0.6311 -0.3027 -0.2307
17507TIP3    H173936   1.873   4.366   4.294 -0.8841 -1.1951  0.0082
17507TIP3    H273937   1.800   4.459   4.200 -0.4417  0.0199  0.8487
17508TIP3   OH273938   0.608   3.304   1.157 -0.2428  0.0474 -0.3354
17508TIP3    H173939   0.545   3.248   1.111 -1.4729 -0.3018  1.6824
17508TIP3    H273940   0.567   3.390   1.157  0.5582  0.4449 -1.3620
17509TIP3   OH273941   6.568   4.183   3.073 -0.1186 -0.3400  0.5176
17509TIP3    H173942   6.593   4.115   3.009 -2.0926  1.3730 -2.3171
17509TIP3    H273943   6.483   4.154   3.106 -0.5707  0.2821 -0.0691
17510TIP3   OH273944   1.534   6.608   2.290  0.0830 -0.2718 -0.1502
17510TIP3    H173945   1.579   6.635   2.210  0.5409 -1.1610 -0.1997
17510TIP3    H273946   1.567   6.669   2.357 -2.1338  2.1035 -1.0461
17511TIP3   OH273947   5.550   5.178  15.022 -0.4555 -0.6280  0.2875
17511TIP3    H173948   5.479   5.221  15.069  0.2350  0.6512  0.1945
17511TIP3    H273949   5.558   5.092  15.064  1.5345  1.1428  4.0777
17512TIP3   OH273950   4.466   1.731   2.326 -0.2398 -0.8005  0.0550
17512TIP3    H173951   4.529   1.800   2.303 -0.4108 -0.6338  0.0811
17512TIP3    H273952   4.517   1.669   2.378 -0.5125  0.2636  1.6789
17513TIP3   OH273953   6.433   4.217  14.085 -0.1122  0.8116  0.2005
17513TIP3    H173954   6.516   4.171  14.099 -0.0190  0.5198 -1.1534
17513TIP3    H273955   6.398   4.180  14.004 -1.5174  1.0144  0.6833
17514TIP3   OH273956   5.405   2.643   0.493 -0.2710 -0.2558 -0.2926
17514TIP3    H173957   5.367   2.614   0.410 -1.8180 -0.2577  0.3880
17514TIP3    H273958   5.330   2.667   0.547  0.7801  1.6014  0.4448
17515TIP3   OH273959   1.487   6.470   1.803 -0.0752 -0.0580  0.2169
17515TIP3    H173960   1.561   6.474   1.742 -1.2599  0.0089 -1.2698
17515TIP3    H273961   1.525   6.439   1.885  1.1009 -2.9012 -1.2933
17516TIP3   OH273962   6.696   0.833  15.410  0.4965  0.9388 -0.2534
17516TIP3    H173963   6.771   0.890  15.395 -0.6191  2.1606 -1.4775
17516TIP3    H273964   6.624   0.876  15.363 -0.0413 -2.3722 -2.8041
17517TIP3   OH273965   1.863   5.080   5.897  0.0814  0.2088 -0.5942
17517TIP3    H173966   1.933   5.093   5.962 -0.0866 -0.6541 -0.2267
17517TIP3    H273967   1.789   5.129   5.932  0.3213  0.6328 -0.6789
17518TIP3   OH273968   5.368   0.437  16.953 -0.3183  0.1076 -0.2158
17518TIP3    H173969   5.432   0.507  16.934 -0.5945  1.1846  2.4214
17518TIP3    H273970   5.408   0.386  17.023 -0.6713 -1.7148 -1.2737
17519TIP3   OH273971   1.744   4.141  14.040  0.0033 -0.7390  0.2159
17519TIP3    H173972   1.662   4.147  14.088 -0.4085 -0.5201 -0.5144
17519TIP3    H273973   1.752   4.224  13.993 -0.2638 -1.4605 -1.1489
17520TIP3   OH273974   3.122   4.913  12.010 -0.1613  0.0144 -0.2703
17520TIP3    H173975   3.034   4.891  12.041  0.7777 -0.3133  2.3911
17520TIP3    H273976   3.164   4.828  11.996  0.3185  0.1531  0.3060
17521TIP3   OH273977   5.782   4.839   4.605 -0.0028  0.1632  0.4508
17521TIP3    H173978   5.810   4.766   4.660 -0.2791 -0.3145 -0.0214
17521TIP3    H273979   5.718   4.799   4.545 -0.3080  0.8404  0.3233
17522TIP3   OH273980   3.659   2.814   3.169 -0.6243 -0.1296 -0.2999
17522TIP3    H173981   3.746   2.806   3.132 -0.5028  0.1621 -0.0806
17522TIP3    H273982   3.617   2.883   3.118 -1.0935 -0.9758 -1.0915
17523TIP3   OH273983   6.084   2.626  12.468  0.2890 -0.2947 -0.0136
17523TIP3    H173984   6.071   2.721  12.471 -0.1202 -0.3608  0.5317
17523TIP3    H273985   6.063   2.596  12.557  0.8686 -0.8413 -0.0553
17524TIP3   OH273986   2.699   1.382   2.198 -0.0514  0.1878 -0.0479
17524TIP3    H173987   2.780   1.333   2.212  1.5780  2.8821  0.7050
17524TIP3    H273988   2.630   1.325   2.230  1.4816 -2.3248 -0.9814
17525TIP3   OH273989   0.489   3.074   4.538 -0.0040 -0.0835 -0.2955
17525TIP3    H173990   0.530   3.070   4.451 -2.0901  1.2618 -1.4347
17525TIP3    H273991   0.461   2.985   4.556 -0.2002 -0.2508 -1.3631
17526TIP3   OH273992   1.018   2.637   4.449  0.1111 -0.3756 -0.2820
17526TIP3    H173993   0.925   2.642   4.429  0.2028  0.9382 -0.4475
17526TIP3    H273994   1.031   2.699   4.521  0.7413 -1.0779  0.2261
17527TIP3   OH273995   3.482   5.701   4.144 -0.6182  0.0006  0.1009
17527TIP3    H173996   3.552   5.687   4.208  0.7408  0.5866 -1.1879
17527TIP3    H273997   3.463   5.794   4.149 -1.0243 -0.0855  0.1627
17528TIP3   OH273998   6.715   4.258   0.927  0.1939 -0.3275 -0.0035
17528TIP3    H173999   6.765   4.202   0.867 -0.8002 -0.1531 -1.0315
17528TIP3    H274000   6.780   4.294   0.987  0.8302 -2.8877  0.9706
17529TIP3   OH274001   3.070   6.377   2.064  0.0332 -0.0893 -0.4431
17529TIP3    H174002   3.041   6.288   2.084 -0.5992  0.3040  0.4336
17529TIP3    H274003   2.992   6.421   2.032  0.0840  0.4463  0.1464
17530TIP3   OH274004   5.208   5.223  12.346  0.0167  0.1048  0.2754
17530TIP3    H174005   5.129   5.262  12.384 -0.3244 -0.1530 -0.1591
17530TIP3    H274006   5.212   5.136  12.385 -0.8961 -0.5444 -1.0113
17531TIP3   OH274007   3.168   5.853   6.513 -0.3384  0.4193  0.2855
17531TIP3    H174008   3.236   5.915   6.539 -1.2836  1.1142  1.1927
17531TIP3    H274009   3.212   5.794   6.452  0.9923  1.0308  0.6046
17532TIP3   OH274010   2.351   3.442   4.598 -0.0955 -0.2008  0.2815
17532TIP3    H174011   2.404   3.472   4.671  0.0468  0.3528 -0.0394
17532TIP3    H274012   2.261   3.467   4.622 -0.0523 -0.0429  0.2825
17533TIP3   OH274013   4.400   3.877   0.185  0.5391 -0.1740 -0.0616
17533TIP3    H174014   4.474   3.828   0.148  1.4026  1.5331 -0.7096
17533TIP3    H274015   4.437   3.922   0.261  0.4503  1.4268 -0.9190
17534TIP3   OH274016   3.942   2.368   5.260  0.3966  0.1984 -0.0207
17534TIP3    H174017   3.857   2.403   5.285 -0.0349 -0.8343  0.0160
17534TIP3    H274018   3.924   2.311   5.185  1.2088  0.7369 -0.6554
17535TIP3   OH274019   6.239   3.645   2.757 -0.2154 -0.7191  0.3516
17535TIP3    H174020   6.320   3.687   2.726  0.4525 -1.0287  1.5984
17535TIP3    H274021   6.172   3.675   2.695  0.8989 -0.7292 -0.9272
17536TIP3   OH274022   1.583   2.499  16.437 -0.6027  0.5510 -0.0276
17536TIP3    H174023   1.632   2.564  16.489 -0.7597  0.3012  0.4341
17536TIP3    H274024   1.568   2.543  16.353 -1.6771  1.5495  0.6585
17537TIP3   OH274025   2.642   5.366   3.317  0.0893  0.6236 -0.0818
17537TIP3    H174026   2.577   5.347   3.249 -0.8321 -0.9338  1.1646
17537TIP3    H274027   2.619   5.454   3.348 -1.3885  0.1487  0.2515
17538TIP3   OH274028   4.971   4.789  16.611  0.3415 -0.4376  0.1512
17538TIP3    H174029   4.986   4.697  16.633 -0.0961 -0.4946  0.2200
17538TIP3    H274030   5.004   4.798  16.522  0.9340 -0.5191  0.3584
17539TIP3   OH274031   2.767   5.830   5.562  0.5867  0.3620 -0.2570
17539TIP3    H174032   2.779   5.770   5.489 -0.9018 -0.9271  0.4960
17539TIP3    H274033   2.812   5.788   5.635 -0.6339  0.0061  0.3226
17540TIP3   OH274034   0.770   3.562   4.170  0.5476 -0.1219  0.6274
17540TIP3    H174035   0.837   3.519   4.117  0.3434 -1.1832  1.1912
17540TIP3    H274036   0.708   3.492   4.190 -0.8512  0.8772 -0.0643
17541TIP3   OH274037   1.423   2.101  16.406  0.0723  0.5179  0.1388
17541TIP3    H174038   1.517   2.114  16.409  0.2276 -0.0178 -1.7133
17541TIP3    H274039   1.390   2.151  16.482  1.8850 -0.0597  1.3650
17542TIP3   OH274040   0.384   1.631   2.132  0.1932  0.1517  0.2729
17542TIP3    H174041   0.322   1.589   2.072 -0.7944 -0.5113  1.7118
17542TIP3    H274042   0.462   1.646   2.078 -0.6147 -0.5193 -1.1485
17543TIP3   OH274043   5.464   3.121  13.913  0.3927 -0.2611  0.4079
17543TIP3    H174044   5.401   3.175  13.960  0.0536  0.5629 -0.9228
17543TIP3    H274045   5.550   3.151  13.943  0.1853  0.3849  0.3556
17544TIP3   OH274046   6.359   3.715   1.910 -0.1962  0.2388 -0.7141
17544TIP3    H174047   6.382   3.716   2.003  0.9708  0.8351 -0.9906
17544TIP3    H274048   6.416   3.781   1.870 -2.2991  1.6726 -1.5049
17545TIP3   OH274049   2.324   6.468  12.957 -0.0121 -0.3264 -0.1514
17545TIP3    H174050   2.234   6.441  12.940 -0.1527  0.4368 -0.6723
17545TIP3    H274051   2.322   6.564  12.950  0.5260 -0.1763  1.3288
17546TIP3   OH274052   0.049   3.688   3.731  0.2272 -0.1498 -0.0903
17546TIP3    H174053  -0.040   3.695   3.698  0.2977 -1.4227 -0.5950
17546TIP3    H274054   0.041   3.639   3.813  0.3719  0.5271  0.3380
17547TIP3   OH274055   3.728   0.761   4.281 -0.4167 -0.1857  0.5624
17547TIP3    H174056   3.647   0.811   4.292 -2.0216 -2.2956 -0.8527
17547TIP3    H274057   3.708   0.698   4.211  3.3221  0.9453 -1.8291
17548TIP3   OH274058   5.198   3.286   5.693 -0.3169  0.6666 -0.0382
17548TIP3    H174059   5.214   3.369   5.737 -1.8653  0.8544  0.2361
17548TIP3    H274060   5.163   3.229   5.761  0.4008 -0.1171 -0.3006
17549TIP3   OH274061   2.843   2.971  13.187 -0.0351 -0.0082 -0.4699
17549TIP3    H174062   2.754   2.989  13.157 -0.6045 -1.2298  0.4198
17549TIP3    H274063   2.849   2.875  13.190  1.0834  0.0603  0.1298
17550TIP3   OH274064   1.149   4.411  11.353 -0.3624 -0.0248 -0.3986
17550TIP3    H174065   1.226   4.461  11.324 -0.1336 -1.1137 -1.7577
17550TIP3    H274066   1.082   4.431  11.288 -1.0429  0.3922  0.4128
17551TIP3   OH274067   3.191   0.275  13.530  0.5174  0.1369  0.0875
17551TIP3    H174068   3.284   0.270  13.508  0.5947  1.9259 -0.1439
17551TIP3    H274069   3.190   0.274  13.626  0.8502  0.7493  0.1073
17552TIP3   OH274070   2.498   3.395  15.942 -0.2649  0.3127  0.3717
17552TIP3    H174071   2.517   3.396  15.848 -0.1588 -1.3786  0.3500
17552TIP3    H274072   2.584   3.398  15.984  0.0881 -3.6985  0.3043
17553TIP3   OH274073   0.818   0.616   0.464  0.4042 -0.1599  0.6538
17553TIP3    H174074   0.734   0.609   0.510 -0.1914  1.5910 -0.0771
17553TIP3    H274075   0.806   0.565   0.384 -0.2799  0.7230  0.1696
17554TIP3   OH274076   1.134   0.814  15.925  0.2555 -0.1674 -0.0226
17554TIP3    H174077   1.074   0.889  15.922 -0.6915 -0.9276 -1.2302
17554TIP3    H274078   1.141   0.793  16.018 -1.8703 -0.4170  0.1275
17555TIP3   OH274079   2.528   4.467   4.080  0.2128 -0.1855  0.0901
17555TIP3    H174080   2.476   4.504   4.009  0.9125 -1.5503 -1.2039
17555TIP3    H274081   2.593   4.413   4.036  0.5544 -1.2362  1.7891
17556TIP3   OH274082   6.450   5.939   1.957  0.5116  0.1813  0.1341
17556TIP3    H174083   6.373   5.994   1.940  0.7168  0.2421 -0.6443
17556TIP3    H274084   6.489   5.975   2.036  0.5030  1.0012 -0.2303
17557TIP3   OH274085   2.024   5.387  16.120  0.2602 -0.3102 -0.2960
17557TIP3    H174086   2.053   5.395  16.211 -0.9002 -0.5906  0.1136
17557TIP3    H274087   1.944   5.335  16.125 -1.8006  2.5750 -1.0753
17558TIP3   OH274088   2.818   0.885  12.441  0.4463  0.3934 -0.5681
17558TIP3    H174089   2.893   0.860  12.495  0.2040  0.1547 -0.3387
17558TIP3    H274090   2.743   0.881  12.501  0.3767  1.5582 -0.5437
17559TIP3   OH274091   4.093   4.303   6.022  0.4817 -0.4499 -0.2774
17559TIP3    H174092   4.091   4.295   6.117 -2.6747 -1.2908 -0.3138
17559TIP3    H274093   4.097   4.398   6.007 -1.6795 -0.1015  0.8196
17560TIP3   OH274094   1.432   2.689  13.105  0.0737  0.2731  0.1471
17560TIP3    H174095   1.373   2.667  13.033  1.4840  0.5173 -1.1374
17560TIP3    H274096   1.388   2.657  13.183 -2.1233  1.1504 -0.6473
17561TIP3   OH274097   4.426   1.518  12.317  0.2292  0.3087  0.2905
17561TIP3    H174098   4.337   1.511  12.282  0.0092  3.2218  0.0465
17561TIP3    H274099   4.482   1.480  12.250 -0.7225 -0.4745 -0.0785
17562TIP3   OH274100   5.525   0.099   0.052  0.0118 -0.3167  0.3077
17562TIP3    H174101   5.484   0.076   0.135 -0.5273 -0.6592 -0.0468
17562TIP3    H274102   5.563   0.018   0.020 -0.4728 -0.3693 -0.1570
17563TIP3   OH274103   1.089   3.792   1.098 -0.5162 -0.3645 -0.4337
17563TIP3    H174104   1.048   3.844   1.167  1.3802  2.4130 -1.2492
17563TIP3    H274105   1.129   3.856   1.040  1.4644 -2.7464 -1.8982
17564TIP3   OH274106   6.162   4.273  12.267 -0.1405 -0.0081  0.3606
17564TIP3    H174107   6.137   4.184  12.294  1.2728 -0.2453  0.9996
17564TIP3    H274108   6.225   4.301  12.334  0.2849  1.0429 -0.4522
17565TIP3   OH274109   1.014   6.377   4.091  0.6354 -0.4325  0.3614
17565TIP3    H174110   0.959   6.310   4.050  0.9300 -0.1232 -0.5773
17565TIP3    H274111   0.957   6.418   4.156 -0.0115 -0.6069 -0.0796
17566TIP3   OH274112   5.333   0.556  16.303  0.9772 -0.2729  0.4598
17566TIP3    H174113   5.301   0.549  16.393 -1.1873 -1.0636 -0.3079
17566TIP3    H274114   5.254   0.571  16.250  1.8996 -1.8044 -1.5121
17567TIP3   OH274115   3.060   0.421   6.445 -0.2274 -0.0687  0.1868
17567TIP3    H174116   3.145   0.464   6.455  0.3506 -0.9563 -0.6722
17567TIP3    H274117   2.998   0.479   6.489  0.7446  0.8542  0.3815
17568TIP3   OH274118   3.208   3.587   5.155  0.0773  0.0031 -0.7615
17568TIP3    H174119   3.120   3.586   5.193  0.0307 -1.6189 -0.8133
17568TIP3    H274120   3.226   3.679   5.137  0.4569  1.1611  3.9933
17569TIP3   OH274121   1.626   0.362   3.493 -0.3009 -0.1493  0.2720
17569TIP3    H174122   1.614   0.366   3.398 -0.8697  5.8360  0.1708
17569TIP3    H274123   1.549   0.316   3.526 -1.7141  0.3582 -2.0973
17570TIP3   OH274124   5.275   5.485   6.929  0.4674  0.4434 -0.2422
17570TIP3    H174125   5.332   5.468   6.854  0.6164  0.7500 -0.1994
17570TIP3    H274126   5.301   5.571   6.959  0.6785  0.1568  0.4082
17571TIP3   OH274127   0.833   3.177   1.028 -0.2773  0.2505 -0.1107
17571TIP3    H174128   0.887   3.254   1.009  1.0946 -0.6137  0.1724
17571TIP3    H274129   0.758   3.212   1.076  1.3699  1.2262  1.9179
17572TIP3   OH274130   2.773   6.154   3.031 -0.0053 -0.1095 -0.1080
17572TIP3    H174131   2.679   6.169   3.044  0.1339 -0.6276  1.6824
17572TIP3    H274132   2.812   6.240   3.043 -0.0844 -0.2235  1.0537
17573TIP3   OH274133   6.379   5.789   0.644  0.0953  0.4929  0.7123
17573TIP3    H174134   6.317   5.848   0.601  0.0191  0.7641  1.1846
17573TIP3    H274135   6.391   5.717   0.583 -1.2943  0.0442  0.9485
17574TIP3   OH274136   0.902   2.955  12.382 -0.0918 -0.2074 -0.4568
17574TIP3    H174137   0.985   2.954  12.428 -0.3472  2.0898  0.1551
17574TIP3    H274138   0.925   2.936  12.291  0.8904 -0.9983 -0.0619
17575TIP3   OH274139   0.877   2.222   5.120 -0.1163 -0.0387 -0.2738
17575TIP3    H174140   0.964   2.259   5.107  0.0497  0.0495  0.9287
17575TIP3    H274141   0.868   2.155   5.052  0.6263  0.4026 -0.8118
17576TIP3   OH274142   4.099   2.404  15.558  0.0398  0.0609  0.2934
17576TIP3    H174143   4.017   2.449  15.576  0.5811  1.6150 -0.8937
17576TIP3    H274144   4.077   2.337  15.493  0.0646  2.1341 -2.0028
17577TIP3   OH274145   1.538   5.569  11.516  0.0525 -0.1977 -0.2808
17577TIP3    H174146   1.606   5.636  11.511  1.5004 -1.4277  1.5585
17577TIP3    H274147   1.584   5.487  11.497 -1.5637 -0.7927 -1.9993
17578TIP3   OH274148   4.865   2.233   2.422  0.1991  0.0121  0.8479
17578TIP3    H174149   4.856   2.139   2.442  0.7401 -0.7814 -2.1167
17578TIP3    H274150   4.787   2.254   2.371  1.5567  0.3092 -1.2038
17579TIP3   OH274151   4.952   5.406   4.706  0.1061 -0.2447 -0.0604
17579TIP3    H174152   4.856   5.406   4.704 -0.0858 -2.8590  2.2969
17579TIP3    H274153   4.976   5.496   4.727 -1.8766  0.2162  0.4267
17580TIP3   OH274154   5.812   6.563   3.130 -0.1970  0.1481 -0.0463
17580TIP3    H174155   5.821   6.491   3.068 -0.6068 -0.4721  0.5951
17580TIP3    H274156   5.745   6.533   3.192  0.3073  0.6757  0.7804
17581TIP3   OH274157   4.430   4.957   4.922  0.7576  0.1340  0.0644
17581TIP3    H174158   4.518   4.992   4.929  0.4335  0.6365  2.0786
17581TIP3    H274159   4.380   5.025   4.876  1.0259  0.5842  0.4391
17582TIP3   OH274160   6.734   5.124   2.241 -0.2653 -0.1613  0.1545
17582TIP3    H174161   6.679   5.181   2.295  0.4786  1.9991 -1.2431
17582TIP3    H274162   6.755   5.050   2.298 -2.7020  0.0556  1.4818
17583TIP3   OH274163   5.516   4.349   6.249  0.4517  0.1117  0.5460
17583TIP3    H174164   5.505   4.441   6.225  0.8088  0.1220  0.4215
17583TIP3    H274165   5.446   4.303   6.203 -1.0521  0.5846  2.2359
17584TIP3   OH274166   0.499   6.516   2.714  0.8343 -0.3013  0.0476
17584TIP3    H174167   0.556   6.572   2.767  0.5137  0.6263 -0.5669
17584TIP3    H274168   0.412   6.529   2.752  0.4269  1.1570 -1.3025
17585TIP3   OH274169   1.448   6.438   3.328  0.4083 -0.4807 -0.3015
17585TIP3    H174170   1.425   6.459   3.418 -0.1399 -0.6680 -0.3920
17585TIP3    H274171   1.510   6.365   3.336  0.9282 -0.0115 -0.0538
17586TIP3   OH274172   1.982   3.290   2.324  0.3302 -0.0323  0.6712
17586TIP3    H174173   2.000   3.215   2.381  1.4740 -0.3045 -0.0094
17586TIP3    H274174   1.982   3.366   2.383  2.1174 -0.2342  1.0036
17587TIP3   OH274175   5.859   4.686  12.223 -0.0701 -0.5351  0.0035
17587TIP3    H174176   5.857   4.591  12.237  0.8360 -0.3866  1.3059
17587TIP3    H274177   5.939   4.715  12.266 -0.3835  0.8482 -0.2984
17588TIP3   OH274178   2.189   1.424  13.787 -0.2157  0.3841  0.3122
17588TIP3    H174179   2.101   1.405  13.755 -0.1734 -0.4505  0.6589
17588TIP3    H274180   2.223   1.491  13.727  0.4245 -2.1162 -2.3628
17589TIP3   OH274181   6.711   3.760  13.601  0.5276 -0.0859  0.1045
17589TIP3    H174182   6.713   3.850  13.635  1.6585  0.2675 -0.8288
17589TIP3    H274183   6.789   3.754  13.545 -0.0612 -1.3507 -0.6120
17590TIP3   OH274184   3.691   2.387   2.694 -0.0914  0.3590  0.0086
17590TIP3    H174185   3.721   2.358   2.608  0.3138 -0.8183  0.5204
17590TIP3    H274186   3.641   2.313   2.729  1.6781 -0.1355  1.7065
17591TIP3   OH274187   6.534   1.072  12.568  0.0726  0.1193  0.0492
17591TIP3    H174188   6.474   1.042  12.500  0.0409  1.3985 -0.5193
17591TIP3    H274189   6.498   1.036  12.649 -0.9999  0.1730 -0.3875
17592TIP3   OH274190   0.034   1.162   4.435  0.0141 -0.1103 -0.6431
17592TIP3    H174191   0.029   1.257   4.430  0.1187  0.0908  2.0239
17592TIP3    H274192  -0.056   1.135   4.457  0.4697 -0.3866  0.9878
17593TIP3   OH274193   1.501   1.290  14.519 -0.7982  0.2350  0.0299
17593TIP3    H174194   1.407   1.312  14.520 -0.9169 -0.2267 -0.4105
17593TIP3    H274195   1.545   1.373  14.535 -1.2496  0.8058 -1.4896
17594TIP3   OH274196   6.285   2.012   5.247 -0.0868 -0.2785 -0.5404
17594TIP3    H174197   6.228   2.064   5.302 -0.0386  1.3233 -1.9287
17594TIP3    H274198   6.250   1.923   5.253 -2.0974  0.4720 -0.5501
17595TIP3   OH274199   5.522   0.927   1.571 -0.1179  0.5225  0.1125
17595TIP3    H174200   5.608   0.896   1.602 -0.3866  0.2939  0.6391
17595TIP3    H274201   5.542   0.981   1.494  0.4053 -0.4878 -0.4723
17596TIP3   OH274202   2.122   3.624   1.872  0.4248  0.0539  0.5841
17596TIP3    H174203   2.086   3.701   1.916 -0.1119  0.2895 -0.2575
17596TIP3    H274204   2.102   3.551   1.930 -1.5818  0.1472  0.0512
17597TIP3   OH274205   3.316   5.558   2.422 -0.7518  0.1593 -0.2276
17597TIP3    H174206   3.245   5.534   2.363 -0.8662  0.4463 -0.2071
17597TIP3    H274207   3.350   5.474   2.454 -0.1311 -0.0298 -1.3481
17598TIP3   OH274208   3.991   5.371   2.553 -0.3006 -0.2076 -0.0147
17598TIP3    H174209   4.046   5.314   2.499 -1.3923 -1.3156 -0.0052
17598TIP3    H274210   3.906   5.369   2.509 -0.3725  1.4297 -0.0058
17599TIP3   OH274211   4.245   3.805   3.417  0.2707  0.7629 -0.3169
17599TIP3    H174212   4.280   3.826   3.504 -0.7461  0.9009  0.0738
17599TIP3    H274213   4.196   3.723   3.431  2.2536 -0.6767 -1.3224
17600TIP3   OH274214   1.060   0.597   1.344 -0.0241  0.1493 -0.3489
17600TIP3    H174215   1.000   0.616   1.273 -0.9919  1.9706  0.8788
17600TIP3    H274216   1.065   0.501   1.347  1.3005 -0.0327 -3.8130
17601TIP3   OH274217   5.340   2.354  13.052 -0.2878  0.0234  0.2211
17601TIP3    H174218   5.275   2.289  13.078  0.6633 -1.2600 -0.4759
17601TIP3    H274219   5.422   2.305  13.048  0.2640  1.0142 -1.4441
17602TIP3   OH274220   4.478   2.894   6.188  0.1539  0.1734 -0.3126
17602TIP3    H174221   4.502   2.978   6.226  0.2273 -0.0009  0.0302
17602TIP3    H274222   4.393   2.910   6.147  0.3458  0.5107 -0.5831
17603TIP3   OH274223   6.672   2.150  11.837 -0.0041  0.1464 -0.2304
17603TIP3    H174224   6.716   2.216  11.783 -1.0253  0.8426 -0.2509
17603TIP3    H274225   6.639   2.200  11.912  0.1765 -0.5582  0.3287
17604TIP3   OH274226   0.415   4.443   1.301 -0.2778  0.4173 -0.2064
17604TIP3    H174227   0.334   4.459   1.349  0.1353  0.8119  0.3766
17604TIP3    H274228   0.442   4.355   1.329 -0.1635  0.5516  0.1208
17605TIP3   OH274229   1.286   4.772   2.635  0.0348  0.7926  0.2056
17605TIP3    H174230   1.201   4.741   2.666  0.2117  0.0067 -0.0599
17605TIP3    H274231   1.273   4.864   2.614 -1.0122  0.4429 -0.7688
17606TIP3   OH274232   4.073   3.158  13.067 -0.0919  0.3459 -0.4134
17606TIP3    H174233   4.116   3.159  12.982 -0.3347 -0.9798 -0.5764
17606TIP3    H274234   4.144   3.149  13.130  0.0371  0.6519 -0.5136
17607TIP3   OH274235   0.002   6.046   2.317 -0.2727 -0.4292 -0.2715
17607TIP3    H174236  -0.064   6.110   2.291  0.9358  0.5486 -1.1008
17607TIP3    H274237  -0.017   5.969   2.263  0.3791  0.5270 -1.9635
17608TIP3   OH274238   4.224   2.435   0.543  0.3201  0.4860 -0.2877
17608TIP3    H174239   4.258   2.452   0.455  0.2248 -1.5383 -0.7617
17608TIP3    H274240   4.129   2.442   0.534  0.3610  2.0516  0.1079
17609TIP3   OH274241   0.522   1.664   3.779  0.5406  0.1420  0.1036
17609TIP3    H174242   0.530   1.674   3.874 -2.0264  0.8253  0.3192
17609TIP3    H274243   0.492   1.574   3.767  1.3234 -0.0953 -0.1076
17610TIP3   OH274244   5.312   0.159   4.732 -0.1696 -0.2847 -0.2486
17610TIP3    H174245   5.300   0.169   4.826 -1.5512  4.3737 -0.6853
17610TIP3    H274246   5.229   0.122   4.701 -1.4757  2.1578  0.0722
17611TIP3   OH274247   4.157   1.981  12.317  0.2535  0.9824  0.3394
17611TIP3    H174248   4.188   1.933  12.241 -0.3383  2.3720 -0.8310
17611TIP3    H274249   4.187   1.929  12.392  1.7427  0.1047 -0.7973
17612TIP3   OH274250   5.960   3.485  11.236  0.0510 -0.1954  0.0703
17612TIP3    H174251   6.002   3.570  11.242  1.7702 -1.0561  1.1636
17612TIP3    H274252   5.963   3.463  11.142  0.0352  0.7245 -0.1493
17613TIP3   OH274253   3.366   2.159  16.277 -0.1038  0.1782  0.0692
17613TIP3    H174254   3.346   2.165  16.183 -1.1996 -0.2294  0.2629
17613TIP3    H274255   3.452   2.200  16.285 -0.6260  1.5719 -0.8925
17614TIP3   OH274256   4.362   0.583  12.786  0.2724  0.2159 -0.2390
17614TIP3    H174257   4.408   0.663  12.759 -1.9898  1.3800 -0.9188
17614TIP3    H274258   4.391   0.568  12.876  0.9423  1.6708 -0.1835
17615TIP3   OH274259   3.631   2.556   4.875 -0.4197 -0.4339 -0.1227
17615TIP3    H174260   3.690   2.587   4.943 -0.8709 -1.9811  1.0376
17615TIP3    H274261   3.546   2.549   4.918 -1.3297  1.0198 -1.5515
17616TIP3   OH274262   1.242   3.200   3.768 -0.3696 -0.0884  0.4591
17616TIP3    H174263   1.320   3.245   3.736 -0.7622  0.0912 -0.2789
17616TIP3    H274264   1.236   3.224   3.860  0.3089  0.0899  0.4608
17617TIP3   OH274265   2.765   5.520   6.407  0.3477  0.0072  0.4031
17617TIP3    H174266   2.696   5.576   6.443  0.3256  0.5691 -0.4801
17617TIP3    H274267   2.842   5.537   6.462 -0.1775 -0.5658  1.3470
17618TIP3   OH274268   5.917   1.215   6.483  0.0976  0.5103 -0.2532
17618TIP3    H174269   5.930   1.198   6.390  1.6862 -0.3591  0.0936
17618TIP3    H274270   5.863   1.142   6.513  1.1447 -0.2333 -0.1403
17619TIP3   OH274271   1.911   0.729   2.215 -0.0072  0.3226 -0.0187
17619TIP3    H174272   1.862   0.683   2.283 -1.6529  2.9125  0.6891
17619TIP3    H274273   1.924   0.817   2.250  1.3333  1.0178 -2.0577
17620TIP3   OH274274   4.876   2.975   3.898 -0.0906  0.1469  0.6506
17620TIP3    H174275   4.957   2.957   3.946 -0.0594 -1.0668  0.1969
17620TIP3    H274276   4.823   2.897   3.913 -0.6726  0.4047 -0.0634
17621TIP3   OH274277   6.577   4.540   2.658 -0.0707 -0.1018 -0.0938
17621TIP3    H174278   6.640   4.493   2.713  0.4901 -0.5004 -1.0571
17621TIP3    H274279   6.498   4.485   2.660  0.1241 -0.3824 -0.1217
17622TIP3   OH274280   0.009   0.293   1.243  0.2260  0.1560  0.2142
17622TIP3    H174281  -0.060   0.228   1.230  0.4787 -0.1378  0.3189
17622TIP3    H274282  -0.028   0.356   1.305 -0.2932  0.5276 -0.4615
17623TIP3   OH274283   4.385   5.356   0.574  0.3093  0.0909  0.4543
17623TIP3    H174284   4.379   5.435   0.628 -0.2692 -1.4002  2.7463
17623TIP3    H274285   4.296   5.344   0.541  0.5072  0.6356 -0.2978
17624TIP3   OH274286   0.339   1.915  12.935 -0.4909 -0.4728  0.1397
17624TIP3    H174287   0.326   2.006  12.909  0.4195  0.7774  3.4396
17624TIP3    H274288   0.267   1.898  12.997 -0.3617 -1.8268 -0.0601
17625TIP3   OH274289   4.262   1.862  11.306  0.1455 -0.8326  0.4554
17625TIP3    H174290   4.267   1.866  11.210  0.5650 -0.5399  0.4914
17625TIP3    H274291   4.215   1.941  11.331 -0.9602 -1.4581  0.4198
17626TIP3   OH274292   3.125   3.593  15.954 -0.0306 -0.6889 -0.0986
17626TIP3    H174293   3.152   3.685  15.959  0.9798 -1.0394  1.8660
17626TIP3    H274294   3.029   3.596  15.961 -0.1174  0.2545 -1.3673
17627TIP3   OH274295   5.441   1.386   4.437 -0.4610 -0.4540  0.6609
17627TIP3    H174296   5.399   1.330   4.502  0.6873 -0.5022  1.3852
17627TIP3    H274297   5.483   1.455   4.487 -0.5032  0.1525 -0.1170
17628TIP3   OH274298   0.815   6.698  15.485  0.0962  0.6293  0.2796
17628TIP3    H174299   0.906   6.728  15.487 -0.2380  1.7171  2.4454
17628TIP3    H274300   0.788   6.698  15.577 -2.0691  0.2249 -0.3003
17629TIP3   OH274301   5.113   2.866  12.363 -0.4915 -0.1423 -0.2981
17629TIP3    H174302   5.035   2.811  12.372  0.1643 -1.2405 -1.0854
17629TIP3    H274303   5.114   2.891  12.271  0.0382 -0.0683 -0.2752
17630TIP3   OH274304   2.013   1.475  14.633  0.2379  0.3347 -0.9464
17630TIP3    H174305   1.971   1.414  14.695 -3.1297  2.0944 -1.2487
17630TIP3    H274306   2.035   1.551  14.686  1.3020  0.2040 -1.1829
17631TIP3   OH274307   4.369   4.154  11.832 -0.1547 -0.3641  0.7113
17631TIP3    H174308   4.360   4.177  11.925 -1.5136  0.4208  0.4112
17631TIP3    H274309   4.447   4.099  11.829  1.9822  2.3831  1.8108
17632TIP3   OH274310   3.629   6.700  12.986  1.1252 -0.1514  0.5672
17632TIP3    H174311   3.648   6.731  12.897  0.1167 -0.9184  0.0694
17632TIP3    H274312   3.695   6.632  13.001  0.4426 -0.9994 -0.1526
17633TIP3   OH274313   2.756   0.795   2.736  0.0331 -0.2918  0.3952
17633TIP3    H174314   2.746   0.704   2.708 -2.9956 -0.2359  0.9417
17633TIP3    H274315   2.724   0.797   2.826 -0.9479  1.4333  0.0741
17634TIP3   OH274316   1.712   0.870  17.033  0.1288 -0.1522  0.6206
17634TIP3    H174317   1.780   0.841  16.973 -0.4390  0.7806 -0.4935
17634TIP3    H274318   1.651   0.920  16.979 -1.9701 -1.7144  1.3718
17635TIP3   OH274319   0.575   0.284   0.962 -0.3947 -0.2652  0.2280
17635TIP3    H174320   0.529   0.225   0.903 -0.2162  1.2513 -1.4947
17635TIP3    H274321   0.509   0.346   0.991 -0.1554 -0.1120  0.4563
17636TIP3   OH274322   1.479   0.854  13.193  0.4384 -0.6348  0.1156
17636TIP3    H174323   1.465   0.949  13.193  0.1659 -0.6128 -2.2285
17636TIP3    H274324   1.547   0.841  13.126  0.3733 -2.1146  0.3184
17637TIP3   OH274325   5.172   6.375  13.850  0.0614 -0.2483 -0.4423
17637TIP3    H174326   5.115   6.443  13.887  0.4262 -0.1411 -0.0610
17637TIP3    H274327   5.118   6.330  13.785 -0.1128  0.5654 -0.8748
17638TIP3   OH274328   0.434   5.777  12.126 -0.1169  0.0521  0.8474
17638TIP3    H174329   0.379   5.850  12.154 -0.8050 -0.7447  1.6780
17638TIP3    H274330   0.372   5.716  12.085  0.1961 -0.7208  1.5080
17639TIP3   OH274331   6.036   4.319   1.400 -0.7963  0.0299 -0.3805
17639TIP3    H174332   5.960   4.307   1.342  0.8776  0.1096 -2.7083
17639TIP3    H274333   6.010   4.276   1.482 -3.1619 -0.3540 -1.2485
17640TIP3   OH274334   1.291   1.665  11.133 -0.4796  0.0739 -0.2645
17640TIP3    H174335   1.282   1.726  11.206 -2.2563 -1.8597  1.2316
17640TIP3    H274336   1.271   1.717  11.055  2.9731  2.5961  0.2823
17641TIP3   OH274337   2.262   3.407  14.590  0.0660  0.6519 -0.3583
17641TIP3    H174338   2.335   3.463  14.617  0.1024  0.8033 -0.7709
17641TIP3    H274339   2.245   3.352  14.666  2.0509 -0.8960 -0.9541
17642TIP3   OH274340   4.891   5.139   2.620 -0.3320 -0.0552  0.3690
17642TIP3    H174341   4.850   5.053   2.631 -0.7684  0.3464  2.2609
17642TIP3    H274342   4.903   5.171   2.709 -0.0283  1.7878 -0.2925
17643TIP3   OH274343   2.142   2.743  15.322  0.3344  0.2116  0.2200
17643TIP3    H174344   2.186   2.766  15.404 -0.7008  0.7922  0.6411
17643TIP3    H274345   2.074   2.810  15.312  0.1674 -0.0976 -0.9000
17644TIP3   OH274346   4.091   5.910  13.077 -0.2460  0.0375 -0.2363
17644TIP3    H174347   4.069   5.856  13.153 -0.1388 -0.2518 -0.4130
17644TIP3    H274348   4.159   5.861  13.031 -1.8631 -0.9001 -1.7688
17645TIP3   OH274349   5.358   2.121  13.382 -0.0470 -0.1839  0.4153
17645TIP3    H174350   5.444   2.155  13.356 -0.0525 -0.2064  0.3669
17645TIP3    H274351   5.305   2.126  13.302 -0.3678  0.6915  0.6664
17646TIP3   OH274352   0.139   5.321  14.926  0.5357 -0.3804 -0.2479
17646TIP3    H174353   0.103   5.401  14.887  2.3441  0.2877 -0.6604
17646TIP3    H274354   0.066   5.259  14.927 -0.3956  0.6264 -1.7646
17647TIP3   OH274355   6.068   1.729  14.070  1.0602 -0.3249  0.9381
17647TIP3    H174356   6.080   1.720  13.976 -2.1610  0.2290  0.3809
17647TIP3    H274357   6.048   1.641  14.101 -1.7922  0.0131  0.3389
17648TIP3   OH274358   1.606   0.008  14.103  0.5826 -0.1348  0.0287
17648TIP3    H174359   1.683   0.064  14.112  0.3610  0.1411  0.2263
17648TIP3    H274360   1.634  -0.077  14.139  0.1310  0.5692  2.1406
17649TIP3   OH274361   1.948   1.605   1.277  0.0624 -0.0107 -0.3660
17649TIP3    H174362   1.895   1.585   1.354  0.0079  1.3836 -0.0195
17649TIP3    H274363   1.964   1.699   1.282 -2.4229  0.7863 -3.6205
17650TIP3   OH274364   6.617   1.594   2.263 -0.0385  0.0146  0.0297
17650TIP3    H174365   6.618   1.535   2.338  0.1158 -1.4474 -1.0792
17650TIP3    H274366   6.633   1.537   2.187 -1.4560  1.2461 -1.2565
17651TIP3   OH274367   5.204   4.397   3.783  0.6790 -0.0553 -0.0722
17651TIP3    H174368   5.203   4.328   3.716  1.7408  1.4309 -1.7219
17651TIP3    H274369   5.113   4.421   3.795  0.3598 -1.2318 -0.0021
17652TIP3   OH274370   1.782   4.044  11.346 -0.7041 -0.3310 -0.5322
17652TIP3    H174371   1.714   4.077  11.404 -1.9194  0.3659 -2.2540
17652TIP3    H274372   1.790   3.952  11.367 -0.9472 -0.0466  0.8740
17653TIP3   OH274373   5.015   4.707   5.069  0.0321  0.3780  0.3175
17653TIP3    H174374   4.989   4.751   5.151 -2.4913  0.4461 -0.4268
17653TIP3    H274375   5.063   4.774   5.020  0.4335  0.7500  1.1938
17654TIP3   OH274376   1.822   4.874   3.162  0.6208 -0.2731 -0.4098
17654TIP3    H174377   1.781   4.960   3.153  1.9274  0.5515  1.0640
17654TIP3    H274378   1.916   4.891   3.152  0.9445 -1.4327  0.4818
17655TIP3   OH274379   2.959   0.444  15.110  0.1531 -0.6144 -0.3127
17655TIP3    H174380   2.981   0.382  15.041  2.1705 -1.1274  0.6996
17655TIP3    H274381   3.022   0.515  15.100 -1.0042  0.4464 -0.3723
17656TIP3   OH274382   0.429   2.534  15.122 -0.2979  0.2576 -0.3902
17656TIP3    H174383   0.471   2.614  15.090 -0.6935  0.7473  0.2852
17656TIP3    H274384   0.477   2.513  15.203 -1.5303  1.0120  0.5760
17657TIP3   OH274385   3.336   2.510  17.226 -0.3872 -0.0236 -0.2355
17657TIP3    H174386   3.292   2.583  17.271  0.3769  0.0381  0.4255
17657TIP3    H274387   3.305   2.517  17.136 -0.1012  1.3127 -0.2584
17658TIP3   OH274388   1.228   5.868   4.577 -0.1118 -0.2264  0.3631
17658TIP3    H174389   1.183   5.914   4.506 -0.6748 -0.5870  0.4754
17658TIP3    H274390   1.171   5.794   4.597 -1.0033  0.9452  2.5175
17659TIP3   OH274391   3.132   4.561  17.223 -0.3901  0.2084 -0.2048
17659TIP3    H174392   3.158   4.561  17.131  1.5664  0.9933  0.2945
17659TIP3    H274393   3.173   4.640  17.260  0.6664 -1.1599  1.7622
17660TIP3   OH274394   0.120   0.669   2.257 -0.2675  0.1224  0.5521
17660TIP3    H174395   0.055   0.740   2.249  0.6374  0.8135 -1.0400
17660TIP3    H274396   0.204   0.713   2.255  0.3317 -1.0304 -0.8474
17661TIP3   OH274397   0.873   6.718   3.020  0.1173  0.2597 -0.1950
17661TIP3    H174398   0.855   6.810   3.004 -1.0073 -0.2408 -2.2151
17661TIP3    H274399   0.965   6.715   3.045 -0.1304  2.0215  1.0248
17662TIP3   OH274400   6.111   0.612  14.339  0.0618  0.2034 -0.3843
17662TIP3    H174401   6.194   0.623  14.386 -0.1940 -1.8687  0.6630
17662TIP3    H274402   6.045   0.610  14.408 -0.5047 -1.3112 -0.9480
17663TIP3   OH274403   6.530   0.383  12.104 -0.0447 -0.1729 -0.5282
17663TIP3    H174404   6.446   0.339  12.115 -0.1608 -0.2904 -1.7428
17663TIP3    H274405   6.517   0.470  12.142 -0.3669 -0.5612  0.2713
17664TIP3   OH274406   1.370   3.926  14.716 -0.4981 -0.2140 -0.1281
17664TIP3    H174407   1.359   3.877  14.798 -0.5862 -1.0829 -0.6391
17664TIP3    H274408   1.437   3.991  14.736  0.7931 -1.5641  0.1703
17665TIP3   OH274409   0.485   1.460  16.362 -0.2791  0.1011  1.0060
17665TIP3    H174410   0.508   1.405  16.287 -0.9631  1.3592 -0.1921
17665TIP3    H274411   0.567   1.472  16.409  0.4346  0.2388 -0.2207
17666TIP3   OH274412   5.944   5.709  14.053  0.2187 -0.9057 -0.3800
17666TIP3    H174413   6.026   5.731  14.097  0.7766 -2.4869 -0.5500
17666TIP3    H274414   5.937   5.614  14.062 -1.0664 -0.9325 -1.3029
17667TIP3   OH274415   2.365   5.132   3.248 -1.0656 -0.4493 -0.6740
17667TIP3    H174416   2.303   5.067   3.214 -2.0446  0.0511  0.1004
17667TIP3    H274417   2.400   5.092   3.327  0.5363 -1.2282 -1.7041
17668TIP3   OH274418   2.085   1.507  14.073 -0.2321 -0.2307 -0.2020
17668TIP3    H174419   2.101   1.536  14.163  1.0524 -1.5082  0.0220
17668TIP3    H274420   2.153   1.551  14.022  0.1198 -0.8263 -0.2589
17669TIP3   OH274421   4.440   3.751   5.745 -0.2633  0.2466 -0.4970
17669TIP3    H174422   4.460   3.665   5.780 -1.3765  0.1691 -0.0267
17669TIP3    H274423   4.519   3.776   5.696  0.5389 -0.5066  0.3706
17670TIP3   OH274424   2.222   3.528   3.052 -0.4660 -0.3478  0.2542
17670TIP3    H174425   2.283   3.463   3.017 -0.5270 -0.7291  0.8529
17670TIP3    H274426   2.138   3.506   3.010 -0.6294 -1.0547  0.9325
17671TIP3   OH274427   3.074   3.188  16.012 -0.1773  0.3744 -0.4669
17671TIP3    H174428   3.120   3.144  15.940 -0.0041  0.5275 -0.4504
17671TIP3    H274429   3.124   3.268  16.027 -0.8776  0.9157 -0.9388
17672TIP3   OH274430   1.879   1.267   1.592 -0.2805 -0.3743 -0.8115
17672TIP3    H174431   1.850   1.234   1.507  1.6357 -0.7392 -1.3652
17672TIP3    H274432   1.948   1.207   1.619 -0.3262  0.1885  0.6546
17673TIP3   OH274433   5.079   1.510   1.122 -0.2338  0.0571  0.0937
17673TIP3    H174434   5.116   1.561   1.194 -1.6403  1.1631  0.0558
17673TIP3    H274435   5.072   1.421   1.157  0.9739  0.1502  0.6184
17674TIP3   OH274436   6.333   0.321  16.035 -0.0086  0.0132 -0.2168
17674TIP3    H174437   6.418   0.359  16.011  0.4971 -1.8205 -1.5770
17674TIP3    H274438   6.300   0.283  15.954 -0.4667 -2.3453  0.9645
17675TIP3   OH274439   3.240   2.581  13.229 -0.1687  0.2459  0.2750
17675TIP3    H174440   3.285   2.634  13.163 -0.1914  0.2202  0.2386
17675TIP3    H274441   3.235   2.636  13.306  0.4105  0.0542  0.4530
17676TIP3   OH274442   5.831   6.053  14.759 -0.2952 -0.3158 -0.0949
17676TIP3    H174443   5.869   5.981  14.809  0.0711  0.7732  1.2469
17676TIP3    H274444   5.905   6.108  14.736 -0.2173 -1.5247 -3.2182
17677TIP3   OH274445   0.011   4.856   1.647  0.2848 -0.0557 -0.0394
17677TIP3    H174446   0.083   4.913   1.675  0.9896 -1.3626  0.9175
17677TIP3    H274447  -0.044   4.913   1.593  0.5754  1.7355  1.4268
17678TIP3   OH274448   4.901   2.588   5.370  0.0828  0.2550 -0.1899
17678TIP3    H174449   4.942   2.518   5.421  0.6644  1.1182  0.5756
17678TIP3    H274450   4.938   2.669   5.406  0.2071  0.9275 -1.7315
17679TIP3   OH274451   1.445   1.714  11.625 -0.6957  0.0021 -0.5026
17679TIP3    H174452   1.374   1.651  11.611 -0.4152 -0.5078  0.3371
17679TIP3    H274453   1.510   1.667  11.676  0.4627  0.3376 -1.6147
17680TIP3   OH274454   2.392   6.562  11.160  0.1669 -0.0352 -0.1287
17680TIP3    H174455   2.472   6.544  11.111 -1.0238 -0.7536 -1.9055
17680TIP3    H274456   2.340   6.483  11.151 -0.9260  0.5723  0.6504
17681TIP3   OH274457   3.657   1.396  13.321  0.0243 -0.0258  0.2738
17681TIP3    H174458   3.596   1.359  13.384  0.7356 -1.0403  0.3832
17681TIP3    H274459   3.603   1.453  13.266 -1.0594 -0.9929  0.2962
17682TIP3   OH274460   4.076   6.566  16.236 -0.3921  0.2602 -0.6620
17682TIP3    H174461   4.090   6.621  16.159 -2.7548 -1.3927 -2.4373
17682TIP3    H274462   4.150   6.506  16.237  0.2029  0.9677 -0.9846
17683TIP3   OH274463   6.438   5.295   4.474 -0.1779  0.0413  0.6769
17683TIP3    H174464   6.512   5.238   4.452 -0.4124 -0.2493  0.6342
17683TIP3    H274465   6.453   5.373   4.421  1.4911  1.1022  2.5793
17684TIP3   OH274466   5.152   0.509  15.451 -0.0369 -0.3972 -0.0661
17684TIP3    H174467   5.226   0.450  15.436  0.6695  0.9294 -2.1890
17684TIP3    H274468   5.175   0.557  15.531  2.0319  0.8282 -1.3275
17685TIP3   OH274469   6.284   5.209  14.180 -0.0740 -0.2158  0.1849
17685TIP3    H174470   6.312   5.154  14.253 -1.0429  1.3021  1.7867
17685TIP3    H274471   6.364   5.250  14.148  0.2612 -0.2377  0.9710
17686TIP3   OH274472   5.435   2.633   4.871 -0.5535  0.2205  0.1209
17686TIP3    H174473   5.491   2.556   4.858  1.2413  1.2826  1.1075
17686TIP3    H274474   5.363   2.602   4.926 -0.7888 -1.1166 -0.9052
17687TIP3   OH274475   3.133   0.378   6.185  0.0428  0.0440 -0.2046
17687TIP3    H174476   3.213   0.428   6.170  0.1365  0.2488  0.9359
17687TIP3    H274477   3.101   0.408   6.270 -0.2643 -1.3565  0.1958
17688TIP3   OH274478   2.127   5.654  12.721  0.2577 -0.2901  0.1716
17688TIP3    H174479   2.142   5.590  12.651 -0.5496  1.8922 -2.1497
17688TIP3    H274480   2.045   5.626  12.762  0.6245 -1.4732  0.1469
17689TIP3   OH274481   1.760   2.820  12.884 -0.2916  1.1655 -0.2164
17689TIP3    H174482   1.795   2.863  12.806 -0.1495  0.8493 -0.3309
17689TIP3    H274483   1.683   2.772  12.853 -0.5239  1.4341 -0.0665
17690TIP3   OH274484   0.442   2.050   2.515  0.2026  0.2997 -0.2781
17690TIP3    H174485   0.408   1.975   2.564 -0.5214  1.1967  0.6280
17690TIP3    H274486   0.425   2.028   2.424 -3.4571  0.9227  0.1117
17691TIP3   OH274487   6.239   3.218  16.780  0.6418 -0.4836  0.1013
17691TIP3    H174488   6.308   3.158  16.808  0.5031 -0.6446  0.1031
17691TIP3    H274489   6.205   3.179  16.699  0.5365 -0.4185  0.1135
17692TIP3   OH274490   5.511   5.509  16.521  0.2928  0.0330  0.1279
17692TIP3    H174491   5.574   5.445  16.552 -1.0146 -2.1943 -1.5541
17692TIP3    H274492   5.561   5.567  16.464  0.9133 -1.5049 -0.9347
17693TIP3   OH274493   0.232   5.000   5.125  0.0461  0.1033 -0.1204
17693TIP3    H174494   0.173   5.075   5.111  2.2414  1.4242 -3.6808
17693TIP3    H274495   0.296   5.031   5.190 -0.9211  0.0256  0.9034
17694TIP3   OH274496   1.820   4.061   1.527 -0.0476  0.3100  0.2672
17694TIP3    H174497   1.817   4.057   1.431 -4.3433 -1.7490  0.2464
17694TIP3    H274498   1.894   4.005   1.551 -0.2312 -0.9762 -1.8799
17695TIP3   OH274499   3.900   3.644   2.328 -0.6008  0.3197 -0.0130
17695TIP3    H174500   3.915   3.607   2.415 -1.6828  0.7768  0.3795
17695TIP3    H274501   3.907   3.570   2.268  0.3614  0.0392  0.4290
17696TIP3   OH274502   0.101   1.361   2.205  0.4946 -0.0513 -0.3411
17696TIP3    H174503   0.009   1.338   2.192  0.8676 -2.5760  0.8777
17696TIP3    H274504   0.114   1.441   2.154 -2.2666  0.1633 -0.8290
17697TIP3   OH274505   1.347   0.491  16.190 -0.3194  0.2880 -0.2861
17697TIP3    H174506   1.364   0.519  16.280  1.5133  0.4380 -0.6428
17697TIP3    H274507   1.371   0.567  16.136 -0.0089 -0.2815 -0.9740
17698TIP3   OH274508   6.148   4.942   4.615 -0.1226 -0.5667 -0.0916
17698TIP3    H174509   6.122   4.971   4.703  2.1846  0.2067  0.3919
17698TIP3    H274510   6.169   4.849   4.626  0.1783 -0.4678  0.1859
17699TIP3   OH274511   2.463   5.311   3.554  0.6520  0.1239  0.0083
17699TIP3    H174512   2.457   5.397   3.595  1.4837 -0.4028  1.3198
17699TIP3    H274513   2.519   5.325   3.477 -3.1022  1.6787 -2.7398
17700TIP3   OH274514   6.004   2.478  12.239 -0.1636 -0.5809  0.3762
17700TIP3    H174515   6.042   2.536  12.305  0.2482 -0.3657 -0.0503
17700TIP3    H274516   6.014   2.390  12.276  1.8519 -0.6524 -0.2496
17701TIP3   OH274517   1.132   0.666  17.220 -0.1183  0.7057 -0.3647
17701TIP3    H174518   1.180   0.725  17.162 -1.6066  0.4464 -1.9252
17701TIP3    H274519   1.189   0.657  17.297  1.4896  1.7966 -1.3625
17702TIP3   OH274520   5.726   6.707  11.255 -0.6999  0.0160 -0.3017
17702TIP3    H174521   5.733   6.678  11.164  3.7287 -1.8333  0.4165
17702TIP3    H274522   5.769   6.792  11.257 -1.2281  0.2862  0.0409
17703TIP3   OH274523   3.797   4.811   3.806  0.1682 -0.2417  0.0413
17703TIP3    H174524   3.797   4.899   3.769  2.5162  0.1749  0.9076
17703TIP3    H274525   3.710   4.802   3.845 -0.5737  1.1743 -1.1659
17704TIP3   OH274526   1.234   6.001  15.897 -0.2253  0.1305  0.0940
17704TIP3    H174527   1.323   6.035  15.903  0.8210 -2.3237 -0.0864
17704TIP3    H274528   1.212   5.975  15.986 -0.6398  0.4423  0.0849
17705TIP3   OH274529   3.376   5.660   4.450 -0.2630 -0.3214  0.2497
17705TIP3    H174530   3.391   5.569   4.427  1.5102 -0.1379  0.5647
17705TIP3    H274531   3.387   5.663   4.545  1.4892  0.5008  0.0635
17706TIP3   OH274532   6.143   0.130  11.866  0.1826  0.3917 -0.1250
17706TIP3    H174533   6.101   0.082  11.938  0.6335  0.7582  0.3953
17706TIP3    H274534   6.225   0.082  11.850  0.5868  0.9166  0.3294
17707TIP3   OH274535   0.022   2.438   0.041 -0.2965  0.3526  0.4945
17707TIP3    H174536  -0.063   2.481   0.045 -0.8036 -0.6827  1.3620
17707TIP3    H274537   0.019   2.385  -0.039  0.1366  1.4925 -0.2981
17708TIP3   OH274538   0.152   5.150   3.942  0.0577  0.2456 -0.5016
17708TIP3    H174539   0.188   5.063   3.957 -1.0402 -0.0524  0.5517
17708TIP3    H274540   0.226   5.209   3.952  0.6670 -0.5070 -0.4839
17709TIP3   OH274541   2.651   4.192  14.721  0.1774 -0.0213 -0.0805
17709TIP3    H174542   2.678   4.237  14.800  0.8206  1.1253 -0.9260
17709TIP3    H274543   2.560   4.218  14.709 -0.2451 -1.0093  0.8058
17710TIP3   OH274544   6.514   2.325   6.549  0.4313  0.3200  0.1173
17710TIP3    H174545   6.597   2.322   6.501  0.1811  0.3650 -0.3196
17710TIP3    H274546   6.464   2.250   6.516  0.6015 -0.1678  0.9453
17711TIP3   OH274547   6.227   3.160  10.807  0.3718 -0.4649  0.3454
17711TIP3    H174548   6.321   3.176  10.794  0.3778 -0.7546 -0.0019
17711TIP3    H274549   6.184   3.237  10.771  0.5589  1.1156  3.1934
17712TIP3   OH274550   6.444   4.268  12.027  0.3040 -0.7880  0.1295
17712TIP3    H174551   6.364   4.318  12.039  0.0008 -1.4833  1.1766
17712TIP3    H274552   6.514   4.333  12.023 -0.1814 -0.2356  0.5621
17713TIP3   OH274553   2.103   2.695   4.042  0.4019  0.4072 -0.4771
17713TIP3    H174554   2.081   2.603   4.034  1.1135  0.3137 -1.4200
17713TIP3    H274555   2.101   2.729   3.952 -0.9625  1.5840 -0.0598
17714TIP3   OH274556   5.994   5.837   2.410 -0.1715 -0.5582 -0.2238
17714TIP3    H174557   6.025   5.843   2.320  1.8228 -2.2943  0.2687
17714TIP3    H274558   5.926   5.904   2.417  0.4638  0.4263 -2.6604
17715TIP3   OH274559   2.573   0.519   0.607  0.5053 -0.0734 -0.8025
17715TIP3    H174560   2.485   0.548   0.581  0.0035 -1.1502 -0.3735
17715TIP3    H274561   2.563   0.425   0.622  1.3186  0.0929  1.0058
17716TIP3   OH274562   2.064   3.959   4.866 -0.3812  0.4091 -0.2106
17716TIP3    H174563   2.146   3.925   4.902 -0.6969 -0.9069 -0.6832
17716TIP3    H274564   2.087   3.991   4.779 -0.3220  0.1873 -0.2794
17717TIP3   OH274565   2.828   2.768   6.066  0.8633 -0.3106  0.5799
17717TIP3    H174566   2.894   2.779   6.135  0.3230  3.4973  0.6860
17717TIP3    H274567   2.747   2.749   6.114  0.9778 -0.1691  0.8315
17718TIP3   OH274568   1.125   0.588   3.513  0.1831 -0.1167 -0.4267
17718TIP3    H174569   1.136   0.629   3.427 -0.6728 -2.1658 -1.5856
17718TIP3    H274570   1.181   0.640   3.572 -0.2585  2.1753 -1.8994
17719TIP3   OH274571   5.582   0.238  12.383  0.2771 -0.1429 -0.0194
17719TIP3    H174572   5.601   0.246  12.290  2.1033  1.0733  0.4040
17719TIP3    H274573   5.605   0.148  12.405  0.5284 -0.2177 -0.5897
17720TIP3   OH274574   6.729   3.271   0.686 -0.5570  0.0260  0.1507
17720TIP3    H174575   6.647   3.241   0.648 -0.5639  0.8869 -0.5407
17720TIP3    H274576   6.734   3.227   0.771 -2.3839  0.9674  0.7840
17721TIP3   OH274577   4.239   0.643  14.544  0.0479  0.0404 -0.0084
17721TIP3    H174578   4.291   0.564  14.532  1.7217  1.2004 -0.9288
17721TIP3    H274579   4.175   0.642  14.473  2.4429  1.2295 -2.3542
17722TIP3   OH274580   1.950   3.633   0.334 -0.7818  0.4334 -0.8248
17722TIP3    H174581   2.033   3.617   0.288  0.5468  0.7011  1.3277
17722TIP3    H274582   1.883   3.604   0.272  0.8156  1.4271 -3.1719
17723TIP3   OH274583   5.665   5.596  16.295 -0.3184  0.4870 -0.4375
17723TIP3    H174584   5.751   5.637  16.298 -0.4255  0.6742  0.5858
17723TIP3    H274585   5.632   5.615  16.208  2.0382 -2.4692 -2.1864
17724TIP3   OH274586   3.789   0.673   5.735 -0.3358 -0.0128 -0.5290
17724TIP3    H174587   3.762   0.581   5.726 -0.4624  0.0416 -0.7247
17724TIP3    H274588   3.717   0.714   5.782  0.0009 -0.1434  0.1042
17725TIP3   OH274589   4.247   2.404   6.251  0.4210 -0.1745  0.2949
17725TIP3    H174590   4.332   2.370   6.224  1.1658  1.7190  0.1153
17725TIP3    H274591   4.226   2.356   6.331  1.6415 -0.6762  0.3423
17726TIP3   OH274592   2.104   0.247   5.075  0.3193  0.0636  0.5084
17726TIP3    H174593   2.167   0.318   5.073  0.6570 -0.2263  0.6596
17726TIP3    H274594   2.134   0.190   5.146 -0.8702  0.6051  1.4793
17727TIP3   OH274595   5.748   2.766   4.974 -0.4661 -0.6158  0.1958
17727TIP3    H174596   5.684   2.702   5.003 -2.0778  1.1299  0.6212
17727TIP3    H274597   5.829   2.715   4.962 -1.4301 -2.5251  1.4182
17728TIP3   OH274598   5.311   0.423  13.025  0.2649 -0.8487 -0.0667
17728TIP3    H174599   5.299   0.359  13.096  3.8858 -0.8401  0.7454
17728TIP3    H274600   5.300   0.372  12.945 -1.0293 -1.5011  0.4960
17729TIP3   OH274601   6.042   1.419   3.379  0.2383 -0.0192 -0.4975
17729TIP3    H174602   6.111   1.358   3.354 -1.7381 -2.0088 -1.4296
17729TIP3    H274603   5.971   1.401   3.318 -1.2892  1.6371  0.6920
17730TIP3   OH274604   0.455   2.494  12.354  0.8138 -0.0615 -0.3943
17730TIP3    H174605   0.526   2.431  12.351 -0.3214 -1.3430 -1.7902
17730TIP3    H274606   0.492   2.570  12.401  3.0201 -0.7179 -0.9673
17731TIP3   OH274607   4.198   2.615  14.668 -0.1809  0.4700 -0.4197
17731TIP3    H174608   4.214   2.593  14.576  2.1536  0.5176 -0.0885
17731TIP3    H274609   4.236   2.702  14.679 -1.1083  0.7902  0.4441
17732TIP3   OH274610   5.113   5.454   0.179 -0.1351 -0.3614 -0.3372
17732TIP3    H174611   5.061   5.423   0.105 -1.2010  0.7921 -0.1050
17732TIP3    H274612   5.163   5.528   0.144  1.1938 -1.2976 -0.4905
17733TIP3   OH274613   2.442   5.230  14.418  0.1299  0.0596 -0.0947
17733TIP3    H174614   2.393   5.275  14.486 -1.2760  0.8377 -1.5540
17733TIP3    H274615   2.436   5.287  14.341 -1.8253 -2.5475 -2.0747
17734TIP3   OH274616   3.250   0.397  12.629  0.0074  0.0652 -0.0012
17734TIP3    H174617   3.299   0.476  12.655 -0.7465  0.6149 -0.2220
17734TIP3    H274618   3.254   0.340  12.705  2.7168 -0.7875 -0.6699
17735TIP3   OH274619   0.157   1.582  15.868  0.0032  0.8722 -0.0406
17735TIP3    H174620   0.243   1.545  15.887  0.0589 -0.0932 -2.0146
17735TIP3    H274621   0.097   1.533  15.924  0.4807  0.0350 -0.2418
17736TIP3   OH274622   3.395   6.314  14.635  0.0115  0.6081  0.1496
17736TIP3    H174623   3.401   6.218  14.636  0.7431  0.5253 -3.0585
17736TIP3    H274624   3.327   6.333  14.571  0.8269  2.2464 -0.2778
17737TIP3   OH274625   4.569   4.285   0.175  0.2876  0.0327  0.2380
17737TIP3    H174626   4.558   4.354   0.110 -0.1706  1.5910  1.8901
17737TIP3    H274627   4.525   4.318   0.253  1.8834 -1.2199  1.7457
17738TIP3   OH274628   6.289   5.326  14.835 -0.2215  0.1659  0.5713
17738TIP3    H174629   6.296   5.367  14.921 -1.7369  0.5583  0.5323
17738TIP3    H274630   6.269   5.234  14.854  2.1399 -0.3981  0.6410
17739TIP3   OH274631   1.404   1.140   3.778 -0.1141 -0.2397 -0.4077
17739TIP3    H174632   1.442   1.096   3.854 -0.2423  1.0095  0.4056
17739TIP3    H274633   1.474   1.196   3.746  0.5434 -2.0087 -2.3258
17740TIP3   OH274634   6.017   4.153  12.711  0.5716  0.1946 -0.5308
17740TIP3    H174635   6.009   4.069  12.756  0.4414  0.3529 -0.2615
17740TIP3    H274636   6.026   4.218  12.781 -0.0089  0.4811 -0.7160
17741TIP3   OH274637   4.703   2.495  12.443 -0.1330 -0.0733  0.2830
17741TIP3    H174638   4.782   2.465  12.488 -0.3002  0.6420  1.0720
17741TIP3    H274639   4.734   2.563  12.383  0.3620 -2.1955 -2.0525
17742TIP3   OH274640   3.970   0.388  13.180  0.1652 -0.1598 -0.0858
17742TIP3    H174641   3.928   0.427  13.257 -1.0801 -1.2793 -0.1555
17742TIP3    H274642   4.027   0.319  13.215 -1.6119 -1.7642 -0.1737
17743TIP3   OH274643   3.597   1.576   1.710 -0.3474 -0.1924  0.2533
17743TIP3    H174644   3.631   1.487   1.702  0.8821  0.3028 -0.2515
17743TIP3    H274645   3.645   1.613   1.784  0.5327  0.6382 -0.7030
17744TIP3   OH274646   3.229   5.157  15.341 -0.4881 -0.2558  0.3965
17744TIP3    H174647   3.227   5.104  15.421  1.5968 -1.7045 -0.4432
17744TIP3    H274648   3.278   5.235  15.365 -1.4162  0.1791  0.9633
17745TIP3   OH274649   3.736   1.721   3.608 -0.3038 -0.3177  0.2023
17745TIP3    H174650   3.787   1.800   3.591 -0.6501 -0.0465  0.4057
17745TIP3    H274651   3.747   1.705   3.702  3.1267 -2.8692 -0.4333
17746TIP3   OH274652   5.743   5.106  14.129 -0.6408 -1.1356  0.5416
17746TIP3    H174653   5.829   5.137  14.158 -0.7408  1.5739 -1.6079
17746TIP3    H274654   5.682   5.175  14.156 -1.7718 -1.8776 -0.0102
17747TIP3   OH274655   3.769   5.227  14.067  0.1189  0.2971  0.1497
17747TIP3    H174656   3.831   5.157  14.047 -0.1274  0.0500  0.2253
17747TIP3    H274657   3.698   5.215  14.003 -1.3124 -1.3173  1.9104
17748TIP3   OH274658   2.175   4.172  12.366  0.1528  0.3006  0.2872
17748TIP3    H174659   2.179   4.188  12.271  2.0060  1.1270  0.4739
17748TIP3    H274660   2.205   4.082  12.376  1.1112  0.6059  0.1825
17749TIP3   OH274661   6.542   0.939  13.875 -0.5598  0.0591 -0.4568
17749TIP3    H174662   6.492   1.015  13.904 -2.0671 -1.3235  0.7069
17749TIP3    H274663   6.633   0.961  13.895 -1.1723  0.7515  1.7714
17750TIP3   OH274664   0.773   2.497  12.027  0.3223  1.0289 -0.8334
17750TIP3    H174665   0.844   2.483  12.090 -0.2844 -0.7186 -0.4690
17750TIP3    H274666   0.743   2.586  12.044 -0.3791  0.3621  2.0057
17751TIP3   OH274667   0.893   1.241  16.439 -0.7593  0.1223  0.0042
17751TIP3    H174668   0.977   1.198  16.452 -0.2952  0.8124 -0.6115
17751TIP3    H274669   0.884   1.249  16.344 -0.8126  1.3951  0.0997
17752TIP3   OH274670   6.131   4.105  15.207  0.4422 -0.7469  0.0345
17752TIP3    H174671   6.091   4.026  15.245 -0.7311 -0.0914  0.1886
17752TIP3    H274672   6.179   4.073  15.131  0.7020 -1.7272  0.5821
17753TIP3   OH274673   4.010   0.722   0.893  0.5071  0.3566  0.4714
17753TIP3    H174674   3.992   0.800   0.840 -1.3282 -0.1566  0.2764
17753TIP3    H274675   4.056   0.663   0.833  0.9036  0.8490  0.2836
17754TIP3   OH274676   2.321   2.606   2.937 -0.2480  0.5152 -0.1653
17754TIP3    H174677   2.356   2.540   2.878  2.1160  0.5462  1.0828
17754TIP3    H274678   2.347   2.576   3.024  1.6368  3.3727  0.4045
17755TIP3   OH274679   6.172   0.129   5.829  0.2255  0.1406  0.1008
17755TIP3    H174680   6.184   0.035   5.820  0.3512  0.2654 -1.1439
17755TIP3    H274681   6.082   0.138   5.863  0.3417 -0.4261  0.5837
17756TIP3   OH274682   0.924   1.670   2.677  0.1580 -0.5901  0.0502
17756TIP3    H174683   0.836   1.681   2.642  1.2386 -0.5051 -2.9355
17756TIP3    H274684   0.932   1.576   2.693 -0.0625 -0.8035 -1.0005
17757TIP3   OH274685   4.663   1.046  13.176 -0.3966 -0.5748  0.2272
17757TIP3    H174686   4.728   1.069  13.243  0.8332  0.1902 -1.1588
17757TIP3    H274687   4.672   0.951  13.165  0.5465 -0.4712  0.0234
17758TIP3   OH274688   4.962   2.464  15.644 -0.4574 -0.2079  0.2999
17758TIP3    H174689   4.919   2.379  15.649 -2.7848  0.9445  1.1576
17758TIP3    H274690   4.981   2.477  15.551 -0.2433 -1.5516  0.1406
17759TIP3   OH274691   0.332   3.640  10.954 -0.4485 -0.3719 -0.0024
17759TIP3    H174692   0.338   3.547  10.978  1.3162 -0.4436 -0.5251
17759TIP3    H274693   0.391   3.648  10.878  0.8054  1.4736  1.0883
17760TIP3   OH274694   4.681   1.675  12.610 -0.1005  0.3204  0.0239
17760TIP3    H174695   4.647   1.759  12.641 -0.2178  0.6607 -0.9789
17760TIP3    H274696   4.609   1.638  12.559  0.5543  0.4345 -1.0134
17761TIP3   OH274697   2.890   1.554   5.378  0.3771 -0.5431 -0.2529
17761TIP3    H174698   2.830   1.481   5.394 -0.1517 -0.2252 -0.7124
17761TIP3    H274699   2.897   1.559   5.282  1.2228 -0.6354 -0.2016
17762TIP3   OH274700   5.689   4.107   3.599  0.6820  0.6826 -0.0179
17762TIP3    H174701   5.605   4.127   3.558  0.8749 -0.2166 -0.9064
17762TIP3    H274702   5.751   4.167   3.557  0.5002  1.3370  0.6281
17763TIP3   OH274703   3.108   2.782  15.776  0.3454 -0.0389 -0.2264
17763TIP3    H174704   3.077   2.763  15.687  2.8127  0.8669 -1.3735
17763TIP3    H274705   3.042   2.841  15.812  1.0881  2.7141 -2.9405
17764TIP3   OH274706   4.742   4.869   6.494  0.6133 -0.2031 -0.5879
17764TIP3    H174707   4.679   4.936   6.519  0.3240  0.2439 -2.4036
17764TIP3    H274708   4.820   4.918   6.466  0.3397 -0.5743 -2.1016
17765TIP3   OH274709   3.908   3.842   4.601 -0.4454 -0.5416  0.3132
17765TIP3    H174710   3.834   3.824   4.659  0.5338 -1.6344  1.2674
17765TIP3    H274711   3.969   3.893   4.655  0.5433 -1.7049  0.3161
17766TIP3   OH274712   1.812   2.038   3.892 -0.3681 -0.5952 -0.2179
17766TIP3    H174713   1.790   1.948   3.912 -1.0694 -0.1124  1.3082
17766TIP3    H274714   1.728   2.083   3.888  0.0485  0.3557  1.0215
17767TIP3   OH274715   2.106   5.968   2.914 -0.2208  0.6010  0.1511
17767TIP3    H174716   2.185   5.940   2.867 -0.6583 -1.8026  0.6877
17767TIP3    H274717   2.046   5.997   2.845  0.6288  1.1343 -0.3780
17768TIP3   OH274718   5.272   1.798  11.654  0.1847  0.1091  0.4698
17768TIP3    H174719   5.343   1.861  11.641 -1.0379  1.2490 -1.0255
17768TIP3    H274720   5.305   1.738  11.722  1.9074  1.5626  0.9871
17769TIP3   OH274721   5.391   5.871  11.073  0.1165 -0.0792 -0.9696
17769TIP3    H174722   5.433   5.955  11.057  1.7767 -1.0758 -2.2794
17769TIP3    H274723   5.313   5.873  11.018  0.1775  0.5909 -1.0431
17770TIP3   OH274724   5.702   0.049   0.992 -0.4851 -0.3737  0.2149
17770TIP3    H174725   5.745   0.092   0.918 -1.3008 -0.5869 -0.4005
17770TIP3    H274726   5.614   0.088   0.994 -1.0573 -1.5977 -0.0144
17771TIP3   OH274727   6.692   2.948  13.732 -0.1810  0.2912 -0.3331
17771TIP3    H174728   6.692   2.931  13.826  0.3148 -0.3340 -0.4392
17771TIP3    H274729   6.757   3.017  13.720  0.2703 -0.1263 -0.3001
17772TIP3   OH274730   2.040   0.489   0.158 -0.2684 -0.0748 -0.7460
17772TIP3    H174731   2.017   0.408   0.112 -0.7517  0.5755 -1.6664
17772TIP3    H274732   1.966   0.506   0.216 -0.8377  0.4671 -1.6062
17773TIP3   OH274733   0.954   0.193  13.382  0.2117 -0.2002  0.6138
17773TIP3    H174734   0.909   0.116  13.346  1.8234 -0.4574 -1.0296
17773TIP3    H274735   1.003   0.228  13.307  0.1778  1.9466  1.5402
17774TIP3   OH274736   5.114   4.373   2.550  0.2562 -0.0583  0.0461
17774TIP3    H174737   5.050   4.323   2.601 -0.4427 -1.9420 -2.4770
17774TIP3    H274738   5.065   4.446   2.513 -0.1783 -0.7931 -0.8687
17775TIP3   OH274739   2.193   3.055  15.425 -0.2351  0.4173 -0.3580
17775TIP3    H174740   2.188   3.075  15.518  1.0939 -0.0584 -0.1679
17775TIP3    H274741   2.103   3.036  15.399 -0.3281 -1.7657  1.3455
17776TIP3   OH274742   5.473   4.558   4.063  0.7656  0.0636  0.1361
17776TIP3    H174743   5.515   4.472   4.063 -0.2102 -0.5087 -2.4104
17776TIP3    H274744   5.394   4.545   4.116  1.7950  0.1137  1.7659
17777TIP3   OH274745   0.684   1.184   3.697 -0.1018 -0.4296  0.2037
17777TIP3    H174746   0.689   1.100   3.650 -0.6820 -0.2654 -0.1676
17777TIP3    H274747   0.770   1.194   3.738  0.8956  0.0521 -1.9000
17778TIP3   OH274748   2.476   6.180   4.086  0.1067 -0.2111  0.4124
17778TIP3    H174749   2.405   6.194   4.148 -0.0146 -0.1175  0.2514
17778TIP3    H274750   2.524   6.263   4.085  0.8311 -0.5944  1.2942
17779TIP3   OH274751   4.349   5.299   2.554  0.3248  0.4998 -0.1818
17779TIP3    H174752   4.279   5.233   2.558 -2.5936  3.3589  1.4962
17779TIP3    H274753   4.421   5.260   2.604 -0.2841 -2.2764 -1.2609
17780TIP3   OH274754   6.479   3.826  16.678 -0.1760 -0.3483  0.1034
17780TIP3    H174755   6.396   3.790  16.649  0.2563 -1.0485 -0.2890
17780TIP3    H274756   6.455   3.894  16.741 -1.2838  2.5151 -3.0617
17781TIP3   OH274757   6.399   6.046   6.712 -0.7875 -0.4134 -0.1207
17781TIP3    H174758   6.476   6.070   6.659 -1.3995  0.2268 -0.7337
17781TIP3    H274759   6.393   6.114   6.778 -0.8157 -0.4747 -0.0604
17782TIP3   OH274760   3.303   5.320   1.925  0.4484 -0.3003 -0.6571
17782TIP3    H174761   3.212   5.311   1.954 -1.0538  1.6814 -4.1393
17782TIP3    H274762   3.327   5.410   1.947  1.4393 -0.6396 -0.2623
17783TIP3   OH274763   1.870   5.601   4.049 -0.2420  0.1554  0.3046
17783TIP3    H174764   1.849   5.591   4.142  0.3353 -0.8144  0.3432
17783TIP3    H274765   1.838   5.688   4.027 -0.4197  0.3860  1.4037
17784TIP3   OH274766   0.678   0.846   0.270  0.0682 -0.0241 -0.3482
17784TIP3    H174767   0.747   0.807   0.216  0.9412  1.0238 -0.0304
17784TIP3    H274768   0.599   0.799   0.246  0.6757 -0.4398 -1.6118
17785TIP3   OH274769   0.251   5.216   6.123 -0.8978  0.2466  0.0412
17785TIP3    H174770   0.286   5.303   6.102  2.5243 -0.9445  0.1885
17785TIP3    H274771   0.211   5.227   6.210 -0.0949  1.5835  0.2740
17786TIP3   OH274772   4.378   4.378  16.580 -0.4119 -0.1873 -0.1523
17786TIP3    H174773   4.367   4.432  16.658  0.1514  0.3367 -0.4212
17786TIP3    H274774   4.301   4.321  16.578 -1.0124  0.6031  0.1450
17787TIP3   OH274775   3.587   0.692  13.398 -0.4051 -0.2519 -0.7578
17787TIP3    H174776   3.499   0.692  13.434 -0.0605 -0.7127  0.1380
17787TIP3    H274777   3.624   0.777  13.425 -0.4160 -0.2617 -0.7116
17788TIP3   OH274778   5.982   4.130   4.012 -0.2385  0.6861 -0.9742
17788TIP3    H174779   5.936   4.096   3.934 -0.6234 -0.0644 -0.4344
17788TIP3    H274780   5.948   4.077   4.084  2.3102 -0.6936 -0.6879
17789TIP3   OH274781   3.905   1.525  16.265 -0.7869 -0.2741 -0.2875
17789TIP3    H174782   3.813   1.510  16.240 -0.4412 -1.6684 -0.8638
17789TIP3    H274783   3.952   1.451  16.226  0.3689 -0.4186  1.2818
17790TIP3   OH274784   6.655   3.223  13.029  0.1266 -0.4247  0.0413
17790TIP3    H174785   6.578   3.275  13.052  2.3389  1.5988  3.9015
17790TIP3    H274786   6.676   3.175  13.109  2.2226 -1.8652 -1.2767
17791TIP3   OH274787   2.860   2.139  16.677  0.0049  0.1141  0.3366
17791TIP3    H174788   2.843   2.052  16.712  1.7004 -0.8438 -1.0716
17791TIP3    H274789   2.867   2.127  16.582  6.0102  0.5008  0.3232
17792TIP3   OH274790   5.983   6.220  15.085 -0.0852  0.2610 -0.1383
17792TIP3    H174791   6.042   6.296  15.087  0.2312  0.0240  1.7210
17792TIP3    H274792   6.006   6.174  15.004  3.2418 -0.4914  1.0595
17793TIP3   OH274793   1.344   3.052   0.067  1.0618  0.2266  0.9384
17793TIP3    H174794   1.364   3.022  -0.022  0.7800  1.7929  0.3128
17793TIP3    H274795   1.412   3.117   0.086  0.0450  1.2738  1.1156
17794TIP3   OH274796   3.534   0.595   3.811 -0.9569 -0.2603  0.4255
17794TIP3    H174797   3.601   0.545   3.763 -1.4872  0.0012 -0.5825
17794TIP3    H274798   3.464   0.531   3.827 -0.1184 -0.8086  2.3237
17795TIP3   OH274799   5.926   2.911  11.423  0.9427  0.1818 -0.2391
17795TIP3    H174800   5.839   2.951  11.428  1.3684  0.9466  2.4144
17795TIP3    H274801   5.950   2.918  11.330 -1.2011  1.2346 -0.7886
17796TIP3   OH274802   6.684   6.400  16.779 -0.4396  0.1596 -0.2630
17796TIP3    H174803   6.757   6.447  16.820 -0.7556  0.3933  0.0516
17796TIP3    H274804   6.667   6.326  16.838  1.0030 -1.2385 -1.5129
17797TIP3   OH274805   5.023   2.207   1.117  0.2656 -0.6001 -0.5185
17797TIP3    H174806   5.117   2.191   1.119  0.7730  2.0223  0.4123
17797TIP3    H274807   4.997   2.187   1.027  1.8761 -0.4640 -1.0477
17798TIP3   OH274808   2.090   5.131   0.588  0.0664 -0.4483  0.2546
17798TIP3    H174809   2.095   5.109   0.681  0.8088 -0.1697  0.2896
17798TIP3    H274810   2.157   5.198   0.576  0.5607 -1.0895 -0.6545
17799TIP3   OH274811   6.163   2.364   2.757  0.0622  0.4844  0.1560
17799TIP3    H174812   6.159   2.284   2.704  1.2325  0.7123 -0.3284
17799TIP3    H274813   6.076   2.373   2.795 -0.8765  0.3779 -1.8410
17800TIP3   OH274814   4.154   0.913   5.434  0.2046 -0.1036  0.4601
17800TIP3    H174815   4.144   0.822   5.407 -0.3334  0.3611 -1.0661
17800TIP3    H274816   4.168   0.910   5.528  0.1524 -1.7559  0.4352
17801TIP3   OH274817   4.930   0.959  13.399 -0.4887 -0.2335 -0.2724
17801TIP3    H174818   4.944   0.875  13.355 -2.0626 -0.4082 -0.4771
17801TIP3    H274819   4.993   1.018  13.357 -0.3343 -0.9704 -1.1140
17802TIP3   OH274820   3.857   0.583  13.353 -0.2051  0.0369  0.3656
17802TIP3    H174821   3.765   0.609  13.356  0.1887  1.6539 -0.3434
17802TIP3    H274822   3.880   0.565  13.444 -0.4451  2.7024  1.0293
17803TIP3   OH274823   0.517   0.692  15.023  0.0493 -0.1558 -0.0650
17803TIP3    H174824   0.559   0.650  15.098  1.1999  1.2409  0.1109
17803TIP3    H274825   0.524   0.786  15.041 -1.8454  0.1682 -0.7607
17804TIP3   OH274826   3.759   0.428  14.515  0.2673 -0.2558  0.0580
17804TIP3    H174827   3.699   0.467  14.451  1.3774 -0.0754 -0.8953
17804TIP3    H274828   3.805   0.359  14.467  0.6751 -0.5376  0.8327
17805TIP3   OH274829   1.084   5.422  16.550  0.0191 -0.1962 -0.2671
17805TIP3    H174830   1.169   5.380  16.560  0.1902  0.4874  1.6914
17805TIP3    H274831   1.021   5.350  16.549  0.4591 -0.6190  0.8824
17806TIP3   OH274832   2.217   1.173   1.787  0.2812 -0.3211  0.4852
17806TIP3    H174833   2.249   1.090   1.752 -0.7366 -0.4151 -0.2678
17806TIP3    H274834   2.291   1.207   1.837  1.3010 -0.8733 -0.5712
17807TIP3   OH274835   1.347   3.382   2.758  0.7470 -0.3220 -0.0675
17807TIP3    H174836   1.295   3.386   2.838  1.5600 -1.5284  0.5627
17807TIP3    H274837   1.287   3.407   2.688  0.3725  2.1727  1.0392
17808TIP3   OH274838   6.437   0.057   3.397 -0.2053  0.0779 -0.1126
17808TIP3    H174839   6.347   0.086   3.378 -0.0324 -0.6473 -2.2329
17808TIP3    H274840   6.446  -0.026   3.351  1.3777 -0.1594  0.5666
17809TIP3   OH274841   2.193   0.512  12.225 -0.0623 -0.0131 -0.1691
17809TIP3    H174842   2.261   0.451  12.254 -1.0152 -0.9084  0.1981
17809TIP3    H274843   2.227   0.598  12.251  1.5469 -0.2849 -1.1740
17810TIP3   OH274844   2.030   5.244  11.365  0.5170 -0.0124  0.4542
17810TIP3    H174845   2.095   5.174  11.359  0.9512  0.3918  0.3407
17810TIP3    H274846   1.964   5.221  11.300  2.0463  1.0814 -1.6314
17811TIP3   OH274847   2.534   0.548   0.888 -0.9004 -0.0527 -0.3867
17811TIP3    H174848   2.566   0.546   0.798 -3.2368  0.6091 -1.3012
17811TIP3    H274849   2.555   0.637   0.919 -0.9155  0.0242 -0.5975
17812TIP3   OH274850   6.741   0.501   2.132 -0.3194 -0.2378 -0.1295
17812TIP3    H174851   6.788   0.581   2.156 -0.1840  0.4144 -2.3860
17812TIP3    H274852   6.790   0.465   2.059 -0.5175 -2.3033  0.6871
17813TIP3   OH274853   6.304   4.816   0.787 -0.2780 -0.6427  0.7892
17813TIP3    H174854   6.267   4.765   0.859  0.7533  0.0842  1.8486
17813TIP3    H274855   6.379   4.860   0.824  0.4234 -0.4289 -0.8070
17814TIP3   OH274856   5.868   1.204  11.663 -0.3961 -0.1813  0.1590
17814TIP3    H174857   5.877   1.188  11.756 -0.7756  1.1050  0.4436
17814TIP3    H274858   5.865   1.300  11.655  2.7909 -0.0748 -1.4687
17815TIP3   OH274859   4.757   4.913   2.665 -0.7016 -0.2261  0.0243
17815TIP3    H174860   4.709   4.885   2.743 -0.4644 -1.3598 -0.2150
17815TIP3    H274861   4.828   4.849   2.656 -0.6855 -0.0801 -1.0774
17816TIP3   OH274862   3.047   6.269  16.361 -0.1610 -0.3619 -0.2048
17816TIP3    H174863   2.976   6.332  16.347 -0.1889 -0.3064  0.1745
17816TIP3    H274864   3.063   6.231  16.275  0.9857  1.3723 -0.8107
17817TIP3   OH274865   6.479   6.230  11.512 -0.7069 -0.6962  0.2406
17817TIP3    H174866   6.504   6.320  11.493 -0.9369 -0.8419 -0.7722
17817TIP3    H274867   6.563   6.185  11.526 -0.5536 -0.5127 -0.0912
17818TIP3   OH274868   4.029   4.926   5.601 -0.0855 -0.0968 -0.0363
17818TIP3    H174869   4.113   4.881   5.605  0.3418  0.6619 -0.3496
17818TIP3    H274870   3.982   4.883   5.530  0.2422 -0.1741 -0.2087
17819TIP3   OH274871   1.098   1.073  16.273 -0.1478  0.4330  0.2726
17819TIP3    H174872   1.020   1.115  16.236  0.2146  0.1380 -0.8697
17819TIP3    H274873   1.171   1.108  16.221  0.4629  0.5133  1.1566
17820TIP3   OH274874   0.183   1.067   1.782  0.5659 -0.4404 -0.8050
17820TIP3    H174875   0.104   1.121   1.784  2.1977  2.1477 -1.4562
17820TIP3    H274876   0.221   1.084   1.696  1.3360 -2.4703 -0.9117
17821TIP3   OH274877   4.962   4.587   2.433 -0.0659  0.3001  0.0481
17821TIP3    H174878   5.014   4.600   2.353  1.2030 -1.5910  0.4979
17821TIP3    H274879   4.872   4.577   2.402  0.4004 -0.3397 -1.1551
17822TIP3   OH274880   0.645   6.481  11.385  0.1387  0.8287  0.0804
17822TIP3    H174881   0.585   6.554  11.391  0.8172  1.3247  1.0387
17822TIP3    H274882   0.729   6.515  11.416  0.7055 -0.0903 -0.3620
17823TIP3   OH274883   2.269   2.733   0.224 -0.0848  0.2824  0.0053
17823TIP3    H174884   2.364   2.727   0.230 -0.1276 -1.1514 -0.3882
17823TIP3    H274885   2.248   2.688   0.142 -1.1777 -0.4510  0.6647
17824TIP3   OH274886   5.089   4.075  16.366 -0.0988  0.1124  0.0670
17824TIP3    H174887   5.117   3.986  16.390 -0.9992 -0.7443 -1.8189
17824TIP3    H274888   5.056   4.112  16.448  3.9005  0.2560  1.8383
17825TIP3   OH274889   0.700   0.782  14.100 -0.0613  0.0021 -0.2470
17825TIP3    H174890   0.769   0.822  14.047  0.4881 -0.6133  0.0033
17825TIP3    H274891   0.726   0.691  14.110  0.4705  0.3629  2.0900
17826TIP3   OH274892   5.119   1.705  15.706 -0.2090  0.1695  0.5855
17826TIP3    H174893   5.196   1.744  15.746 -1.7228  1.8210  2.0852
17826TIP3    H274894   5.046   1.761  15.734 -1.9298 -1.1010 -1.0356
17827TIP3   OH274895   6.201   0.585   5.153  0.1806  0.0307  0.2618
17827TIP3    H174896   6.173   0.671   5.123 -2.8496 -1.4817 -1.8112
17827TIP3    H274897   6.254   0.550   5.082 -0.6197 -0.6922  0.0022
17828TIP3   OH274898   0.998   4.998   5.324 -0.4694 -0.1159 -0.7394
17828TIP3    H174899   0.968   4.932   5.261  0.9945 -1.1602 -0.4069
17828TIP3    H274900   0.976   4.962   5.410 -0.5809  0.3141 -0.5852
17829TIP3   OH274901   4.222   2.621  13.380 -0.0804 -0.0498  0.1792
17829TIP3    H174902   4.211   2.708  13.341  0.9982 -0.2745 -0.6619
17829TIP3    H274903   4.300   2.585  13.338  0.1844 -0.9560  1.3852
17830TIP3   OH274904   4.710   4.249   2.497 -0.0741  0.3384  0.2681
17830TIP3    H174905   4.640   4.307   2.465 -0.5859  0.3728  1.3812
17830TIP3    H274906   4.687   4.234   2.589  1.7374  0.8562  0.8358
17831TIP3   OH274907   6.069   3.006   4.394  0.2594 -0.0144 -0.2476
17831TIP3    H174908   6.021   3.050   4.464 -0.0580 -1.1174  0.2388
17831TIP3    H274909   6.004   2.988   4.327  0.0211 -1.2596  0.2922
17832TIP3   OH274910   6.365   3.389   3.556  0.4373  0.0153  0.1833
17832TIP3    H174911   6.444   3.409   3.606 -0.6229  0.5723  1.7251
17832TIP3    H274912   6.396   3.343   3.478  2.3066  0.6658  0.5008
17833TIP3   OH274913   3.403   4.754  11.407  0.2007 -0.2524 -0.5755
17833TIP3    H174914   3.397   4.715  11.320 -0.8200 -0.2202 -0.5331
17833TIP3    H274915   3.412   4.847  11.391  2.7454 -0.4442 -0.6791
17834TIP3   OH274916   2.029   3.901  16.720  0.0552  0.4269  0.5176
17834TIP3    H174917   1.954   3.946  16.759 -1.3942 -0.2139 -1.3675
17834TIP3    H274918   1.992   3.824  16.679  1.4365  1.0037 -2.0433
17835TIP3   OH274919   6.543   2.946  14.730  0.4187 -0.7588 -0.7654
17835TIP3    H174920   6.554   2.921  14.638  0.4304 -0.1504 -0.9335
17835TIP3    H274921   6.559   3.041  14.732  1.7853 -0.9718  0.0829
17836TIP3   OH274922   2.807   1.106   5.933  0.2602  0.8331 -0.1557
17836TIP3    H174923   2.792   1.196   5.906 -0.5751  0.5522 -0.6557
17836TIP3    H274924   2.886   1.110   5.988  1.1732  1.6248 -1.4746
17837TIP3   OH274925   5.558   0.879  14.698 -0.8457  0.0093  0.3223
17837TIP3    H174926   5.479   0.893  14.749 -1.5398 -2.9158  0.2170
17837TIP3    H274927   5.547   0.792  14.659  1.0898  0.7433 -2.1870
17838TIP3   OH274928   1.671   2.909   5.677 -0.6764 -0.0682 -0.6560
17838TIP3    H174929   1.712   2.972   5.617 -0.0358  0.6828  0.5251
17838TIP3    H274930   1.646   2.962   5.753 -0.2455 -1.2280  0.3186
17839TIP3   OH274931   0.515   2.933   1.168  0.5560  0.2188  0.7370
17839TIP3    H174932   0.562   2.926   1.251  1.5340 -2.3297  0.0479
17839TIP3    H274933   0.574   2.894   1.104 -1.5454 -0.9721 -0.5727
17840TIP3   OH274934   5.802   2.365   6.482 -0.1936  0.0668  0.2458
17840TIP3    H174935   5.834   2.331   6.566 -3.0972 -2.1482  0.6185
17840TIP3    H274936   5.775   2.455   6.502  0.0570 -0.0932  1.4368
17841TIP3   OH274937   2.627   0.567  11.835 -0.0501 -0.1977  0.1464
17841TIP3    H174938   2.717   0.598  11.823  0.6394 -1.8286  0.7505
17841TIP3    H274939   2.608   0.583  11.927  0.6245 -2.1847  0.6844
17842TIP3   OH274940   2.183   1.114  12.973 -0.6867 -0.3309  0.0607
17842TIP3    H174941   2.147   1.041  13.022 -1.2078  0.4045  0.8094
17842TIP3    H274942   2.274   1.120  13.001  0.3126 -2.5642 -2.2725
17843TIP3   OH274943   1.324   3.477   0.234  0.3794 -0.2291 -0.3932
17843TIP3    H174944   1.371   3.553   0.201  0.0612  0.7204  1.2214
17843TIP3    H274945   1.301   3.500   0.324  0.2150 -2.2185  0.1270
17844TIP3   OH274946   1.898   5.955   5.139 -0.1508  0.2920 -0.2684
17844TIP3    H174947   1.950   5.875   5.149 -0.5814  0.2193  1.8372
17844TIP3    H274948   1.962   6.026   5.145  0.1191  0.1467 -1.2541
17845TIP3   OH274949   2.168   5.735   5.399 -0.4025 -0.0317 -0.3785
17845TIP3    H174950   2.131   5.702   5.481  1.6745 -0.8161  0.3326
17845TIP3    H274951   2.100   5.720   5.333 -2.6573  1.8618  1.3758
17846TIP3   OH274952   5.131   4.813  13.142 -0.3239 -0.3541  0.7364
17846TIP3    H174953   5.167   4.747  13.201 -1.2115 -1.8259 -0.2975
17846TIP3    H274954   5.039   4.820  13.167 -1.4471 -2.9701 -2.0063
17847TIP3   OH274955   5.152   6.674   4.643 -0.0829  0.5705 -0.2366
17847TIP3    H174956   5.071   6.670   4.694 -0.9402 -0.6724 -1.6092
17847TIP3    H274957   5.216   6.628   4.697 -0.0663  2.1675  1.1771
17848TIP3   OH274958   5.143   2.577   6.435 -0.0173 -0.1715  0.6386
17848TIP3    H174959   5.159   2.594   6.342  0.4953 -2.1900  0.3155
17848TIP3    H274960   5.060   2.529   6.436 -0.5918  0.8139  1.3402
17849TIP3   OH274961   2.010   0.384   5.357  0.4405  0.6230 -0.0044
17849TIP3    H174962   1.945   0.454   5.360 -0.3218 -0.0804  0.3496
17849TIP3    H274963   2.011   0.357   5.265  0.5921  0.9678 -0.1039
17850TIP3   OH274964   3.018   6.196   5.905 -0.0306  0.1467  0.1016
17850TIP3    H174965   2.971   6.260   5.853 -1.4366 -1.2305 -0.4114
17850TIP3    H274966   3.034   6.239   5.989 -1.0763  1.1036 -0.1760
17851TIP3   OH274967   3.582   0.427  11.748 -0.9572 -0.3377  0.6712
17851TIP3    H174968   3.533   0.507  11.764 -1.9030 -0.6289 -0.6279
17851TIP3    H274969   3.537   0.385  11.675  0.1970 -1.4908  0.5808
17852TIP3   OH274970   2.475   4.363   1.362 -0.0138  0.4841  0.3380
17852TIP3    H174971   2.386   4.388   1.386 -0.2851  0.1719 -0.3064
17852TIP3    H274972   2.502   4.301   1.430 -0.6587 -0.1726  0.0112
17853TIP3   OH274973   0.992   0.184  13.645  0.5744  0.2572  0.3620
17853TIP3    H174974   0.915   0.237  13.663  0.3697  0.0957 -0.0202
17853TIP3    H274975   0.994   0.175  13.550 -0.0011 -1.2932  0.4647
17854TIP3   OH274976   0.004   5.102   1.504 -0.2661  0.4046 -0.4355
17854TIP3    H174977   0.017   5.155   1.582 -2.6838  0.5062 -0.0375
17854TIP3    H274978  -0.050   5.156   1.446 -2.4038 -1.3312 -0.2083
17855TIP3   OH274979   3.207   1.889  14.800 -0.7479  0.2013  0.3439
17855TIP3    H174980   3.120   1.873  14.837 -0.4401  0.7812  1.3665
17855TIP3    H274981   3.247   1.952  14.860 -0.6403  2.0713 -1.5826
17856TIP3   OH274982   3.979   6.610  11.697  0.4802 -0.2919 -0.2951
17856TIP3    H174983   3.946   6.656  11.619 -1.3962  1.1840  1.2640
17856TIP3    H274984   3.959   6.518  11.680 -1.0402  0.1440 -1.0722
17857TIP3   OH274985   2.330   6.645  10.398  0.1118 -0.3317  0.2271
17857TIP3    H174986   2.267   6.640  10.326 -0.3069  0.5235  0.5210
17857TIP3    H274987   2.321   6.561  10.444 -0.6532 -0.3129  0.1243
17858TIP3   OH274988   2.474   0.609   2.295 -0.5431 -0.2248  0.2516
17858TIP3    H174989   2.391   0.589   2.253 -0.0536 -0.4442 -0.6558
17858TIP3    H274990   2.482   0.546   2.366 -0.9999 -0.4111  0.1367
17859TIP3   OH274991   2.260   6.564   4.056 -0.5318 -0.0537 -0.0368
17859TIP3    H174992   2.335   6.564   4.115 -0.7303  1.8492  0.2745
17859TIP3    H274993   2.252   6.655   4.027 -1.4729 -0.6175 -1.6782
17860TIP3   OH274994   1.208   6.465  11.322 -0.1951  0.0645  0.3336
17860TIP3    H174995   1.176   6.406  11.389  0.7159  0.0930  0.8167
17860TIP3    H274996   1.304   6.456  11.326 -0.1291 -0.6111 -1.5620
17861TIP3   OH274997   1.939   4.025  16.293  0.6533  0.1466  0.1026
17861TIP3    H174998   1.920   3.974  16.213  0.0959  4.0697 -2.5624
17861TIP3    H274999   1.881   3.988  16.359  0.1642 -2.4865 -1.6480
17862TIP3   OH275000   6.124   0.978   1.666 -0.3967  0.2482 -0.0341
17862TIP3    H175001   6.141   0.947   1.577 -0.3502 -1.6254  0.5909
17862TIP3    H275002   6.028   0.977   1.674 -0.3927  0.1932  0.0094
17863TIP3   OH275003   3.072   1.139   6.021 -0.2271  0.2122  0.4489
17863TIP3    H175004   3.096   1.200   5.951  0.5608  0.1977  0.6969
17863TIP3    H275005   3.081   1.052   5.982  0.9982  0.1692  0.7810
17864TIP3   OH275006   6.147   5.836   2.957  0.1914  0.6955  0.3911
17864TIP3    H175007   6.070   5.889   2.935  0.3596  1.0426  0.6288
17864TIP3    H275008   6.135   5.755   2.908 -1.0231  0.1797  1.4664
17865TIP3   OH275009   2.429   1.151  15.819 -0.1124 -0.1862 -0.2506
17865TIP3    H175010   2.434   1.154  15.724  0.6452  1.2324 -0.1850
17865TIP3    H275011   2.418   1.058  15.839 -0.0792 -0.5279 -1.7065
17866TIP3   OH275012   3.939   6.773   2.766 -0.4514  0.3974 -0.1287
17866TIP3    H175013   3.997   6.843   2.797 -0.5264  0.4627 -0.1373
17866TIP3    H275014   3.904   6.805   2.683  0.1685 -0.0073 -0.5517
17867TIP3   OH275015   2.221   6.081   1.597 -0.3665  0.0319 -0.0901
17867TIP3    H175016   2.287   6.050   1.535 -1.1871  1.2690 -1.6534
17867TIP3    H275017   2.201   6.170   1.569 -1.0747  0.4993  1.7352
17868TIP3   OH275018   2.826   1.466  13.407 -0.6906 -0.7074  0.0847
17868TIP3    H175019   2.869   1.496  13.327 -0.8645  0.2585  0.3346
17868TIP3    H275020   2.744   1.516  13.410 -0.7217 -0.7845  0.8233
17869TIP3   OH275021   0.556   6.061   6.140  0.4297  0.1000 -0.6460
17869TIP3    H175022   0.604   6.140   6.166  1.3513 -0.0148 -1.8975
17869TIP3    H275023   0.614   5.989   6.162  0.3166 -0.1159 -1.0420
17870TIP3   OH275024   1.105   3.932  11.539 -0.3212  0.1249 -0.1176
17870TIP3    H175025   1.161   4.003  11.506  0.9985 -0.8229 -0.0004
17870TIP3    H275026   1.159   3.887  11.604 -1.9497  0.3675  1.4904
17871TIP3   OH275027   2.224   3.495   0.662 -0.0949  0.4064 -0.2760
17871TIP3    H175028   2.228   3.470   0.569 -1.8593  0.0602 -0.2917
17871TIP3    H275029   2.135   3.475   0.688 -0.1441  2.1248  1.0510
17872TIP3   OH275030   5.351   4.329   2.676  0.6242  0.0911  0.4295
17872TIP3    H175031   5.257   4.336   2.661  0.2494 -0.3763  2.3321
17872TIP3    H275032   5.375   4.242   2.645  0.4686  0.2902 -0.2461
17873TIP3   OH275033   0.423   0.799  14.589  0.3044  0.4144  0.6084
17873TIP3    H175034   0.484   0.848  14.533  0.9661 -0.3785  0.6188
17873TIP3    H275035   0.342   0.850  14.586 -0.3563 -0.5594 -2.6996
17874TIP3   OH275036   2.435   0.277   1.771  0.0210  0.6143 -0.4729
17874TIP3    H175037   2.528   0.262   1.758  0.2501  2.7994 -1.8305
17874TIP3    H275038   2.396   0.253   1.687 -1.1296 -3.0365  0.9160
17875TIP3   OH275039   4.551   1.863   4.732 -0.3292  0.1651  0.1563
17875TIP3    H175040   4.556   1.769   4.716  2.4928  0.3181 -0.4904
17875TIP3    H275041   4.543   1.871   4.827 -0.1419 -0.7311  0.2569
17876TIP3   OH275042   4.300   2.166  15.949  0.0714  0.0739 -0.4263
17876TIP3    H175043   4.387   2.130  15.932 -0.5398 -1.3805 -0.6473
17876TIP3    H275044   4.242   2.116  15.892 -1.2583 -0.8806  1.6352
17877TIP3   OH275045   4.701   6.178   5.418 -0.2597 -0.5447  0.2985
17877TIP3    H175046   4.763   6.142   5.480  0.1647  0.4097  0.4381
17877TIP3    H275047   4.632   6.216   5.472 -1.5332 -2.4924  0.1465
17878TIP3   OH275048   5.708   1.814  14.171 -0.6846 -0.7892 -0.2705
17878TIP3    H175049   5.619   1.826  14.206  0.0058  0.4083  1.1744
17878TIP3    H275050   5.756   1.892  14.199  0.0564  0.1609 -3.7199
17879TIP3   OH275051   1.910   3.361  11.762  0.1359 -0.5630 -0.3475
17879TIP3    H175052   1.886   3.394  11.675 -1.8470  0.0699  0.3854
17879TIP3    H275053   1.856   3.411  11.823  0.7350 -1.6983  1.1868
17880TIP3   OH275054   6.450   2.788   2.615 -0.0025  0.0289  0.4497
17880TIP3    H175055   6.358   2.778   2.591 -0.3009  1.4938  0.8495
17880TIP3    H275056   6.491   2.707   2.586 -1.6978 -1.3534  1.6615
17881TIP3   OH275057   4.025   0.809  13.317  0.3497  0.0874  0.9062
17881TIP3    H175058   3.984   0.731  13.281  2.5929 -0.2614 -1.1364
17881TIP3    H275059   3.990   0.881  13.265 -0.1757  0.2156  1.4256
17882TIP3   OH275060   5.813   6.466  13.981 -0.3146 -0.7698 -0.5445
17882TIP3    H175061   5.818   6.466  14.077 -1.6969 -1.8149 -0.4298
17882TIP3    H275062   5.750   6.397  13.961 -3.9527  2.5971 -1.9599
17883TIP3   OH275063   3.754   2.834  16.690 -0.2237 -0.3802 -0.4575
17883TIP3    H175064   3.740   2.777  16.766 -0.4183 -0.7367 -0.7524
17883TIP3    H275065   3.843   2.813  16.661 -0.8716 -1.8103 -1.5849
17884TIP3   OH275066   2.446   6.102   1.379  0.1032  0.0513 -0.3081
17884TIP3    H175067   2.392   6.115   1.301 -0.2107  1.4395  0.1213
17884TIP3    H275068   2.459   6.190   1.414  1.3586 -0.4225  0.4680
17885TIP3   OH275069   0.019   0.578  15.085  0.3020 -0.2330  0.2498
17885TIP3    H175070   0.049   0.622  15.006  0.1421  0.7029  0.6923
17885TIP3    H275071  -0.075   0.596  15.088  0.2823 -0.3864  0.5778
17886TIP3   OH275072   4.851   2.426  12.685 -0.1601 -0.5513 -0.1172
17886TIP3    H175073   4.936   2.408  12.724 -0.0003 -1.6521 -0.9078
17886TIP3    H275074   4.795   2.354  12.715 -0.1053 -1.2649 -1.6351
17887TIP3   OH275075   2.416   6.204  10.944  0.0993  0.0130 -0.1378
17887TIP3    H175076   2.487   6.145  10.918 -0.6020 -0.6593 -0.5775
17887TIP3    H275077   2.457   6.290  10.949  0.8180 -0.2676 -0.9439
17888TIP3   OH275078   3.052   2.805  12.602 -0.1064 -0.7943  0.0227
17888TIP3    H175079   3.004   2.733  12.644 -0.1315 -1.1428 -0.5984
17888TIP3    H275080   2.991   2.839  12.537 -0.1045 -0.1887  0.3369
17889TIP3   OH275081   0.223   2.234  11.637  0.3792  0.3974 -0.1360
17889TIP3    H175082   0.245   2.321  11.669  1.3917 -0.3244  1.2220
17889TIP3    H275083   0.157   2.249  11.569 -0.1049  2.1560  0.6753
17890TIP3   OH275084   1.292   4.664  11.534 -0.5710 -0.3603  0.5300
17890TIP3    H175085   1.220   4.655  11.471  1.0456 -0.8514 -1.3505
17890TIP3    H275086   1.370   4.638  11.485  1.0914  1.3147  2.1051
17891TIP3   OH275087   2.534   4.657   1.379 -0.2608 -0.4093 -0.5048
17891TIP3    H175088   2.522   4.565   1.358 -0.9432 -0.3024 -0.6236
17891TIP3    H275089   2.533   4.660   1.475  1.1110 -0.6835 -0.4668
17892TIP3   OH275090   6.141   6.465  15.064  0.0247 -0.6638 -0.0294
17892TIP3    H175091   6.179   6.447  14.978  0.6951 -0.2509  0.1724
17892TIP3    H275092   6.216   6.484  15.119 -0.4628 -0.1044  0.4487
17893TIP3   OH275093   6.117   3.893  13.082  0.2568 -0.2511 -0.2555
17893TIP3    H175094   6.137   3.920  13.171 -0.0148 -1.0611  0.0595
17893TIP3    H275095   6.044   3.831  13.091  0.7956 -1.0127 -0.9528
17894TIP3   OH275096   3.989   3.496   2.517  0.1845  0.5257  0.0009
17894TIP3    H175097   4.008   3.557   2.588 -0.0101 -0.2538  0.7372
17894TIP3    H275098   4.074   3.469   2.485  0.2724  1.0081 -0.1775
17895TIP3   OH275099   6.505   3.470  12.817  0.0119  0.0724  0.4510
17895TIP3    H175100   6.430   3.458  12.876 -1.5671  1.7464 -1.0576
17895TIP3    H275101   6.513   3.387  12.771 -0.9398 -0.1373  0.6387
17896TIP3   OH275102   4.250   0.613  16.689  0.1123  0.2374  0.6487
17896TIP3    H175103   4.338   0.622  16.726  1.0330 -1.4699 -1.0000
17896TIP3    H275104   4.261   0.629  16.596 -1.4210  0.3689  0.4663
17897TIP3   OH275105   4.245   2.919   2.329  0.1590  0.0957 -0.1441
17897TIP3    H175106   4.186   2.845   2.315  0.4860 -0.0506 -0.8182
17897TIP3    H275107   4.312   2.909   2.261  0.7349  0.4792  0.3611
17898TIP3   OH275108   2.554   4.938   4.618 -0.5582 -0.5518 -0.7704
17898TIP3    H175109   2.621   4.999   4.650 -1.5483 -0.2147  0.7391
17898TIP3    H275110   2.599   4.887   4.550  1.0997 -0.0603 -0.0944
17899TIP3   OH275111   3.502   4.864   3.849 -0.4392 -0.5386  0.0610
17899TIP3    H175112   3.497   4.942   3.905  0.0315 -0.3152 -0.2080
17899TIP3    H275113   3.474   4.894   3.763  0.4270 -0.4883 -0.2158
17900TIP3   OH275114   3.604   6.255   0.306  0.3467  0.0069 -0.2538
17900TIP3    H175115   3.599   6.312   0.229 -1.4942  0.3686  0.0754
17900TIP3    H275116   3.668   6.297   0.363  0.1272  0.9419 -0.6743
17901TIP3   OH275117   6.142   6.711  13.181  0.1104 -0.4777 -0.2199
17901TIP3    H175118   6.170   6.720  13.273 -1.6322 -2.6363  0.5999
17901TIP3    H275119   6.060   6.760  13.177  1.1514  1.2918 -1.2137
17902TIP3   OH275120   3.738   3.611  13.963  0.3351  0.3494 -0.4396
17902TIP3    H175121   3.647   3.602  13.934  0.2260  1.1510 -0.3449
17902TIP3    H275122   3.732   3.656  14.047  0.8142  0.2530 -0.3531
17903TIP3   OH275123   0.029   4.008   6.055  0.2168  0.2165  0.0518
17903TIP3    H175124  -0.002   4.056   6.131 -0.5156  0.8632 -0.6375
17903TIP3    H275125   0.115   3.976   6.080 -0.1007  0.2375  1.2225
17904TIP3   OH275126   6.625   1.815   4.681  1.2434 -0.1278  0.1724
17904TIP3    H175127   6.684   1.835   4.609  1.0482  0.8627  0.2646
17904TIP3    H275128   6.649   1.727   4.709  1.2363 -0.5761 -1.1733
17905TIP3   OH275129   5.507   5.954   5.566 -0.3016  0.6400  0.0425
17905TIP3    H175130   5.486   6.031   5.513 -0.7433  0.8376  0.4913
17905TIP3    H275131   5.527   5.989   5.653  1.3206  0.3952 -0.2048
17906TIP3   OH275132   1.576   4.895  16.805 -0.1941 -0.2357  0.3085
17906TIP3    H175133   1.635   4.828  16.842  0.5833  0.5899  0.6046
17906TIP3    H275134   1.625   4.977  16.813 -0.9733  0.3169 -0.4131
17907TIP3   OH275135   2.507   3.275  16.419 -0.3455  0.0441  0.2091
17907TIP3    H175136   2.414   3.290  16.407 -0.0977  1.4368 -0.1362
17907TIP3    H275137   2.546   3.303  16.336  0.1141 -3.7154 -1.0427
17908TIP3   OH275138   4.629   3.154   5.159  0.0133  0.0261  0.0696
17908TIP3    H175139   4.695   3.101   5.204  0.0845  0.6126  0.6822
17908TIP3    H275140   4.677   3.229   5.125 -0.2485  0.1868  0.0523
17909TIP3   OH275141   5.958   0.729  15.313 -0.7110  0.2053  0.0498
17909TIP3    H175142   5.982   0.698  15.400 -2.3769  2.3459  1.3848
17909TIP3    H275143   6.015   0.805  15.298 -1.0663  0.4066 -0.3068
17910TIP3   OH275144   1.809   4.420  12.802  0.0561  0.0682 -0.1163
17910TIP3    H175145   1.745   4.483  12.837 -1.1034 -1.7992  1.2992
17910TIP3    H275146   1.894   4.460  12.822 -0.5636 -0.0976  3.5832
17911TIP3   OH275147   3.931   4.288  15.353 -0.0600  0.0976  0.3531
17911TIP3    H175148   3.889   4.222  15.297 -1.5701  1.0978  0.2640
17911TIP3    H275149   3.983   4.237  15.415  1.1523 -1.0786 -1.5252
17912TIP3   OH275150   0.902   5.276  12.803  0.1299 -0.5470 -0.6549
17912TIP3    H175151   0.905   5.371  12.796  0.8650 -0.5649 -0.6664
17912TIP3    H275152   0.841   5.248  12.734 -0.1107 -0.0845 -0.6275
17913TIP3   OH275153   3.511   5.925  11.653 -0.1692 -0.3354  0.4204
17913TIP3    H175154   3.429   5.879  11.634 -0.4851  0.4796 -0.2262
17913TIP3    H275155   3.577   5.878  11.602 -0.5231  0.0194 -0.3849
17914TIP3   OH275156   6.053   3.334  17.116  0.3798  0.1790 -0.4690
17914TIP3    H175157   5.960   3.350  17.100  0.4767  0.3798 -0.8396
17914TIP3    H275158   6.093   3.421  17.114  0.4880  0.1504  0.2791
17915TIP3   OH275159   0.190   4.857   5.409 -0.4500 -0.1026 -0.0605
17915TIP3    H175160   0.268   4.904   5.382 -0.3085 -1.2798 -1.8459
17915TIP3    H275161   0.212   4.822   5.496  1.2054 -0.7931 -0.7215
17916TIP3   OH275162   4.091   5.133   4.331  0.1299  0.8439  0.2841
17916TIP3    H175163   4.156   5.203   4.332 -0.5979  1.5349  0.7392
17916TIP3    H275164   4.134   5.060   4.286  1.0431  1.4438  0.1662
17917TIP3   OH275165   4.350   3.026   5.591  0.6129  0.0643  0.0257
17917TIP3    H175166   4.394   3.018   5.507  1.4792 -0.7589  0.5311
17917TIP3    H275167   4.300   2.944   5.600 -2.2544  1.5616 -1.1748
17918TIP3   OH275168   1.476   2.508   5.008 -0.3643  0.2050  0.7207
17918TIP3    H175169   1.446   2.526   4.920  0.6144  1.1567  0.5614
17918TIP3    H275170   1.572   2.510   5.002 -0.2373  2.6876  2.2306
17919TIP3   OH275171   1.643   5.210   5.972  0.3387  0.5307  0.4700
17919TIP3    H175172   1.601   5.182   6.053 -0.4497  0.5920  0.0905
17919TIP3    H275173   1.587   5.175   5.902  0.6321  1.0585 -0.0382
17920TIP3   OH275174   4.109   1.102   1.730 -0.1035  0.5022  0.2284
17920TIP3    H175175   4.025   1.122   1.772  0.2903 -1.3774  2.0527
17920TIP3    H275176   4.106   1.008   1.715  0.6725  0.8093 -2.0949
17921TIP3   OH275177   6.682   3.899   4.544 -0.0202 -0.3034 -0.1407
17921TIP3    H175178   6.681   3.844   4.466 -1.9642  0.8580 -1.0234
17921TIP3    H275179   6.671   3.837   4.617  0.4002 -1.2858 -0.8923
17922TIP3   OH275180   2.719   0.743   2.047 -0.0270 -0.0231 -0.0457
17922TIP3    H175181   2.633   0.716   2.015  0.4835 -3.5736  1.1480
17922TIP3    H275182   2.712   0.742   2.142  0.9593  1.1681  0.0703
17923TIP3   OH275183   3.312   4.482   1.444  0.6002  0.3609  0.5055
17923TIP3    H175184   3.251   4.440   1.505 -0.1336 -2.9441 -2.1821
17923TIP3    H275185   3.347   4.410   1.392  3.0521  2.7102 -1.3697
17924TIP3   OH275186   4.483   4.084   3.099 -0.2451 -0.3936 -0.9262
17924TIP3    H175187   4.562   4.088   3.154 -0.9527  1.2308  0.0349
17924TIP3    H275188   4.454   3.993   3.107  0.3833 -0.5084  0.4069
17925TIP3   OH275189   3.287   2.472  11.659 -0.2903 -0.3469 -0.1319
17925TIP3    H175190   3.369   2.458  11.706  0.0977 -0.9589 -0.9482
17925TIP3    H275191   3.282   2.398  11.598 -1.1051  0.0560 -0.5734
17926TIP3   OH275192   2.298   1.427   0.018  0.1219  0.1887  0.7409
17926TIP3    H175193   2.243   1.483   0.072  0.0839  0.7235  0.1611
17926TIP3    H275194   2.306   1.474  -0.065  0.4069 -0.4853  0.3762
17927TIP3   OH275195   4.665   4.860   1.329 -0.2226  0.1092 -0.2406
17927TIP3    H175196   4.621   4.936   1.367 -0.9575 -1.2311  1.7816
17927TIP3    H275197   4.719   4.895   1.259 -2.2714  2.1999 -0.8871
17928TIP3   OH275198   6.028   4.989  12.153  0.3367 -0.5114 -0.0470
17928TIP3    H175199   6.101   5.040  12.119  0.4103 -0.0023  0.8589
17928TIP3    H275200   5.952   5.021  12.103  0.7424 -1.2227 -1.1714
17929TIP3   OH275201   1.520   4.828  11.164  0.2947  0.5589  0.6656
17929TIP3    H175202   1.576   4.750  11.161  0.6680  0.8502 -0.9174
17929TIP3    H275203   1.488   4.838  11.074 -1.0818  1.2924  1.2115
17930TIP3   OH275204   4.634   3.734  11.299  0.1144 -0.9433 -0.1879
17930TIP3    H175205   4.543   3.752  11.277  0.5784  1.0080 -0.7255
17930TIP3    H275206   4.642   3.760  11.391  0.8513  2.4232 -1.0345
17931TIP3   OH275207   1.028   0.432  15.460  0.4093 -0.3345  0.3342
17931TIP3    H175208   1.037   0.366  15.529 -1.3547 -2.6725 -1.5148
17931TIP3    H275209   0.935   0.430  15.438  0.9160  0.3036 -2.1290
17932TIP3   OH275210   0.214   5.179  12.612  0.2942  0.5869  0.0334
17932TIP3    H175211   0.254   5.093  12.598  0.6959  0.6658  0.6853
17932TIP3    H275212   0.229   5.198  12.704  0.4289  1.4752 -0.1669
17933TIP3   OH275213   2.383   2.321   0.245  0.2697 -0.5642 -0.0739
17933TIP3    H175214   2.406   2.408   0.212  0.9586 -0.3601  0.8915
17933TIP3    H275215   2.467   2.276   0.253 -0.0402 -1.1604 -0.1077
17934TIP3   OH275216   5.659   0.448   5.825 -0.2019 -0.3656  0.1933
17934TIP3    H175217   5.565   0.429   5.828 -0.3726  0.3494 -0.3644
17934TIP3    H275218   5.690   0.400   5.748 -0.2729  0.0712 -0.1098
17935TIP3   OH275219   5.150   2.215   0.142 -0.3754  0.2615 -0.0458
17935TIP3    H175220   5.126   2.307   0.130  0.7356  0.6061  0.2652
17935TIP3    H275221   5.242   2.217   0.166 -0.0193 -1.0110 -1.1631
17936TIP3   OH275222   2.228   2.414   4.200  0.3663 -0.1320  0.3867
17936TIP3    H175223   2.275   2.333   4.221  0.7379 -0.3458 -1.0898
17936TIP3    H275224   2.264   2.440   4.115 -0.3592  1.1262  0.4425
17937TIP3   OH275225   0.750   0.584   4.561 -0.1431  0.6496  0.2365
17937TIP3    H175226   0.743   0.576   4.657 -0.1535 -0.1404  0.1808
17937TIP3    H275227   0.661   0.601   4.532  0.0333  2.0256  0.4517
17938TIP3   OH275228   2.972   1.114  16.920 -0.6340  0.1101  0.3013
17938TIP3    H175229   2.937   1.183  16.976 -1.2354  2.0140 -2.2234
17938TIP3    H275230   3.066   1.131  16.914 -0.6304  0.1283  0.4198
17939TIP3   OH275231   6.182   0.217  15.144  0.3921 -0.2837 -0.1449
17939TIP3    H175232   6.256   0.210  15.203 -0.2685 -0.0267  0.7365
17939TIP3    H275233   6.156   0.309  15.150  1.1395  0.0867 -1.8740
17940TIP3   OH275234   1.228   6.293   1.408  0.0854  0.5989  0.0103
17940TIP3    H175235   1.147   6.343   1.421 -0.0747  0.1325  0.8786
17940TIP3    H275236   1.201   6.202   1.412  0.8303  0.4129  1.7276
17941TIP3   OH275237   6.087   2.777   2.726 -0.1022  0.0979 -0.5071
17941TIP3    H175238   6.052   2.791   2.638 -0.5357  0.3461 -0.2957
17941TIP3    H275239   6.103   2.865   2.760 -0.7143  0.0292 -0.0278
17942TIP3   OH275240   6.596   3.095  11.277 -0.1429  0.2907 -0.3474
17942TIP3    H175241   6.575   3.072  11.186 -1.0846 -1.1658  0.2070
17942TIP3    H275242   6.664   3.033  11.302 -0.1074  0.4905  0.0513
17943TIP3   OH275243   0.660   4.346   2.651 -0.0080  0.2521  0.0275
17943TIP3    H175244   0.659   4.420   2.712 -0.6146  0.7089 -0.5275
17943TIP3    H275245   0.712   4.279   2.695 -0.7279  0.4440  1.1956
17944TIP3   OH275246   1.234   3.806  13.962  0.7067 -0.0715  0.4730
17944TIP3    H175247   1.207   3.793  14.053  0.6763  0.9977  0.6275
17944TIP3    H275248   1.324   3.839  13.968  0.0802  1.8314  0.2316
17945TIP3   OH275249   6.139   5.045   1.200 -0.2987 -0.1384 -0.6707
17945TIP3    H175250   6.091   5.127   1.194  0.8025  0.4474 -2.2836
17945TIP3    H275251   6.170   5.029   1.110  0.2507 -1.8590 -0.2113
17946TIP3   OH275252   1.309   5.739  13.093  0.6420  0.4155  0.3857
17946TIP3    H175253   1.318   5.828  13.126 -2.0957  1.5883 -1.5994
17946TIP3    H275254   1.245   5.697  13.151  1.2819  0.0026  0.8061
17947TIP3   OH275255   5.770   6.412  16.141 -0.4392  0.1708 -0.2023
17947TIP3    H175256   5.811   6.337  16.184 -1.5038 -0.4710 -0.2446
17947TIP3    H275257   5.780   6.394  16.047  0.2851  0.6463 -0.2158
17948TIP3   OH275258   1.154   5.537  15.842 -0.7426  0.4263 -0.1408
17948TIP3    H175259   1.105   5.590  15.905  0.3541  2.7696 -1.1777
17948TIP3    H275260   1.246   5.553  15.863 -0.3310 -1.7907  0.0359
17949TIP3   OH275261   3.341   2.081  11.638  0.4631  0.1214 -0.1347
17949TIP3    H175262   3.432   2.110  11.648 -0.4622  2.7561  1.8160
17949TIP3    H275263   3.291   2.140  11.695 -2.1442 -3.0993  1.2239
17950TIP3   OH275264   6.772   4.991   0.073  0.9713  0.2613  0.5486
17950TIP3    H175265   6.848   4.936   0.090  1.2315  0.9535  1.7454
17950TIP3    H275266   6.805   5.081   0.082  0.9916  0.7728 -3.1041
17951TIP3   OH275267   3.252   4.689  11.926 -0.2820  0.1187 -0.1368
17951TIP3    H175268   3.325   4.649  11.975  0.4451  1.2657 -0.2522
17951TIP3    H275269   3.190   4.617  11.915  0.7721 -0.8717  0.0710
17952TIP3   OH275270   5.199   6.475  11.850  0.0843  0.1673  0.3458
17952TIP3    H175271   5.279   6.520  11.877 -0.0125 -0.0248  0.9774
17952TIP3    H275272   5.222   6.434  11.767  0.1122  1.5353 -0.3429
17953TIP3   OH275273   5.933   4.539  15.301  0.0811 -0.3526 -0.3881
17953TIP3    H175274   6.020   4.498  15.309 -0.4525 -1.4670 -0.0444
17953TIP3    H275275   5.872   4.466  15.312 -0.9013  0.3850 -0.8458
17954TIP3   OH275276   4.562   5.147   1.080 -0.7761  0.1615 -0.0546
17954TIP3    H175277   4.646   5.120   1.042 -1.1907 -0.5699 -0.4619
17954TIP3    H275278   4.587   5.202   1.155  0.0795 -0.7590  0.3644
17955TIP3   OH275279   3.992   2.775  12.670  0.0637 -0.1114 -0.4807
17955TIP3    H175280   3.942   2.789  12.750  1.2462  0.9138  0.1299
17955TIP3    H275281   4.081   2.801  12.693  0.4047  0.3709 -2.1765
17956TIP3   OH275282   5.799   4.269  14.799 -0.5923 -0.0695  0.3383
17956TIP3    H175283   5.886   4.289  14.832 -0.2987 -0.3046 -0.2718
17956TIP3    H275284   5.765   4.353  14.767 -0.2235 -0.1322 -0.2427
17957TIP3   OH275285   4.017   1.442  10.262  0.1720 -0.1328  0.1320
17957TIP3    H175286   3.927   1.469  10.278  0.7741  1.5120  0.9440
17957TIP3    H275287   4.062   1.522  10.235  1.0867 -1.2197 -1.7292
17958TIP3   OH275288   1.003   2.052  15.662 -0.4240 -0.3329  0.6375
17958TIP3    H175289   0.923   2.001  15.659 -1.4332  1.0494  2.0984
17958TIP3    H275290   1.041   2.043  15.574 -2.0245 -1.2509 -0.0030
17959TIP3   OH275291   3.398   4.823   2.273 -0.9465 -0.3849 -0.6605
17959TIP3    H175292   3.329   4.828   2.207 -1.0289  3.3529 -0.5161
17959TIP3    H275293   3.476   4.858   2.230 -0.6484  0.8239  0.7667
17960TIP3   OH275294   1.222   1.927  11.692  0.2953 -0.2570  0.5413
17960TIP3    H175295   1.223   1.911  11.787  0.0447 -0.8461  0.4497
17960TIP3    H275296   1.303   1.887  11.660  0.4445  0.0552  0.5166
17961TIP3   OH275297   0.639   1.151  13.685 -0.4494 -0.3499 -0.0804
17961TIP3    H175298   0.626   1.119  13.774 -0.4553 -2.4176 -0.7611
17961TIP3    H275299   0.685   1.080  13.640  0.5509  1.0831 -1.4583
17962TIP3   OH275300   0.256   0.260   5.938  0.0457  0.0352  0.0271
17962TIP3    H175301   0.346   0.257   5.972  0.4760  0.4528 -1.0234
17962TIP3    H275302   0.216   0.178   5.969  0.5553  0.1626  1.0893
17963TIP3   OH275303   3.855   6.165   3.884  0.1365  0.1503  0.3744
17963TIP3    H175304   3.814   6.094   3.834 -1.1730 -0.1152  1.7805
17963TIP3    H275305   3.837   6.244   3.832  2.2475 -0.5332 -1.5948
17964TIP3   OH275306   0.396   2.259   3.511 -0.8631 -0.0335  0.2639
17964TIP3    H175307   0.438   2.242   3.596  0.6204 -0.9261 -0.5953
17964TIP3    H275308   0.368   2.172   3.481 -2.8454  0.4735  0.5322
17965TIP3   OH275309   1.990   2.913  14.824  0.1666  0.0474 -0.3268
17965TIP3    H175310   1.991   2.905  14.920 -1.8994  0.2893 -0.2375
17965TIP3    H275311   1.906   2.957  14.805  0.7414  0.4020 -2.2208
17966TIP3   OH275312   4.953   4.765   5.710  0.1069 -0.4307  0.3314
17966TIP3    H175313   4.969   4.830   5.779 -0.4465 -0.9400  0.9461
17966TIP3    H275314   5.038   4.755   5.667  0.5151 -0.2611  1.0795
17967TIP3   OH275315   1.512   2.115  15.297  0.1898 -0.0625 -0.1404
17967TIP3    H175316   1.594   2.155  15.327 -0.0841  0.9867 -0.7487
17967TIP3    H275317   1.452   2.128  15.370 -0.4537  2.4233 -1.0037
17968TIP3   OH275318   5.236   2.506  16.852  0.5322  0.4581 -0.0545
17968TIP3    H175319   5.252   2.461  16.935 -0.6223  2.2247  1.2166
17968TIP3    H275320   5.272   2.448  16.785  0.3962 -1.6147  1.5726
17969TIP3   OH275321   4.175   4.562   0.188 -0.8578 -0.5462  0.2073
17969TIP3    H175322   4.258   4.592   0.150 -1.5473  1.3064  0.0870
17969TIP3    H275323   4.189   4.468   0.204  0.9113 -0.4820 -0.7036
17970TIP3   OH275324   6.146   2.789  14.572  0.6136  0.1130 -0.0324
17970TIP3    H175325   6.063   2.745  14.587  0.6527  0.0425 -0.0218
17970TIP3    H275326   6.162   2.839  14.652  1.0052 -0.5571  0.3124
17971TIP3   OH275327   2.367   2.592  16.655 -0.1248  0.5824 -0.5194
17971TIP3    H175328   2.305   2.563  16.722  0.8880  0.5247  0.4196
17971TIP3    H275329   2.430   2.647  16.702  0.3467  0.9288 -1.5131
17972TIP3   OH275330   4.261   4.300   2.690 -0.0996 -0.2840 -0.0935
17972TIP3    H175331   4.334   4.298   2.752 -2.5045  0.7155  3.0276
17972TIP3    H275332   4.275   4.381   2.641  1.2651 -0.5030 -0.1195
17973TIP3   OH275333   6.486   6.043  14.736 -0.2769  0.6961  0.3578
17973TIP3    H175334   6.533   6.068  14.815  0.5465 -1.0450  0.4564
17973TIP3    H275335   6.407   5.999  14.768 -0.1148  0.2984  0.2121
17974TIP3   OH275336   5.485   1.093  11.117  0.2221  0.9029  0.5473
17974TIP3    H175337   5.551   1.132  11.059 -1.1884  0.8696 -1.1593
17974TIP3    H275338   5.498   0.999  11.108 -0.8206  0.8430 -0.8388
17975TIP3   OH275339   6.004   3.628  12.021  0.1092 -0.0868  0.0921
17975TIP3    H175340   6.033   3.619  12.112  0.5187  1.4933  0.1495
17975TIP3    H275341   6.050   3.558  11.975  0.4379 -0.4770  0.9871
17976TIP3   OH275342   4.886   3.744  11.810 -0.0688 -0.0019  0.0367
17976TIP3    H175343   4.877   3.788  11.894  1.3415  1.8568 -0.7242
17976TIP3    H275344   4.797   3.716  11.787 -0.3034 -1.9379  2.7799
17977TIP3   OH275345   0.505   5.597  14.667 -0.2375  0.1659 -0.0750
17977TIP3    H175346   0.412   5.576  14.670 -0.0575 -0.6296  0.3248
17977TIP3    H275347   0.544   5.543  14.735  0.3686  1.3512  0.5515
17978TIP3   OH275348   1.698   5.513  11.258  0.0166 -0.2082  0.9638
17978TIP3    H175349   1.664   5.476  11.177 -1.1929  0.5690  1.0934
17978TIP3    H275350   1.671   5.451  11.326 -2.0633  0.8228  1.1888
17979TIP3   OH275351   0.060   4.171   0.426  0.5806  0.0468  0.6020
17979TIP3    H175352   0.006   4.170   0.505 -1.2161 -0.1415 -0.5637
17979TIP3    H275353   0.147   4.197   0.457  0.3949 -1.6812  2.8946
17980TIP3   OH275354   2.949   0.341  16.183 -0.1237 -0.0767  0.2556
17980TIP3    H175355   3.005   0.266  16.202 -0.1581 -0.0823  0.3340
17980TIP3    H275356   2.968   0.404  16.253 -0.1600 -0.0478  0.2398
17981TIP3   OH275357   0.639   5.527   2.030  0.1480 -0.2055 -0.1852
17981TIP3    H175358   0.732   5.502   2.038  0.3240 -0.7282 -3.0052
17981TIP3    H275359   0.592   5.455   2.071  0.9462  0.0407  1.2473
17982TIP3   OH275360   5.582   5.479   5.653  0.2557  0.0692  0.0742
17982TIP3    H175361   5.671   5.462   5.621  0.8910  0.6105  1.4502
17982TIP3    H275362   5.554   5.557   5.605 -0.4123 -1.3783 -2.0305
17983TIP3   OH275363   2.143   3.268  12.885 -0.0084 -0.2525  0.3168
17983TIP3    H175364   2.212   3.221  12.838  0.2415  0.3177  0.1117
17983TIP3    H275365   2.086   3.199  12.919  0.4790 -0.7143  0.2065
17984TIP3   OH275366   0.959   1.390   4.546  0.0068  0.6548 -0.0241
17984TIP3    H175367   1.000   1.356   4.466 -0.3364  1.5363 -0.5893
17984TIP3    H275368   0.962   1.485   4.536  0.9810  0.8395  1.5392
17985TIP3   OH275369   0.854   4.424   4.685  0.4574 -0.1683  0.1810
17985TIP3    H175370   0.762   4.403   4.702  0.1570 -0.0067 -1.1525
17985TIP3    H275371   0.903   4.360   4.738 -0.4153 -0.6473  0.4415
17986TIP3   OH275372   2.919   4.935   2.593  0.0114 -0.2019 -0.4600
17986TIP3    H175373   2.855   4.932   2.522 -0.9364  0.0380  0.3645
17986TIP3    H275374   2.969   5.015   2.577  0.7561 -0.8779 -1.6435
17987TIP3   OH275375   5.423   0.566   4.082  0.0067  0.0896  0.5528
17987TIP3    H175376   5.445   0.473   4.074 -2.1882 -0.7926  3.2330
17987TIP3    H275377   5.373   0.585   4.003  2.4067 -0.2932 -1.1652
17988TIP3   OH275378   6.551   4.467  12.370 -0.3917 -0.6195 -0.0102
17988TIP3    H175379   6.479   4.509  12.416  0.4042 -0.0740  0.7572
17988TIP3    H275380   6.612   4.539  12.349  1.0815 -1.3728  1.4905
17989TIP3   OH275381   4.389   0.454   1.969  0.0291 -0.0547 -0.0500
17989TIP3    H175382   4.455   0.442   2.037  0.6034  2.0438 -0.1472
17989TIP3    H275383   4.390   0.372   1.919  3.3237  0.2225 -0.6656
17990TIP3   OH275384   3.273   5.196   3.657 -0.0437 -0.3721  0.0410
17990TIP3    H175385   3.356   5.155   3.682 -0.1743  0.6266  2.3539
17990TIP3    H275386   3.298   5.259   3.589  0.9863 -0.5730  0.2082
17991TIP3   OH275387   2.478   2.302  12.757 -0.9474  0.0747 -0.9265
17991TIP3    H175388   2.461   2.211  12.736  0.2987 -0.0438 -1.5156
17991TIP3    H275389   2.475   2.347  12.672  2.4483 -0.1297 -1.2953
17992TIP3   OH275390   5.458   6.031  15.351 -0.0289 -0.4409  1.0595
17992TIP3    H175391   5.366   6.033  15.379 -0.7716 -1.6766 -1.0262
17992TIP3    H275392   5.464   5.953  15.294  2.5395 -0.9133  1.8341
17993TIP3   OH275393   1.220   2.748  17.121  0.5295 -0.1289  0.1631
17993TIP3    H175394   1.234   2.689  17.047  0.1736 -1.8616  1.3991
17993TIP3    H275395   1.137   2.719  17.159  0.6473  0.7951  1.1626
17994TIP3   OH275396   3.457   1.285   5.237  0.3166 -0.3146  0.2293
17994TIP3    H175397   3.515   1.242   5.300  0.4454  0.8573  0.9209
17994TIP3    H275398   3.423   1.361   5.283 -2.1803 -1.2044  0.0271
17995TIP3   OH275399   2.194   0.373  13.170 -0.5751 -0.0253 -0.5046
17995TIP3    H175400   2.126   0.309  13.155  0.2752 -1.2550  0.6751
17995TIP3    H275401   2.275   0.331  13.140 -0.4060  1.8114 -2.9178
17996TIP3   OH275402   4.554   1.456   3.647 -0.1474 -0.4037 -0.0479
17996TIP3    H175403   4.506   1.429   3.569  1.1186 -0.7229 -0.7408
17996TIP3    H275404   4.573   1.549   3.633 -0.7940 -0.2112  0.3490
17997TIP3   OH275405   2.219   5.417   3.316  0.2116 -0.4477  0.1591
17997TIP3    H175406   2.212   5.323   3.333 -1.6968  0.0389  2.6558
17997TIP3    H275407   2.130   5.450   3.331  0.7952  1.7521 -0.8410
17998TIP3   OH275408   0.575   1.703  13.659 -0.1491  0.1882  0.0411
17998TIP3    H175409   0.562   1.774  13.722  1.9830  1.4404 -0.8347
17998TIP3    H275410   0.542   1.738  13.576  4.3901  1.9464 -1.3423
17999TIP3   OH275411   5.864   1.045   1.396 -0.0189 -0.0865 -0.0581
17999TIP3    H175412   5.901   0.968   1.439 -0.2698 -0.1886 -0.0249
17999TIP3    H275413   5.808   1.010   1.328  0.7079  0.0786 -0.7545
18000TIP3   OH275414   3.095   0.645   3.986  0.0172 -0.4487 -0.3056
18000TIP3    H175415   3.128   0.686   4.066 -0.2682  1.1658 -0.9554
18000TIP3    H275416   3.112   0.711   3.918  1.4742 -2.2875 -1.8387
18001TIP3   OH275417   0.085   1.025   0.127 -0.2682  0.0585 -0.5886
18001TIP3    H175418   0.067   0.934   0.104 -1.4702 -0.0400  0.6084
18001TIP3    H275419   0.176   1.025   0.156  0.1486 -0.4958 -1.8557
18002TIP3   OH275420   2.199   5.375   1.975 -0.0169 -0.4387 -0.2648
18002TIP3    H175421   2.112   5.400   1.943  0.0302 -0.3333 -0.3098
18002TIP3    H275422   2.228   5.449   2.027 -0.5371 -1.0314  0.9030
18003TIP3   OH275423   3.492   4.536   3.337 -0.2787 -0.1013  0.0682
18003TIP3    H175424   3.564   4.578   3.291  0.9379 -0.6930  1.3351
18003TIP3    H275425   3.475   4.455   3.288 -0.0264  0.0073 -0.1999
18004TIP3   OH275426   6.729   1.137  12.788 -0.8529 -0.0476 -0.0545
18004TIP3    H175427   6.635   1.125  12.802 -0.7260 -1.5314 -0.2465
18004TIP3    H275428   6.764   1.048  12.788  0.7461  0.5269  1.3263
18005TIP3   OH275429   0.035   4.106  15.474 -0.1322  0.3012 -0.3120
18005TIP3    H175430   0.045   4.015  15.503 -1.3822  0.2233 -0.0762
18005TIP3    H275431   0.046   4.158  15.554 -1.2568  0.2251 -0.0854
18006TIP3   OH275432   3.866   6.485  11.408 -0.1128 -0.0431  0.7236
18006TIP3    H175433   3.938   6.424  11.426  1.3258  1.5267  0.5535
18006TIP3    H275434   3.839   6.464  11.319  0.8259 -0.0201  0.4167
18007TIP3   OH275435   1.941   4.071  13.484 -0.1727  0.0710  0.5238
18007TIP3    H175436   1.943   4.007  13.413 -0.1920  0.1765  0.4290
18007TIP3    H275437   2.022   4.121  13.473  1.5900 -2.0837  2.5689
18008TIP3   OH275438   0.140   0.451  12.147 -0.5132 -0.1111 -0.1367
18008TIP3    H175439   0.064   0.480  12.198 -0.1672  0.4376  0.0817
18008TIP3    H275440   0.108   0.378  12.095 -0.8343 -0.8069  1.0020
18009TIP3   OH275441   3.843   5.614   2.290  0.3664 -0.1195  0.2004
18009TIP3    H175442   3.892   5.610   2.208  1.0864  1.3045  0.5236
18009TIP3    H275443   3.770   5.554   2.277  1.8277 -1.8418 -0.5359
18010TIP3   OH275444   1.467   2.376   3.025 -1.0890 -0.2751 -0.6054
18010TIP3    H175445   1.440   2.285   3.035 -0.1600 -0.4756  0.3118
18010TIP3    H275446   1.532   2.389   3.094 -0.2054  0.6917 -1.5842
18011TIP3   OH275447   4.375   1.345   5.656  0.1352 -0.0998  0.1097
18011TIP3    H175448   4.444   1.372   5.596 -0.3628  2.0198  0.4167
18011TIP3    H275449   4.312   1.416   5.654 -0.2957 -0.3276  2.5292
18012TIP3   OH275450   2.680   4.892  11.738 -0.8276  0.3836  0.5692
18012TIP3    H175451   2.591   4.859  11.744 -1.0517  0.7721 -0.4228
18012TIP3    H275452   2.672   4.974  11.690 -0.1197  1.2265  1.8167
18013TIP3   OH275453   4.474   4.507   4.170 -0.0553 -0.8177 -0.0078
18013TIP3    H175454   4.409   4.526   4.102  0.3811 -2.4734 -0.9357
18013TIP3    H275455   4.427   4.520   4.252 -1.1739 -0.6951 -0.6519
18014TIP3   OH275456   5.872   1.885  15.599  0.0759 -0.0565 -0.2292
18014TIP3    H175457   5.840   1.891  15.689 -1.1771  1.7574 -0.7501
18014TIP3    H275458   5.967   1.895  15.607  0.1144 -1.1562  0.9740
18015TIP3   OH275459   1.666   4.281   1.620  0.0951 -0.0542  0.3642
18015TIP3    H175460   1.730   4.333   1.670  0.5293 -0.8271  0.6308
18015TIP3    H275461   1.717   4.206   1.588 -0.9150 -1.2757  1.5164
18016TIP3   OH275462   0.140   0.089  11.816 -0.6053  0.7254  0.0937
18016TIP3    H175463   0.229   0.121  11.831 -0.2533 -0.4390  0.6287
18016TIP3    H275464   0.126   0.100  11.722 -0.0195  1.2096  0.0564
18017TIP3   OH275465   4.268   0.786  14.863  0.1744  0.3691 -0.0833
18017TIP3    H175466   4.228   0.810  14.778  2.4937 -2.5330 -2.1888
18017TIP3    H275467   4.352   0.832  14.863 -0.3900  1.5134  1.4555
18018TIP3   OH275468   5.307   0.011  13.817  0.2987  0.2258 -0.4271
18018TIP3    H175469   5.269  -0.026  13.738  0.6345  0.7790 -0.8542
18018TIP3    H275470   5.358  -0.060  13.855  0.1285 -0.0437 -0.6988
18019TIP3   OH275471   0.242   0.192  15.555  0.0047  0.4973  0.2921
18019TIP3    H175472   0.185   0.251  15.604 -1.6235 -1.2130  0.5400
18019TIP3    H275473   0.202   0.184  15.469  0.5686  0.2397  0.0445
18020TIP3   OH275474   1.032   1.645  16.288  0.0404 -0.6420 -0.0448
18020TIP3    H175475   0.991   1.716  16.338 -1.2364 -2.5850  1.8925
18020TIP3    H275476   0.959   1.600  16.245  0.4513 -2.2469  0.8277
18021TIP3   OH275477   5.542   6.558   4.684 -0.3805 -1.0292  0.3067
18021TIP3    H175478   5.586   6.511   4.613 -0.6628 -0.4098 -0.2896
18021TIP3    H275479   5.548   6.651   4.658  1.2874 -0.5826  2.0529
18022TIP3   OH275480   3.577   2.533  12.179  0.1112  0.4934  0.7158
18022TIP3    H175481   3.517   2.501  12.246  1.5726 -1.5835  1.1442
18022TIP3    H275482   3.521   2.548  12.102 -0.9041 -2.4887  0.7253
18023TIP3   OH275483   2.506   4.460   3.268  0.3712  0.2666 -0.1041
18023TIP3    H175484   2.438   4.493   3.326 -1.4896 -0.8082 -1.5660
18023TIP3    H275485   2.560   4.405   3.324 -1.0684 -0.3274  0.7477
18024TIP3   OH275486   5.941   6.477   1.406  0.0712 -0.4527 -0.1505
18024TIP3    H175487   6.023   6.490   1.358  0.7405 -1.1812  0.7692
18024TIP3    H275488   5.877   6.456   1.337  1.3367 -3.0303 -0.6758
18025TIP3   OH275489   5.772   6.125   0.368 -0.6077  0.3184 -0.3836
18025TIP3    H175490   5.815   6.067   0.431 -2.8193  0.7204  1.6739
18025TIP3    H275491   5.700   6.072   0.332 -2.6430  1.6078  1.5072
18026TIP3   OH275492   4.365   5.889  13.216 -0.5810 -0.0646  0.3293
18026TIP3    H175493   4.370   5.984  13.225 -2.5591  0.0482  0.5802
18026TIP3    H275494   4.316   5.874  13.135 -0.0331 -0.8909  0.1277
18027TIP3   OH275495   4.491   4.050   4.740  0.1177 -0.1815 -0.6225
18027TIP3    H175496   4.559   4.048   4.807 -0.3830  0.6242 -0.0829
18027TIP3    H275497   4.479   3.958   4.716  1.5276 -0.3355 -0.8756
18028TIP3   OH275498   2.038   6.228  14.475  0.0896 -0.1512 -0.0598
18028TIP3    H175499   2.083   6.285  14.412 -1.6823  1.4552  0.0399
18028TIP3    H275500   2.008   6.287  14.544 -1.1639 -1.3337  0.4534
18029TIP3   OH275501   3.645   3.452   6.140  0.3754 -0.3193 -0.0719
18029TIP3    H175502   3.653   3.515   6.212  2.0130 -0.8540  0.2623
18029TIP3    H275503   3.624   3.370   6.183 -0.9279 -0.1841 -0.4318
18030TIP3   OH275504   5.836   1.403  15.185 -0.4315  0.8349  0.3446
18030TIP3    H175505   5.850   1.364  15.271  0.3011 -1.2008 -0.6425
18030TIP3    H275506   5.747   1.377  15.161  0.1124 -0.4628 -0.3810
18031TIP3   OH275507   3.030   4.478   3.302 -0.7960  0.1216 -0.0869
18031TIP3    H175508   3.017   4.394   3.347  0.7397  0.2640  0.7082
18031TIP3    H275509   2.953   4.488   3.247 -1.9916 -0.8333  1.3328
18032TIP3   OH275510   1.987   3.291  14.764 -0.5279  0.1355 -0.2152
18032TIP3    H175511   1.968   3.198  14.770  1.0256 -0.1883  0.1248
18032TIP3    H275512   1.967   3.314  14.673  0.6856 -0.9334 -0.7860
18033TIP3   OH275513   3.407   1.320  14.017  0.2150 -0.7232 -0.2171
18033TIP3    H175514   3.435   1.409  14.038  1.1060 -1.1176  0.3144
18033TIP3    H275515   3.362   1.290  14.096  1.0381 -1.1838  0.0933
18034TIP3   OH275516   6.448   1.683   0.146 -0.1037 -0.1669 -0.2220
18034TIP3    H175517   6.355   1.669   0.127  0.1818 -0.9239 -1.1512
18034TIP3    H275518   6.458   1.657   0.237 -0.7464 -0.3854 -0.2118
18035TIP3   OH275519   0.155   6.374  16.346  0.0681 -0.0717  0.6323
18035TIP3    H175520   0.156   6.460  16.389 -1.5431 -0.4730  1.5460
18035TIP3    H275521   0.245   6.343  16.354  0.2988  0.8075  1.8196
18036TIP3   OH275522   1.802   4.550  14.695 -0.5311 -0.2783 -0.0903
18036TIP3    H175523   1.863   4.610  14.653 -0.4256  0.0405  0.4995
18036TIP3    H275524   1.780   4.486  14.628 -0.3670  0.2187 -0.6186
18037TIP3   OH275525   0.933   5.677  11.690 -0.3329 -0.1764 -0.5901
18037TIP3    H175526   0.981   5.751  11.653 -0.5230 -0.5113 -1.5556
18037TIP3    H275527   0.982   5.600  11.662 -0.2647 -0.4252  0.2109
18038TIP3   OH275528   4.225   5.068  15.538 -0.5557  0.1330  0.5972
18038TIP3    H175529   4.230   5.161  15.561 -0.2213  0.3325 -0.2752
18038TIP3    H275530   4.277   5.025  15.606  0.0204  0.6675  0.5055
18039TIP3   OH275531   0.198   3.194   1.261  0.3678 -0.8530 -0.0555
18039TIP3    H175532   0.220   3.212   1.352  0.9428 -0.3224 -0.2860
18039TIP3    H275533   0.105   3.214   1.253  0.5120 -0.0712  0.2142
18040TIP3   OH275534   2.958   0.315  16.706  0.2160 -0.0689 -0.2785
18040TIP3    H175535   3.040   0.299  16.753 -0.4743  0.7076  1.2416
18040TIP3    H275536   2.985   0.356  16.624  1.4397 -1.2850 -0.5237
18041TIP3   OH275537   4.250   3.075   5.155  0.0821  0.6224 -0.4128
18041TIP3    H175538   4.280   2.991   5.190 -3.2313 -0.7638 -0.5404
18041TIP3    H275539   4.317   3.099   5.090  0.8873 -2.1814 -0.7490
18042TIP3   OH275540   4.619   2.792  17.053 -0.2649 -0.5425  0.4451
18042TIP3    H175541   4.575   2.874  17.075  0.8084  0.6476 -1.5302
18042TIP3    H275542   4.565   2.754  16.984  0.1946 -0.5701  0.0959
18043TIP3   OH275543   6.422   3.455  17.189 -0.1889 -0.1777  0.1649
18043TIP3    H175544   6.385   3.532  17.146  0.3515 -0.1530 -0.2545
18043TIP3    H275545   6.445   3.485  17.277  0.1312  0.1678 -0.0373
18044TIP3   OH275546   6.006   6.336   4.646 -0.0676 -0.2119  0.0906
18044TIP3    H175547   6.080   6.396   4.643 -1.5394  1.6731 -1.5044
18044TIP3    H275548   5.980   6.324   4.554  0.3797 -3.7069  0.2719
18045TIP3   OH275549   5.352   2.809   2.352 -0.6229  0.4716 -0.1170
18045TIP3    H175550   5.378   2.896   2.381 -0.6324  0.7436 -0.9024
18045TIP3    H275551   5.309   2.770   2.428  2.1903 -0.0764  1.3333
18046TIP3   OH275552   2.931   4.068   0.716 -0.4001 -0.2311 -0.0660
18046TIP3    H175553   2.936   4.125   0.639  1.1926 -0.3911 -0.1205
18046TIP3    H275554   2.875   4.115   0.777  0.0310  0.9086 -0.5121
18047TIP3   OH275555   2.702   2.028   4.956 -1.0186  0.9585 -0.5594
18047TIP3    H175556   2.720   2.005   4.864 -1.8139 -1.7535 -0.1281
18047TIP3    H275557   2.610   2.006   4.968 -0.2496 -1.5908  1.5787
18048TIP3   OH275558   4.949   2.243   3.524 -0.4443  0.3770  0.4282
18048TIP3    H175559   4.904   2.211   3.446 -0.6506  0.2529  0.5941
18048TIP3    H275560   5.009   2.172   3.548  2.0549  1.7014 -1.4956
18049TIP3   OH275561   2.798   0.390   6.189  0.1664  0.0388  0.1909
18049TIP3    H175562   2.747   0.313   6.215 -0.1516 -0.2575 -1.2516
18049TIP3    H275563   2.743   0.464   6.213 -0.3973 -0.2422 -0.2117
18050TIP3   OH275564   0.837   3.063  12.957 -0.0989  0.0318 -0.2261
18050TIP3    H175565   0.885   3.133  12.913  1.7389 -1.2335 -0.3138
18050TIP3    H275566   0.898   3.027  13.021 -0.6740 -2.0291 -0.7496
18051TIP3   OH275567   6.679   3.381  17.108  0.1165 -0.0206 -0.7479
18051TIP3    H175568   6.737   3.404  17.181 -0.1971 -0.2798 -0.4159
18051TIP3    H275569   6.595   3.420  17.132  0.5419  1.7902 -1.9972
18052TIP3   OH275570   2.726   2.229   3.922  0.4251  0.0356  0.2457
18052TIP3    H175571   2.817   2.244   3.899  0.3003  0.7617  0.2141
18052TIP3    H275572   2.687   2.192   3.843  1.0898 -1.9698  0.8027
18053TIP3   OH275573   6.396   4.305   5.368 -0.1248 -0.0640  0.4350
18053TIP3    H175574   6.476   4.356   5.382 -0.5109  0.3119  1.3310
18053TIP3    H275575   6.336   4.366   5.325  0.5310 -0.7641 -1.5785
18054TIP3   OH275576   1.124   4.132  14.447 -0.7480  0.1301 -0.4070
18054TIP3    H175577   1.038   4.115  14.485 -0.8426  0.6661 -0.3709
18054TIP3    H275578   1.105   4.158  14.357 -0.6592  0.6318 -0.2858
18055TIP3   OH275579   0.042   3.934   1.974  0.1578  0.5044  0.1609
18055TIP3    H175580   0.011   3.856   2.020 -1.6903  1.4332  0.5891
18055TIP3    H275581   0.011   3.923   1.884  1.8015 -0.2399 -0.3550
18056TIP3   OH275582   1.728   5.015  16.587  0.4455  0.4013  0.2639
18056TIP3    H175583   1.745   4.985  16.497 -1.1040  1.4681 -0.4413
18056TIP3    H275584   1.663   4.954  16.621  2.0111 -0.8136  1.1980
18057TIP3   OH275585   3.913   0.194  15.957  0.2324  0.5300  0.4157
18057TIP3    H175586   3.848   0.189  16.028 -0.3912 -1.5115 -0.2493
18057TIP3    H275587   3.861   0.190  15.877  0.9738  2.3020 -0.2083
18058TIP3   OH275588   6.362   3.210   2.958  0.8378 -0.3284 -0.0406
18058TIP3    H175589   6.418   3.150   2.909 -0.6421 -1.0875 -0.8566
18058TIP3    H275590   6.349   3.284   2.899  0.3993 -0.4832 -0.1390
18059TIP3   OH275591   0.748   2.424   3.535 -0.5021  0.2419  0.0337
18059TIP3    H175592   0.776   2.443   3.445 -1.1078 -0.7569 -0.3918
18059TIP3    H275593   0.830   2.420   3.585  0.0344 -1.1183 -0.8794
18060TIP3   OH275594   0.529   3.056   6.172  0.1372 -0.4597  0.0754
18060TIP3    H175595   0.449   3.095   6.138 -0.3501 -1.4016  0.1174
18060TIP3    H275596   0.501   2.974   6.212  1.2407 -1.2840 -0.7648
18061TIP3   OH275597   2.260   0.868   2.206  0.3291  0.3209 -0.3051
18061TIP3    H175598   2.333   0.857   2.267 -0.6169  0.0823  0.8118
18061TIP3    H275599   2.182   0.865   2.261 -0.4786  2.0375 -1.2833
18062TIP3   OH275600   1.152   4.712   3.041 -0.1616  1.0260  0.1393
18062TIP3    H175601   1.212   4.668   3.100 -1.7860 -0.5866  0.6530
18062TIP3    H275602   1.076   4.735   3.095 -1.3767  0.1380 -1.1056
18063TIP3   OH275603   4.323   4.897   6.365 -0.0608  0.0640  0.1603
18063TIP3    H175604   4.270   4.956   6.312 -0.6499  0.6809  1.4178
18063TIP3    H275605   4.402   4.948   6.386  0.0801 -0.1105  0.0647
18064TIP3   OH275606   6.341   2.849   1.820  0.0284  0.7742  0.0608
18064TIP3    H175607   6.418   2.905   1.811  0.7231 -0.3159 -1.1275
18064TIP3    H275608   6.275   2.890   1.764  0.1377  1.0439  0.1278
18065TIP3   OH275609   5.297   0.713  16.696 -0.1722 -0.1593 -0.2230
18065TIP3    H175610   5.390   0.694  16.678 -0.3636 -2.5916  0.8787
18065TIP3    H275611   5.251   0.633  16.667 -1.7366  0.3841  0.6674
18066TIP3   OH275612   5.965   4.302  13.765 -0.2181  0.0232 -0.2841
18066TIP3    H175613   5.908   4.283  13.840 -2.1272  0.5363 -1.5133
18066TIP3    H275614   5.990   4.216  13.731  0.3518 -0.2103  0.6850
18067TIP3   OH275615   6.670   4.225  16.009 -0.0399  0.8068 -0.2676
18067TIP3    H175616   6.673   4.227  16.104 -2.3314 -0.0283 -0.1178
18067TIP3    H275617   6.594   4.279  15.986  0.4460  0.9569 -1.6250
18068TIP3   OH275618   5.067   3.096   5.877 -0.1300 -0.0401  0.0552
18068TIP3    H175619   5.005   3.033   5.840 -2.1884  0.9271  1.6361
18068TIP3    H275620   5.016   3.144   5.943  2.2841  0.9408  1.3324
18069TIP3   OH275621   1.580   3.468  14.109 -0.7785 -0.9924 -0.2145
18069TIP3    H175622   1.568   3.492  14.017  0.8751 -0.8071 -0.4071
18069TIP3    H275623   1.494   3.438  14.137 -1.9236  1.1535 -1.1684
18070TIP3   OH275624   3.182   1.634   0.739  0.1959 -0.4859  0.4160
18070TIP3    H175625   3.264   1.613   0.784 -0.0016 -0.2576  0.8922
18070TIP3    H275626   3.160   1.722   0.770  0.8676  0.3550 -1.3239
18071TIP3   OH275627   4.495   1.686  16.333  0.0726  0.2152 -0.8885
18071TIP3    H175628   4.420   1.741  16.311  0.2234  0.8206  0.0665
18071TIP3    H275629   4.465   1.631  16.405 -0.5417 -2.0357 -2.7616
18072TIP3   OH275630   4.468   2.548  15.198 -0.2224 -0.0088 -0.2150
18072TIP3    H175631   4.408   2.473  15.194 -1.4177  0.9520 -2.2163
18072TIP3    H275632   4.518   2.543  15.117  0.8739  0.4617  0.4078
18073TIP3   OH275633   2.173   0.001  12.314  0.0109  0.2905  0.3742
18073TIP3    H175634   2.234  -0.069  12.338  1.0942  1.4223  1.0343
18073TIP3    H275635   2.187   0.069  12.380 -1.5261  0.8581  0.1689
18074TIP3   OH275636   3.693   4.042  12.166  0.0254  0.5674  0.5729
18074TIP3    H175637   3.650   4.046  12.081  1.2225  1.0990 -0.0431
18074TIP3    H275638   3.786   4.052  12.145  0.2560  1.7840  2.0186
18075TIP3   OH275639   4.844   1.605  11.472  0.0820 -0.6061 -0.5849
18075TIP3    H175640   4.870   1.692  11.503  0.4753 -1.4882  1.8515
18075TIP3    H275641   4.754   1.616  11.441  0.0493  0.6385 -0.1180
18076TIP3   OH275642   6.384   6.474  13.375  0.4075 -0.2660 -0.0395
18076TIP3    H175643   6.292   6.471  13.398  0.0241  1.3507 -1.2000
18076TIP3    H275644   6.417   6.386  13.395 -0.6228 -0.0231  3.2721
18077TIP3   OH275645   4.102   5.483   3.407 -0.4025  0.4978  0.8627
18077TIP3    H175646   4.176   5.538   3.382 -1.0034  1.0119  0.1810
18077TIP3    H275647   4.141   5.415   3.462  1.1356 -1.1691 -2.0225
18078TIP3   OH275648   3.284   4.630  13.073 -0.4065  0.5868  0.0360
18078TIP3    H175649   3.332   4.637  12.990 -0.9522  3.2948 -0.1506
18078TIP3    H275650   3.197   4.599  13.048 -0.4861  1.1388 -0.4149
18079TIP3   OH275651   6.378   5.909  13.584 -0.2339  0.4495  0.3626
18079TIP3    H175652   6.450   5.968  13.604  0.9059 -1.2619  1.5948
18079TIP3    H275653   6.419   5.824  13.570 -2.0165 -0.8046  2.0758
18080TIP3   OH275654   4.693   3.754   5.653  0.1038 -0.3386 -0.1348
18080TIP3    H175655   4.703   3.691   5.582 -0.0389 -2.3553  1.5145
18080TIP3    H275656   4.782   3.784   5.671  0.0828  0.5507 -1.4403
18081TIP3   OH275657   4.725   2.315   1.116 -0.3325 -0.3248 -0.0014
18081TIP3    H175658   4.707   2.231   1.157  1.0447 -0.4124  0.4782
18081TIP3    H275659   4.805   2.301   1.065 -0.4366  0.5298 -0.4263
18082TIP3   OH275660   1.464   4.909   3.162 -0.0060  0.2190  0.3875
18082TIP3    H175661   1.526   4.895   3.091 -1.0482 -0.0415 -0.5095
18082TIP3    H275662   1.413   4.986   3.134 -0.2628  0.2619  0.9618
18083TIP3   OH275663   0.313   2.213  12.589  0.5826  0.0816  0.0368
18083TIP3    H175664   0.325   2.192  12.682  0.2684  0.3265  0.1377
18083TIP3    H275665   0.372   2.286  12.573 -0.7820  1.3462  0.5534
18084TIP3   OH275666   3.097   6.008  12.057  0.4458 -0.0686  0.5913
18084TIP3    H175667   3.094   5.955  12.136 -2.3815  1.3524  1.5838
18084TIP3    H275668   3.100   5.944  11.985  0.3227 -1.4667  1.7834
18085TIP3   OH275669   5.230   3.844   3.228  0.2109  0.0745  0.3071
18085TIP3    H175670   5.169   3.809   3.164 -0.0862  0.8807  0.1398
18085TIP3    H275671   5.229   3.938   3.213 -1.6905  0.6097  3.0580
18086TIP3   OH275672   4.976   0.977  16.866 -0.3247  0.3923 -0.3752
18086TIP3    H175673   4.927   0.895  16.870 -1.9721  1.3193 -0.6125
18086TIP3    H275674   5.066   0.951  16.851 -0.8368 -1.3657 -0.5499
18087TIP3   OH275675   3.984   2.523  13.304 -0.2120 -0.0010 -0.1875
18087TIP3    H175676   3.989   2.428  13.292 -0.1660  0.2961 -3.3960
18087TIP3    H275677   4.070   2.548  13.336  0.1263 -0.9324 -0.3295
18088TIP3   OH275678   1.768   0.297  12.049 -0.4274  0.3244  0.1367
18088TIP3    H175679   1.757   0.383  12.010 -1.2954  0.8040  1.3724
18088TIP3    H275680   1.861   0.290  12.068 -0.0989  0.3629 -1.2878
18089TIP3   OH275681   6.087   5.734   1.200  0.7286 -0.6190 -0.0442
18089TIP3    H175682   6.078   5.689   1.284  1.9609 -0.6342  0.0995
18089TIP3    H275683   6.000   5.770   1.182  0.3918 -0.8213  1.1167
18090TIP3   OH275684   4.143   5.503   5.405  0.4036  0.1011 -0.1669
18090TIP3    H175685   4.156   5.527   5.313  1.1232  0.4937  0.0296
18090TIP3    H275686   4.165   5.582   5.454  0.6611 -0.3025  0.3749
18091TIP3   OH275687   4.247   2.793   1.943 -0.3555 -0.2205  0.4200
18091TIP3    H175688   4.174   2.753   1.897  0.7955 -0.3173 -1.3999
18091TIP3    H275689   4.302   2.720   1.970  0.3307 -0.0219 -0.4287
18092TIP3   OH275690   0.391   5.027   4.426  0.0552  0.4074 -0.3349
18092TIP3    H175691   0.344   4.964   4.480 -0.3409  0.6013 -0.4444
18092TIP3    H275692   0.425   5.091   4.489 -0.0417  0.4030 -0.2777
18093TIP3   OH275693   2.379   3.089   4.259 -0.1114 -0.1665  0.0392
18093TIP3    H175694   2.393   3.014   4.316 -0.5192 -0.0363  0.3143
18093TIP3    H275695   2.411   3.164   4.309  1.0486 -0.2428 -0.5522
18094TIP3   OH275696   2.616   1.042  16.679 -0.1294  0.1466  0.1844
18094TIP3    H175697   2.690   1.006  16.728 -0.5875  0.5189  1.1650
18094TIP3    H275698   2.552   0.970  16.675 -0.8230  0.6450  1.6828
18095TIP3   OH275699   0.693   3.207   4.055  0.3751  0.3733 -1.1549
18095TIP3    H175700   0.610   3.214   4.008  0.4016 -1.7881 -1.6386
18095TIP3    H275701   0.733   3.127   4.021  0.5229 -1.2315  2.3257
18096TIP3   OH275702   6.351   3.482  15.189  0.3622 -0.1859  0.0707
18096TIP3    H175703   6.405   3.506  15.264  0.9453 -1.4755  0.0925
18096TIP3    H275704   6.285   3.551  15.184  0.2717 -0.0828  1.8112
18097TIP3   OH275705   5.932   0.436  16.818 -0.0556  0.3375  0.2741
18097TIP3    H175706   5.894   0.348  16.823 -1.4328  0.9609  1.9430
18097TIP3    H275707   5.860   0.490  16.785  0.6806  0.9141 -0.4110
18098TIP3   OH275708   0.406   6.757   0.433  0.4488  0.4495 -0.2199
18098TIP3    H175709   0.432   6.675   0.475 -0.1422 -0.9017 -2.2964
18098TIP3    H275710   0.352   6.729   0.358  0.3339  2.7403 -1.0731
18099TIP3   OH275711   0.013   3.378  14.930  0.3053  0.3207 -0.1602
18099TIP3    H175712  -0.047   3.425  14.988 -1.9863 -2.3185 -0.2047
18099TIP3    H275713   0.001   3.419  14.844  0.9888  1.8467  0.4363
18100TIP3   OH275714   4.938   3.893   5.658  0.9291 -0.3137 -0.2616
18100TIP3    H175715   5.000   3.944   5.710  0.7056 -0.2053 -0.1023
18100TIP3    H275716   4.971   3.900   5.568  2.0481 -1.5411  0.0137
18101TIP3   OH275717   0.705   0.689   0.817  0.3968  0.4626  0.1158
18101TIP3    H175718   0.773   0.756   0.808  1.5354 -0.8139 -1.4333
18101TIP3    H275719   0.673   0.676   0.728  1.3323 -2.1367  0.0872
18102TIP3   OH275720   1.303   0.768   2.797 -0.0571 -0.1954 -0.0577
18102TIP3    H175721   1.282   0.675   2.792  0.9277 -0.4445  0.2633
18102TIP3    H275722   1.345   0.787   2.713 -1.1876  0.2074 -0.5414
18103TIP3   OH275723   5.542   2.234   3.813  0.4051  0.1528 -0.3297
18103TIP3    H175724   5.520   2.278   3.895 -0.2755  0.6315 -0.7620
18103TIP3    H275725   5.637   2.221   3.818  0.5895  1.4703 -0.0958
18104TIP3   OH275726   6.537   4.494  14.302  0.0468 -0.5245 -0.2176
18104TIP3    H175727   6.561   4.420  14.245  0.5514  0.6991 -1.6832
18104TIP3    H275728   6.617   4.513  14.351  0.1301 -0.5362 -0.3462
18105TIP3   OH275729   4.491   1.427  11.778  0.0094 -0.4390 -0.0712
18105TIP3    H175730   4.472   1.338  11.748 -2.4529  0.3785 -1.1602
18105TIP3    H275731   4.409   1.457  11.818  1.1026  1.0096  1.1841
18106TIP3   OH275732   4.184   2.159  14.778  0.2858  0.1734  0.3540
18106TIP3    H175733   4.152   2.071  14.756 -0.8633  1.0498 -1.7358
18106TIP3    H275734   4.270   2.164  14.735 -0.2878  0.5431 -0.7917
18107TIP3   OH275735   1.195   3.686   3.052 -0.3568 -0.1959  0.5075
18107TIP3    H175736   1.284   3.719   3.047 -0.8726  1.3075  0.7828
18107TIP3    H275737   1.195   3.628   3.128  0.1141  0.7252  1.2272
18108TIP3   OH275738   3.398   0.639  12.728  0.3113  0.1486 -0.5706
18108TIP3    H175739   3.466   0.596  12.780  0.4248 -0.6892 -1.3905
18108TIP3    H275740   3.354   0.697  12.790  0.5459 -0.6952  0.4185
18109TIP3   OH275741   1.733   2.296  15.357 -0.0874  0.1676 -0.1233
18109TIP3    H175742   1.745   2.327  15.268 -1.6261  1.8189  0.1716
18109TIP3    H275743   1.686   2.367  15.401 -0.2065 -0.9844  1.7424
18110TIP3   OH275744   6.397   4.508  11.124 -0.3058  0.1479  0.2941
18110TIP3    H175745   6.487   4.530  11.102 -0.1519 -1.6296 -1.1030
18110TIP3    H275746   6.361   4.472  11.043 -2.5006  1.4366  0.6207
18111TIP3   OH275747   2.888   1.384  11.809  0.1099  0.0471  0.0565
18111TIP3    H175748   2.919   1.376  11.899  0.9802  2.0258 -0.0208
18111TIP3    H275749   2.964   1.365  11.755  0.2351  1.2071 -0.2000
18112TIP3   OH275750   6.301   4.360   2.214 -0.2047  0.1642 -0.3064
18112TIP3    H175751   6.317   4.392   2.125  0.4563  1.5019  0.2642
18112TIP3    H275752   6.372   4.298   2.231 -0.5504 -0.3859 -0.8317
18113TIP3   OH275753   1.368   6.473   6.026 -0.3378 -0.1549  0.3241
18113TIP3    H175754   1.326   6.399   6.069 -1.3300  0.3088  0.1794
18113TIP3    H275755   1.325   6.477   5.940  1.8610 -1.3126 -0.9317
18114TIP3   OH275756   1.946   1.714  15.427  0.4861  0.6443  0.1800
18114TIP3    H175757   1.976   1.728  15.516 -1.1580  1.8020  0.6023
18114TIP3    H275758   2.026   1.716  15.374  1.2638  2.5922  1.3310
18115TIP3   OH275759   0.532   0.717   0.568 -0.2817 -0.6369 -0.0773
18115TIP3    H175760   0.465   0.676   0.512 -0.1617 -0.3824 -0.4115
18115TIP3    H275761   0.487   0.790   0.610 -0.1846 -0.3828 -0.4060
18116TIP3   OH275762   2.230   2.831   1.006 -0.3895 -0.3460 -0.3198
18116TIP3    H175763   2.156   2.887   0.982  0.0718  0.5050  0.1723
18116TIP3    H275764   2.246   2.851   1.098  2.5153  2.0647 -1.1566
18117TIP3   OH275765   2.310   6.604  12.625  0.1448 -0.1010 -0.3448
18117TIP3    H175766   2.296   6.510  12.619 -0.4684  0.0744 -2.0244
18117TIP3    H275767   2.385   6.613  12.684  1.7654 -1.7832 -2.0235
18118TIP3   OH275768   1.161   5.027  16.620  0.6139 -0.3304  0.3654
18118TIP3    H175769   1.074   4.995  16.644  0.9624 -1.3182  0.3670
18118TIP3    H275770   1.151   5.064  16.533  0.0213  0.3478  0.7087
18119TIP3   OH275771   6.526   6.426   4.438  0.0777  0.6154 -0.3569
18119TIP3    H175772   6.581   6.453   4.365  0.2294 -0.9826 -0.8601
18119TIP3    H275773   6.510   6.507   4.487  0.5307  1.5916 -1.7669
18120TIP3   OH275774   5.302   2.157  15.009  0.1115  0.3399 -0.0916
18120TIP3    H175775   5.270   2.235  14.963  1.3616  0.6756 -0.4375
18120TIP3    H275776   5.239   2.089  14.988  0.2862  0.6610 -1.7633
18121TIP3   OH275777   4.368   0.947  15.779 -0.5157 -0.1152 -0.2485
18121TIP3    H175778   4.317   1.024  15.757  1.4079  1.0736 -0.7995
18121TIP3    H275779   4.342   0.925  15.868 -2.1981  0.2186 -0.6292
18122TIP3   OH275780   2.435   6.096   2.524 -0.4673  0.2742  0.1717
18122TIP3    H175781   2.486   6.066   2.449  0.0758  1.0550  0.2196
18122TIP3    H275782   2.454   6.190   2.530 -0.7026  0.2690  1.1337
18123TIP3   OH275783   0.187   5.601   3.184  0.4005 -0.3158 -0.1480
18123TIP3    H175784   0.268   5.652   3.185  0.8373 -0.9322 -1.3104
18123TIP3    H275785   0.216   5.512   3.163 -0.6652 -0.3385 -1.6815
18124TIP3   OH275786   6.563   2.362   5.243  0.3013 -0.1217  0.1884
18124TIP3    H175787   6.601   2.418   5.175 -1.0122 -0.8009 -1.1625
18124TIP3    H275788   6.637   2.340   5.299  1.2682  1.1554 -0.5274
18125TIP3   OH275789   1.989   1.560   2.082  0.4974 -0.3077 -0.2014
18125TIP3    H175790   2.045   1.637   2.091  1.1739 -0.6468 -1.3938
18125TIP3    H275791   1.980   1.546   1.988 -1.1136 -0.6315 -0.0412
18126TIP3   OH275792   4.982   5.022   3.794  0.0007  0.3280  0.3445
18126TIP3    H175793   4.959   5.016   3.701 -0.6880  0.6463  0.4905
18126TIP3    H275794   4.961   5.112   3.818  0.0227  0.1984  0.8494
18127TIP3   OH275795   5.803   3.436  15.615  0.2711 -0.3464  0.3872
18127TIP3    H175796   5.733   3.382  15.652  0.4343 -0.0803  1.0942
18127TIP3    H275797   5.781   3.525  15.641  0.4304 -0.1595 -0.1019
18128TIP3   OH275798   1.454   4.136   1.733  0.1651  0.2717 -0.4037
18128TIP3    H175799   1.473   4.056   1.685  1.4597 -1.0324  2.1025
18128TIP3    H275800   1.523   4.197   1.707  1.0789 -0.5430  0.0666
18129TIP3   OH275801   3.782   1.977  16.592 -0.2379  0.4348  0.5646
18129TIP3    H175802   3.733   2.052  16.557 -2.3698 -1.0135  0.2292
18129TIP3    H275803   3.768   1.981  16.686  0.4769  0.9942  0.6513
18130TIP3   OH275804   6.480   3.081  16.845  0.3031 -0.3159 -0.2076
18130TIP3    H175805   6.556   3.134  16.869  0.0232  0.6021 -1.2746
18130TIP3    H275806   6.514   2.991  16.841  1.1309 -0.0268  0.1439
18131TIP3   OH275807   3.171   0.650  11.274 -0.4812  0.1945  0.4977
18131TIP3    H175808   3.215   0.575  11.233 -1.1257 -0.5835  1.1994
18131TIP3    H275809   3.199   0.725  11.221 -0.3936 -0.6253 -0.6658
18132TIP3   OH275810   2.014   4.407   5.627  0.5338  0.1933  0.0047
18132TIP3    H175811   2.073   4.481   5.637  0.5830  0.3049 -1.1009
18132TIP3    H275812   2.071   4.330   5.632  0.5686  0.2425  0.4509
18133TIP3   OH275813   1.587   6.642  14.484 -0.1343 -0.0727 -0.3454
18133TIP3    H175814   1.561   6.605  14.401  0.0575 -0.4014 -0.2615
18133TIP3    H275815   1.678   6.669  14.471 -0.1738  0.0810 -0.3107
18134TIP3   OH275816   0.765   4.350   2.115  0.1425 -0.0901  0.5628
18134TIP3    H175817   0.823   4.425   2.127 -0.5272  0.3099  1.4475
18134TIP3    H275818   0.701   4.358   2.186 -0.1738 -1.2810  0.4311
18135TIP3   OH275819   1.484   6.087  15.882 -0.0791  0.3030 -0.1772
18135TIP3    H175820   1.549   6.060  15.817  0.0184  0.5472 -0.1811
18135TIP3    H275821   1.532   6.145  15.941 -0.7554  2.0597 -1.2778
18136TIP3   OH275822   1.076   2.058  16.248 -0.9432  0.1061 -0.9831
18136TIP3    H175823   0.988   2.036  16.219 -1.3127 -0.3615  0.4111
18136TIP3    H275824   1.079   2.032  16.340  0.5867  0.2982 -0.9378
18137TIP3   OH275825   4.292   6.079  14.678 -0.4399  0.2821  0.1618
18137TIP3    H175826   4.271   6.073  14.771 -1.9732 -0.8628 -0.2098
18137TIP3    H275827   4.343   6.160  14.669 -0.6026  0.6092  1.9198
18138TIP3   OH275828   3.259   6.604   2.623  0.2133 -0.0164 -0.5439
18138TIP3    H175829   3.295   6.519   2.598  1.3063  0.3413 -0.2323
18138TIP3    H275830   3.181   6.583   2.674  1.0359 -0.8586  0.3969
18139TIP3   OH275831   3.999   3.094   1.204 -0.1453 -0.4668  0.0550
18139TIP3    H175832   3.974   3.032   1.135  0.6552  0.3177 -0.9817
18139TIP3    H275833   3.980   3.180   1.166 -2.1790 -0.0477  1.8391
18140TIP3   OH275834   4.756   5.957   2.859  0.8750  0.4898 -0.0552
18140TIP3    H175835   4.764   6.050   2.883  1.7128  0.2520  0.6364
18140TIP3    H275836   4.696   5.921   2.923 -0.2247  0.7427 -0.9111
18141TIP3   OH275837   5.046   6.325   2.526  0.5191  0.7217  0.0486
18141TIP3    H175838   4.957   6.294   2.539  0.4150  0.8592 -0.3333
18141TIP3    H275839   5.096   6.247   2.503  0.4375  0.6957 -0.0378
18142TIP3   OH275840   4.914   4.478   0.712  0.4238  0.2225  0.1676
18142TIP3    H175841   4.987   4.417   0.727  0.0702 -0.2504 -0.0073
18142TIP3    H275842   4.843   4.444   0.766  0.2495  0.5424  0.1438
18143TIP3   OH275843   6.123   5.411   0.167  0.2526 -0.1850 -0.3032
18143TIP3    H175844   6.111   5.504   0.145 -1.2623  0.4838  2.7952
18143TIP3    H275845   6.086   5.364   0.092  0.3063  1.7060 -1.5853
18144TIP3   OH275846   0.022   2.441   2.857 -0.2729 -0.1354 -0.3395
18144TIP3    H175847   0.089   2.373   2.866  1.5730  1.7969  1.9912
18144TIP3    H275848  -0.061   2.393   2.853  0.8924 -2.5267  1.5525
18145TIP3   OH275849   1.634   3.817  12.595 -0.4350 -0.2406  0.2379
18145TIP3    H175850   1.722   3.820  12.556 -0.6477 -0.8143 -0.3061
18145TIP3    H275851   1.576   3.843  12.523 -0.8809 -1.8015 -0.0090
18146TIP3   OH275852   3.962   1.770  16.571 -0.2981  0.1223 -0.2315
18146TIP3    H175853   3.920   1.710  16.509  1.1905  0.8586 -2.0418
18146TIP3    H275854   3.901   1.844  16.577  0.2240  0.7501 -2.0874
18147TIP3   OH275855   0.593   5.899   2.825  0.1666 -0.0463  0.5784
18147TIP3    H175856   0.652   5.904   2.900  1.2638  0.3247 -0.2868
18147TIP3    H275857   0.650   5.876   2.752 -0.4986  1.8129 -0.5709
18148TIP3   OH275858   4.143   1.762  12.133  0.5661 -0.0247  0.9988
18148TIP3    H175859   4.172   1.739  12.044  0.5290  1.4585  0.5754
18148TIP3    H275860   4.048   1.768  12.126  0.6342  1.0402  0.8884
18149TIP3   OH275861   5.341   5.169   1.938  0.5304 -0.5727  0.2715
18149TIP3    H175862   5.324   5.234   2.006 -1.6026 -1.7558  0.9719
18149TIP3    H275863   5.288   5.198   1.864 -0.8943 -1.7396  0.7823
18150TIP3   OH275864   3.577   6.280   4.586  0.3093  0.1123 -0.0951
18150TIP3    H175865   3.509   6.259   4.650  0.2983 -1.7925 -0.6817
18150TIP3    H275866   3.545   6.359   4.542 -1.1287 -0.2847  0.1919
18151TIP3   OH275867   3.580   3.519  16.158  0.1299 -0.4741 -1.0834
18151TIP3    H175868   3.628   3.477  16.229 -1.1445 -1.8917 -1.0078
18151TIP3    H275869   3.509   3.567  16.201  0.3433  0.0460 -1.3034
18152TIP3   OH275870   0.571   2.617   2.737  0.8876 -0.1344 -0.0359
18152TIP3    H175871   0.624   2.606   2.658 -0.2888 -1.8754 -0.6490
18152TIP3    H275872   0.501   2.552   2.728 -0.8840  1.5006  1.1315
18153TIP3   OH275873   4.767   3.002   5.335 -0.0332  0.2412 -0.1490
18153TIP3    H175874   4.794   2.911   5.319 -0.3351 -0.0497  0.9523
18153TIP3    H275875   4.844   3.042   5.376 -0.7587 -0.2378  1.7798
18154TIP3   OH275876   2.200   3.213   6.213  0.2013  0.5351  0.3700
18154TIP3    H175877   2.271   3.270   6.241 -0.1630  0.6047  1.1905
18154TIP3    H275878   2.120   3.264   6.232 -0.0577  0.7530 -1.1916
18155TIP3   OH275879   2.024   0.479  11.991  0.7034  0.2428 -0.1180
18155TIP3    H175880   2.095   0.510  12.047  3.0802 -1.6707 -1.8221
18155TIP3    H275881   2.011   0.388  12.017 -1.5656  0.6816  0.4899
18156TIP3   OH275882   5.724   4.058   3.243  0.5581 -0.5400 -0.9104
18156TIP3    H175883   5.661   4.051   3.171  1.5644 -0.4332 -1.8225
18156TIP3    H275884   5.791   4.118   3.211  0.7981 -0.1140  0.3072
18157TIP3   OH275885   4.594   3.517  13.652 -0.4200  0.1459 -0.2385
18157TIP3    H175886   4.665   3.555  13.703 -0.4458  1.3646 -1.0669
18157TIP3    H275887   4.514   3.548  13.696 -0.4525  1.7409 -1.3316
18158TIP3   OH275888   0.797   5.747   1.055 -0.1606  0.0217  0.4424
18158TIP3    H175889   0.827   5.835   1.080 -0.7489  0.2349  0.4085
18158TIP3    H275890   0.723   5.763   0.996  1.0378 -0.4688 -1.2756
18159TIP3   OH275891   5.647   0.135  14.102  0.3245  0.2518  0.0928
18159TIP3    H175892   5.667   0.166  14.014 -1.0760 -0.2797 -0.4321
18159TIP3    H275893   5.640   0.215  14.154 -0.4764  0.6676 -0.6397
18160TIP3   OH275894   2.431   5.364   1.731  0.2932  0.2894  0.0663
18160TIP3    H175895   2.369   5.360   1.804  0.9572  0.4899  0.6473
18160TIP3    H275896   2.406   5.290   1.675  1.0696 -1.1756  1.5533
18161TIP3   OH275897   1.824   2.207  11.249  0.3377 -0.0501  0.2925
18161TIP3    H175898   1.854   2.160  11.172  2.2676  0.5147  0.6208
18161TIP3    H275899   1.764   2.273  11.216  0.8521 -0.0566 -0.6824
18162TIP3   OH275900   2.577   0.670   3.206 -0.5548 -0.1397  0.0889
18162TIP3    H175901   2.507   0.608   3.186 -1.2076  1.1840 -2.1513
18162TIP3    H275902   2.553   0.707   3.291 -0.9822 -1.7869  0.7193
18163TIP3   OH275903   0.880   4.667  11.287  0.1597 -0.1873 -0.3804
18163TIP3    H175904   0.853   4.651  11.196  0.7588 -0.1582 -0.5653
18163TIP3    H275905   0.944   4.738  11.281  0.0920 -0.0866  0.0802
18164TIP3   OH275906   1.443   0.978  13.739  0.0068  0.2670 -0.2288
18164TIP3    H175907   1.460   1.011  13.827 -0.5059 -1.5668  0.5981
18164TIP3    H275908   1.360   1.020  13.713 -1.7169 -1.7596  1.6163
18165TIP3   OH275909   4.651   5.537  15.151 -0.2007  0.2390 -0.1608
18165TIP3    H175910   4.587   5.467  15.159 -0.1089  0.2768  1.0020
18165TIP3    H275911   4.632   5.577  15.066 -1.9508  0.4855  0.3123
18166TIP3   OH275912   5.962   5.851  11.069  0.1128 -0.4051 -0.0877
18166TIP3    H175913   6.035   5.798  11.101  1.1871  0.5487 -0.8519
18166TIP3    H275914   5.996   5.893  10.990 -1.2520  0.1239 -0.4229
18167TIP3   OH275915   4.112   6.234   6.654 -0.3922 -0.0518 -0.1240
18167TIP3    H175916   4.080   6.297   6.718 -0.1221 -0.1281  0.0876
18167TIP3    H275917   4.056   6.246   6.578 -0.7351  0.0140  0.1405
18168TIP3   OH275918   2.789   6.164   4.597 -0.1651  0.3729 -0.2422
18168TIP3    H175919   2.872   6.116   4.592 -0.6965 -0.4714 -2.1074
18168TIP3    H275920   2.815   6.255   4.608  0.9194 -0.1066  1.6821
18169TIP3   OH275921   3.814   4.357   1.849 -0.3128  0.3829 -0.0566
18169TIP3    H175922   3.760   4.314   1.916 -0.9410  2.0359  0.5530
18169TIP3    H275923   3.882   4.293   1.828 -1.7534 -1.2852  0.0812
18170TIP3   OH275924   5.768   4.593   3.102 -0.3802 -0.2335  0.2294
18170TIP3    H175925   5.852   4.630   3.130 -1.4607  1.1197  1.8141
18170TIP3    H275926   5.770   4.600   3.007  0.3142  2.0914  0.3444
18171TIP3   OH275927   5.340   0.257   3.524  0.6956  0.4857 -0.0201
18171TIP3    H175928   5.428   0.220   3.520  0.4825 -0.4970  2.4858
18171TIP3    H275929   5.283   0.187   3.492  0.7334  0.7560 -0.6890
18172TIP3   OH275930   5.895   3.595   2.081  0.4739  0.0025  0.5447
18172TIP3    H175931   5.924   3.653   2.010 -0.0160 -0.8896 -0.4239
18172TIP3    H275932   5.800   3.597   2.076  0.4433 -1.6250 -0.1760
18173TIP3   OH275933   5.006   3.154   4.265 -0.2608  0.0732 -0.2070
18173TIP3    H175934   5.043   3.242   4.263 -0.0144 -0.0457 -1.3404
18173TIP3    H275935   4.991   3.136   4.358  3.0489 -0.0863  0.4148
18174TIP3   OH275936   6.024   1.403  11.882 -0.3770 -0.1944  0.3052
18174TIP3    H175937   5.951   1.449  11.842 -0.0946  0.4651  0.5468
18174TIP3    H275938   6.102   1.440  11.842 -0.0050  1.5803  2.5159
18175TIP3   OH275939   0.253   1.061   4.696  0.1714  0.7342  0.0774
18175TIP3    H175940   0.335   1.034   4.738  0.3291  1.0202 -0.0432
18175TIP3    H275941   0.279   1.130   4.635 -0.0237  0.2325 -0.5992
18176TIP3   OH275942   1.456   3.852  12.134  0.1073  0.2509 -0.2754
18176TIP3    H175943   1.451   3.812  12.047  1.2420 -1.2015  0.2793
18176TIP3    H275944   1.549   3.859  12.151 -0.0464 -1.6182  1.7115
18177TIP3   OH275945   0.914   3.845  13.057 -0.4658 -0.2272  0.1807
18177TIP3    H175946   0.889   3.759  13.025  2.8018 -1.3319  0.1866
18177TIP3    H275947   0.987   3.872  13.001  0.4975  1.1928  1.9678
18178TIP3   OH275948   3.114   5.047   3.471  0.0501  0.2816  0.0201
18178TIP3    H175949   3.165   5.105   3.527 -1.8680  1.1610  0.9424
18178TIP3    H275950   3.055   5.105   3.423 -1.9558 -0.8351  1.0023
18179TIP3   OH275951   4.652   2.781   3.329  0.6270  0.1621 -0.0729
18179TIP3    H175952   4.606   2.790   3.245 -1.2452  0.8710  0.9561
18179TIP3    H275953   4.744   2.774   3.306  0.2603  1.4289 -2.1484
18180TIP3   OH275954   2.591   2.049  13.452 -0.1958  0.5270  0.1934
18180TIP3    H175955   2.686   2.042  13.439 -0.2261 -0.3266  0.3485
18180TIP3    H275956   2.564   1.960  13.476 -1.2252  0.4582 -1.1271
18181TIP3   OH275957   2.904   5.630  14.663 -0.0473 -0.2910  0.4842
18181TIP3    H175958   2.982   5.658  14.711  0.1927 -1.9038  1.0873
18181TIP3    H275959   2.850   5.585  14.728 -1.1079  0.0733 -0.1143
18182TIP3   OH275960   2.761   2.202  12.934 -0.1768  0.1916  0.5539
18182TIP3    H175961   2.781   2.116  12.971 -1.0877 -0.0068  0.5962
18182TIP3    H275962   2.792   2.196  12.844 -0.3059 -0.2098  0.5331
18183TIP3   OH275963   1.000   4.139   2.939 -0.1544 -0.2471 -0.2289
18183TIP3    H175964   0.985   4.048   2.963  0.9912 -0.2016  0.8087
18183TIP3    H275965   0.914   4.174   2.918 -0.6370 -1.4977 -0.3727
18184TIP3   OH275966   6.059   2.189   1.397  0.4509  0.5763  0.0270
18184TIP3    H175967   6.012   2.221   1.320 -1.1844 -0.9493  0.3391
18184TIP3    H275968   6.128   2.255   1.412 -1.0275  2.4477 -0.9769
18185TIP3   OH275969   4.437   5.170  11.731  0.4180 -0.3802 -0.8897
18185TIP3    H175970   4.410   5.241  11.672 -0.8962 -0.9186 -0.9754
18185TIP3    H275971   4.372   5.101  11.716  2.6185 -2.3360 -2.1182
18186TIP3   OH275972   0.044   6.562  16.134  0.7719  0.2815 -0.0326
18186TIP3    H175973  -0.010   6.486  16.113 -0.5946  1.0901  0.4085
18186TIP3    H275974   0.125   6.549  16.085  0.1482 -0.9408 -0.7770
18187TIP3   OH275975   1.023   6.052   2.338 -0.1376  0.1477 -0.5168
18187TIP3    H175976   1.089   6.119   2.357  0.0867 -0.8083  2.6319
18187TIP3    H275977   0.942   6.102   2.324  0.5112  1.1696 -0.7370
18188TIP3   OH275978   1.295   4.205   5.484 -0.3417 -0.3443 -0.3349
18188TIP3    H175979   1.306   4.145   5.558  1.2923  0.5741  0.2139
18188TIP3    H275980   1.200   4.208   5.469 -0.8519  0.3549  2.5128
18189TIP3   OH275981   2.654   0.813   0.293 -0.7345  0.6691  0.1519
18189TIP3    H175982   2.729   0.819   0.234 -0.3731  2.2271  0.7144
18189TIP3    H275983   2.685   0.758   0.365 -0.4091  0.6282 -0.0168
18190TIP3   OH275984   4.674   5.896  13.274  0.5933  0.3369 -0.0483
18190TIP3    H175985   4.651   5.969  13.216 -0.7102  0.1784  0.2309
18190TIP3    H275986   4.734   5.842  13.222  1.1545  1.3162 -0.4529
18191TIP3   OH275987   0.533   6.113  12.035 -0.3443 -0.2987 -0.1968
18191TIP3    H175988   0.504   6.153  11.953  1.4389 -1.1088 -1.2755
18191TIP3    H275989   0.608   6.059  12.011 -0.6370 -1.6959  1.7517
18192TIP3   OH275990   3.555   2.242   0.495 -0.1413  0.0850  0.4363
18192TIP3    H175991   3.517   2.201   0.417 -0.6084  0.3656  0.5142
18192TIP3    H275992   3.519   2.331   0.495  0.0571  0.1671  0.8377
18193TIP3   OH275993   1.087   3.305  15.355  0.5820 -0.0243  0.2007
18193TIP3    H175994   1.142   3.228  15.368 -0.6688 -0.8761  0.6529
18193TIP3    H275995   1.112   3.365  15.425  1.8795  0.1860 -0.4231
18194TIP3   OH275996   5.075   5.408  14.972  0.6980 -1.0367  0.6984
18194TIP3    H175997   4.988   5.393  14.936  1.3086  2.3294 -2.9333
18194TIP3    H275998   5.132   5.351  14.920  0.8996 -1.7690  1.6993
18195TIP3   OH275999   4.076   3.999   3.015 -0.6420  0.5456  0.0733
18195TIP3    H176000   3.995   3.952   3.033 -0.3610  0.5578  1.4573
18195TIP3    H276001   4.055   4.056   2.941 -2.1519  1.1601  0.9351
18196TIP3   OH276002   3.796   6.212   3.029  0.9209  0.2778  0.6029
18196TIP3    H176003   3.706   6.185   3.049  0.4105  1.2901 -0.2319
18196TIP3    H276004   3.843   6.130   3.016 -0.4699 -0.2826 -1.4256
18197TIP3   OH276005   2.624   4.705   4.234 -0.1396  0.5838  0.1578
18197TIP3    H176006   2.537   4.734   4.261 -0.8320 -1.8096  0.7519
18197TIP3    H276007   2.610   4.618   4.198  1.7884  0.8866 -1.4781
18198TIP3   OH276008   1.532   6.554   2.971  0.6226  0.0227  0.3414
18198TIP3    H176009   1.486   6.554   3.055  2.0164  0.5793  1.1436
18198TIP3    H276010   1.563   6.464   2.961 -0.7181 -0.3904 -0.2731
18199TIP3   OH276011   6.766   2.071   5.344 -0.3509 -0.2451  0.3554
18199TIP3    H176012   6.820   2.148   5.364 -0.1105 -0.6582  1.3189
18199TIP3    H276013   6.690   2.081   5.400 -1.3978  0.4093 -1.0938
18200TIP3   OH276014   1.456   1.178   1.682  0.5361 -0.4567 -0.0025
18200TIP3    H176015   1.525   1.116   1.704  0.7013 -0.6029 -0.8916
18200TIP3    H276016   1.457   1.242   1.753  0.9318 -0.9970  0.4870
18201TIP3   OH276017   6.570   5.672   3.664  0.5007 -0.0517  0.6189
18201TIP3    H176018   6.565   5.705   3.753  0.4988 -0.1616  0.6591
18201TIP3    H276019   6.495   5.712   3.619  1.1213  0.8715  0.3848
18202TIP3   OH276020   3.758   5.664  12.720 -0.4327  0.0750  0.1958
18202TIP3    H176021   3.699   5.655  12.645  0.8204 -2.8601 -0.6097
18202TIP3    H276022   3.701   5.660  12.796 -1.4237 -1.4688 -0.5809
18203TIP3   OH276023   6.538   6.681  10.640 -0.4677  0.4976 -0.1359
18203TIP3    H176024   6.619   6.691  10.691 -0.1120 -0.6478 -0.4483
18203TIP3    H276025   6.568   6.677  10.549 -0.8228 -0.4116 -0.2208
18204TIP3   OH276026   1.578   4.405  12.059 -0.0927  0.2311 -0.6649
18204TIP3    H176027   1.622   4.474  12.108 -0.0048  0.8550 -1.5881
18204TIP3    H276028   1.522   4.362  12.123  1.6883 -0.4562  0.5012
18205TIP3   OH276029   2.964   5.403  10.985 -0.3631 -0.2728 -0.1241
18205TIP3    H176030   2.943   5.312  10.962  0.1907 -0.8693  1.5678
18205TIP3    H276031   3.051   5.418  10.947 -0.1132 -0.7260  0.2572
18206TIP3   OH276032   3.634   4.129   2.899 -0.0970  0.2517  0.0591
18206TIP3    H176033   3.642   4.192   2.970 -0.2507  1.8220 -1.2734
18206TIP3    H276034   3.618   4.045   2.943 -1.1795  1.3374  1.8350
18207TIP3   OH276035   1.112   2.783   1.517  0.2818  0.2063 -0.0842
18207TIP3    H176036   1.056   2.827   1.581 -1.8037 -0.8048 -1.1060
18207TIP3    H276037   1.080   2.692   1.516  2.1231 -0.4781 -0.5681
18208TIP3   OH276038   1.332   2.456   3.596  0.1287 -0.0371 -0.5133
18208TIP3    H176039   1.330   2.461   3.692 -0.2538 -0.0802 -0.5167
18208TIP3    H276040   1.416   2.496   3.572 -0.5003  1.5222 -0.2543
18209TIP3   OH276041   3.831   1.321  13.130  0.3032 -0.2752 -0.1487
18209TIP3    H176042   3.761   1.362  13.182  1.0586  0.6660  0.1513
18209TIP3    H276043   3.842   1.234  13.170  0.3805  0.1639  0.8103
18210TIP3   OH276044   0.501   2.561  11.607  0.6951 -0.3406 -0.2868
18210TIP3    H176045   0.407   2.546  11.608  0.8696 -1.7735 -1.6081
18210TIP3    H276046   0.533   2.520  11.688  0.4965 -2.6875 -1.3058
18211TIP3   OH276047   5.748   5.353  10.636 -0.0407 -0.4820  0.0411
18211TIP3    H176048   5.767   5.266  10.602  0.1958  0.2780 -1.8912
18211TIP3    H276049   5.794   5.356  10.720 -0.9056 -2.5524  0.6525
18212TIP3   OH276050   1.898   3.635  10.615 -0.3099 -0.3755 -0.3654
18212TIP3    H176051   1.928   3.726  10.622  1.4307 -0.9902  1.1120
18212TIP3    H276052   1.810   3.635  10.651 -0.9481  0.9681 -1.8289
18213TIP3   OH276053   4.308   4.381  15.294 -0.5944 -0.0900  0.0480
18213TIP3    H176054   4.342   4.304  15.249 -0.2496 -0.1376  0.3900
18213TIP3    H276055   4.385   4.429  15.322 -0.8052 -0.1193  0.6911
18214TIP3   OH276056   2.341   5.789   3.701  0.0912 -0.5508 -0.3867
18214TIP3    H176057   2.349   5.850   3.774  3.3386 -1.0621 -0.1460
18214TIP3    H276058   2.318   5.843   3.626 -0.9074  0.3444  0.5402
18215TIP3   OH276059   1.160   3.426   4.522  0.2953  0.0974 -0.0476
18215TIP3    H176060   1.064   3.425   4.512  0.3583  0.2001 -0.7327
18215TIP3    H276061   1.184   3.518   4.513  0.3873  0.1840  0.9620
18216TIP3   OH276062   0.458   3.901   3.922  0.5857 -0.4844  0.3773
18216TIP3    H176063   0.532   3.843   3.939  0.4298 -0.6043  0.6450
18216TIP3    H276064   0.415   3.862   3.846  2.1633  0.8905 -1.3356
18217TIP3   OH276065   6.225   5.773  11.119 -0.0675  0.3747 -0.4984
18217TIP3    H176066   6.274   5.749  11.041 -1.2683 -1.3678 -0.7727
18217TIP3    H276067   6.165   5.700  11.133 -1.3300  1.6048  0.8493
18218TIP3   OH276068   4.053   6.292   1.469  0.3568 -0.0829  0.1108
18218TIP3    H176069   4.134   6.314   1.423 -0.5941  2.2012 -0.6013
18218TIP3    H276070   4.019   6.376   1.499 -0.7225 -1.1962  2.2518
18219TIP3   OH276071   4.651   0.243   4.004  0.3109  0.1880  0.3338
18219TIP3    H176072   4.733   0.282   4.034  0.0797 -1.2316  3.2412
18219TIP3    H276073   4.675   0.156   3.975  0.2020  0.8269 -1.7937
18220TIP3   OH276074   5.031   5.374  15.693  0.1059 -0.0304  0.0629
18220TIP3    H176075   5.105   5.330  15.651 -0.1100 -0.2914 -0.0435
18220TIP3    H276076   5.015   5.323  15.773 -0.0104 -0.0197  0.0460
18221TIP3   OH276077   2.936   3.375  16.226 -0.0426 -0.1195 -0.0892
18221TIP3    H176078   2.899   3.360  16.314 -1.0345 -0.5999 -0.5653
18221TIP3    H276079   2.968   3.289  16.199 -0.9019 -0.2603 -0.6987
18222TIP3   OH276080   2.135   2.449   0.897  0.0964  0.2242  0.0516
18222TIP3    H176081   2.202   2.508   0.932 -1.1127  1.1280  0.9358
18222TIP3    H276082   2.067   2.447   0.965  0.3510 -2.6922  0.3399
18223TIP3   OH276083   6.713   3.989  16.835 -0.1458  0.1063  0.5902
18223TIP3    H176084   6.664   3.940  16.901 -3.2295  1.8712 -0.1652
18223TIP3    H276085   6.707   4.080  16.864  0.6217  0.6296 -0.8112
18224TIP3   OH276086   5.816   1.803   1.862 -0.1390 -0.2621  0.5837
18224TIP3    H176087   5.894   1.818   1.915  1.8069 -1.4140 -1.7436
18224TIP3    H276088   5.815   1.876   1.800 -0.0141 -1.0570 -0.3676
18225TIP3   OH276089   2.660   5.571  11.410  0.0662  0.4795 -0.2667
18225TIP3    H176090   2.716   5.518  11.353  0.0779  0.0012  0.1825
18225TIP3    H276091   2.591   5.510  11.439  0.2519  0.6283  0.4932
18226TIP3   OH276092   5.479   0.780   4.857  0.3357 -0.4513 -0.0884
18226TIP3    H176093   5.447   0.709   4.914 -0.4152 -0.1253 -0.0898
18226TIP3    H276094   5.400   0.831   4.836  0.8748  0.4135 -0.0503
18227TIP3   OH276095   3.630   3.681   2.085 -0.1837 -0.3440 -0.7871
18227TIP3    H176096   3.697   3.691   2.016  0.5934  0.4972  0.0580
18227TIP3    H276097   3.607   3.588   2.082  0.7058 -0.5654 -1.3970
18228TIP3   OH276098   1.212   2.674  16.182  0.0131 -0.4709  0.1586
18228TIP3    H176099   1.155   2.744  16.151  1.2793  1.6665  2.3350
18228TIP3    H276100   1.294   2.686  16.135  1.0086  1.0574  2.1530
18229TIP3   OH276101   4.267   0.836   5.172  0.2594  0.0777  0.3843
18229TIP3    H176102   4.174   0.847   5.191  0.3376 -0.0097  0.8388
18229TIP3    H276103   4.299   0.923   5.150 -0.3563 -0.1884 -1.8036
18230TIP3   OH276104   0.367   3.093  14.968  0.8262 -0.0708 -0.2126
18230TIP3    H176105   0.283   3.109  14.924  0.2819 -1.8384  0.0833
18230TIP3    H276106   0.433   3.113  14.902  0.0596 -1.4987 -1.5040
18231TIP3   OH276107   0.396   1.107   0.489  0.2651 -0.0341  0.1377
18231TIP3    H176108   0.346   1.181   0.521  0.1279 -0.7483  1.7167
18231TIP3    H276109   0.484   1.142   0.475  0.6258  0.1424  2.4235
18232TIP3   OH276110   2.970   2.438  13.143  0.5477  0.0279 -0.3961
18232TIP3    H176111   3.052   2.394  13.121  1.3439  0.7231  1.0464
18232TIP3    H276112   2.932   2.384  13.213  0.8192  0.8182  0.3827
18233TIP3   OH276113   1.899   2.021   3.560 -0.0279  0.2113 -0.0173
18233TIP3    H176114   1.852   2.072   3.626 -0.9523  1.8485 -1.8506
18233TIP3    H276115   1.941   2.086   3.504  1.9982 -1.1523 -0.2139
18234TIP3   OH276116   1.228   3.831  14.494  0.2097 -0.3222 -0.4520
18234TIP3    H176117   1.257   3.886  14.567 -1.1120  0.2279 -0.3150
18234TIP3    H276118   1.193   3.752  14.535 -0.9162  0.1643 -0.4457
18235TIP3   OH276119   2.731   2.037   2.951 -0.2563  0.1128 -0.2494
18235TIP3    H176120   2.743   1.942   2.963  1.1608  0.2294 -0.6283
18235TIP3    H276121   2.810   2.066   2.905 -0.5629  1.5286  0.0749
18236TIP3   OH276122   6.124   6.671   3.364 -0.0233  0.0236 -0.1476
18236TIP3    H176123   6.094   6.660   3.274  0.6530 -0.9975 -0.2604
18236TIP3    H276124   6.220   6.670   3.358  0.1154 -3.4085  0.9219
18237TIP3   OH276125   3.613   2.003  15.175  0.6555 -0.5494  0.1797
18237TIP3    H176126   3.594   2.043  15.260  1.8693 -0.1732  0.3002
18237TIP3    H276127   3.630   2.077  15.117  0.6605 -0.8227 -0.1704
18238TIP3   OH276128   6.761   2.725   3.087  0.3393  0.1723  0.3602
18238TIP3    H176129   6.835   2.666   3.100  0.3652  0.1586  0.1594
18238TIP3    H276130   6.687   2.682   3.131  0.6026  0.5142  1.1531
18239TIP3   OH276131   6.686   0.747   0.879 -0.2279  0.3528 -0.2974
18239TIP3    H176132   6.755   0.709   0.934  0.0288  1.4579  0.1784
18239TIP3    H276133   6.712   0.726   0.790 -0.1179 -0.6053 -0.0585
18240TIP3   OH276134   6.758   4.798   6.036  0.1606 -0.5733 -0.5483
18240TIP3    H176135   6.815   4.721   6.035  0.9090 -0.1226  1.4165
18240TIP3    H276136   6.817   4.872   6.025 -0.4431 -0.2225 -1.5338
18241TIP3   OH276137   4.177   4.432   1.213  0.0432  0.0293  0.1145
18241TIP3    H176138   4.159   4.373   1.139 -0.8732  1.2314 -0.6529
18241TIP3    H276139   4.254   4.482   1.186 -0.7037  0.9561 -0.3589
18242TIP3   OH276140   1.322   6.510  14.928  0.0505  0.8374  0.3036
18242TIP3    H176141   1.370   6.588  14.900  1.2568  0.0116 -0.0018
18242TIP3    H276142   1.279   6.479  14.848  0.1344  0.7970  0.2740
18243TIP3   OH276143   2.013   6.611   0.250 -0.1096 -0.2719  0.2441
18243TIP3    H176144   2.073   6.619   0.176 -0.0582  0.8849  0.3969
18243TIP3    H276145   2.006   6.700   0.285  0.4837 -0.9072  2.1105
18244TIP3   OH276146   1.310   0.920   3.469 -0.1100  0.6438  0.1477
18244TIP3    H176147   1.399   0.908   3.502  1.1376 -1.8354 -3.5056
18244TIP3    H276148   1.319   0.981   3.395 -1.8631  1.8719  0.8510
18245TIP3   OH276149   1.447   0.535   5.550 -0.4057 -0.2703  0.0372
18245TIP3    H176150   1.456   0.513   5.458  1.1221  0.8189 -0.1058
18245TIP3    H276151   1.394   0.465   5.587 -0.4815 -1.0620 -1.5290
18246TIP3   OH276152   2.028   0.225  12.115  0.7432  0.0352  0.3678
18246TIP3    H176153   2.112   0.201  12.153  0.4622 -0.4016  0.7231
18246TIP3    H276154   2.020   0.169  12.038 -0.6358 -2.3100  2.0617
18247TIP3   OH276155   4.820   2.773   0.061  0.4842 -0.0708 -0.6192
18247TIP3    H176156   4.913   2.763   0.085  0.3705  0.9593  0.3480
18247TIP3    H276157   4.804   2.704  -0.003  2.1131  0.1880 -1.3489
18248TIP3   OH276158   0.768   2.599  15.710 -0.0616 -0.6119  0.1795
18248TIP3    H176159   0.821   2.636  15.640 -0.0045 -1.0892 -0.0359
18248TIP3    H276160   0.831   2.558  15.769 -0.2116 -1.7806 -0.4326
18249TIP3   OH276161   2.539   4.527  13.811 -0.2740 -0.2509 -0.4155
18249TIP3    H176162   2.529   4.434  13.790  0.7942 -0.6525  0.6832
18249TIP3    H276163   2.477   4.541  13.884 -1.4041  0.2549 -1.4386
18250TIP3   OH276164   1.498   1.155  12.138  0.0862 -0.2616  0.2287
18250TIP3    H176165   1.527   1.094  12.070  0.1622  1.7270 -1.6260
18250TIP3    H276166   1.566   1.150  12.205 -0.4556 -2.9674  0.7051
18251TIP3   OH276167   5.836   6.580   5.713  0.1763 -0.4620 -0.3085
18251TIP3    H176168   5.796   6.560   5.797  0.3800  1.7199  0.3844
18251TIP3    H276169   5.791   6.659   5.683  0.3035 -1.0344 -2.1312
18252TIP3   OH276170   2.556   0.893  12.558  0.3725 -0.8374  0.6017
18252TIP3    H176171   2.537   0.817  12.502 -0.3894 -1.0184  1.0871
18252TIP3    H276172   2.499   0.962  12.524 -0.6053 -1.1457  1.5578
18253TIP3   OH276173   0.757   3.065  15.489  0.3289 -0.3739  0.2303
18253TIP3    H176174   0.793   3.054  15.401  1.8636 -1.6532  0.9683
18253TIP3    H276175   0.830   3.103  15.540  0.2779 -1.8687  1.4873
18254TIP3   OH276176   2.032   5.765  16.024 -0.4128  0.3691  0.0556
18254TIP3    H176177   2.109   5.721  16.059 -1.0833 -0.1413  0.9154
18254TIP3    H276178   2.066   5.848  15.989  0.4025  0.5154  1.1476
18255TIP3   OH276179   1.688   4.626   3.176  0.1700  0.2333  0.0649
18255TIP3    H176180   1.734   4.710   3.172  1.4279 -0.4659 -1.3001
18255TIP3    H276181   1.697   4.590   3.087  0.7687 -1.9059  0.9384
18256TIP3   OH276182   5.570   1.033  14.432  0.7919  0.0014  0.4426
18256TIP3    H176183   5.476   1.025  14.417  1.0056 -0.9862 -0.4427
18256TIP3    H276184   5.586   0.981  14.511  0.4340  1.1743  1.3290
18257TIP3   OH276185   0.427   4.168   3.867 -0.7061  0.0504 -0.1992
18257TIP3    H176186   0.437   4.074   3.854  1.6596  0.1217  0.6119
18257TIP3    H276187   0.422   4.179   3.962  1.0040  0.8350 -0.1594
18258TIP3   OH276188   2.711   5.194   5.683  0.6036  0.3448  0.3726
18258TIP3    H176189   2.748   5.231   5.763  0.1742 -2.2118  1.8558
18258TIP3    H276190   2.621   5.226   5.681  0.5763  0.3046  0.9815
18259TIP3   OH276191   1.947   6.251  15.868 -1.0286  0.1635  0.2976
18259TIP3    H176192   2.011   6.312  15.830 -1.3783  1.6265  1.9298
18259TIP3    H276193   1.997   6.170  15.881  1.1017  1.7139  2.9917
18260TIP3   OH276194   3.907   5.832   5.177 -0.2760  0.0117  0.3610
18260TIP3    H176195   3.991   5.828   5.223 -0.5685 -2.6876  0.7980
18260TIP3    H276196   3.915   5.768   5.106 -1.6681  0.3686 -0.1545
18261TIP3   OH276197   5.863   5.426  15.559 -0.2383  0.1974 -0.6271
18261TIP3    H176198   5.825   5.383  15.636 -1.5375  0.7284 -0.9479
18261TIP3    H276199   5.796   5.488  15.531  0.6586  0.7722 -1.5639
18262TIP3   OH276200   5.944   1.723  15.051 -0.4616  0.5327  0.3078
18262TIP3    H176201   5.930   1.812  15.083 -1.2631  0.3998  0.3535
18262TIP3    H276202   5.935   1.730  14.955  1.1066  0.7810  0.1530
18263TIP3   OH276203   4.199   4.836  14.699  0.1908  0.0270  0.4135
18263TIP3    H176204   4.230   4.823  14.610 -0.3062  1.0280  0.0790
18263TIP3    H276205   4.270   4.803  14.754  0.3038 -1.0307 -0.3401
18264TIP3   OH276206   5.107   0.100  13.046 -0.3458  0.1011  0.3772
18264TIP3    H176207   5.068   0.016  13.025 -0.3295  0.0533  0.5389
18264TIP3    H276208   5.129   0.094  13.139  2.0137 -0.6683 -0.1646
18265TIP3   OH276209   5.538   3.121   2.180  0.2636 -0.0683 -0.1592
18265TIP3    H176210   5.467   3.110   2.116 -0.1098  0.7336  0.1085
18265TIP3    H276211   5.514   3.199   2.230  1.6421  0.5937 -0.4700
18266TIP3   OH276212   0.304   4.682  16.562 -0.6501 -0.1947 -0.2394
18266TIP3    H176213   0.217   4.645  16.548 -0.9009  0.0017  0.7298
18266TIP3    H276214   0.299   4.724  16.648  0.6471 -0.9000  0.2116
18267TIP3   OH276215   0.485   1.396  14.730 -0.8109 -0.0132  0.0568
18267TIP3    H176216   0.548   1.408  14.658 -0.9079 -0.5036 -0.1120
18267TIP3    H276217   0.503   1.469  14.789  0.9599 -0.9766  0.7776
18268TIP3   OH276218   0.344   2.258  16.195  0.1743  0.1608  0.3940
18268TIP3    H176219   0.367   2.232  16.106  1.0364 -0.3207  0.7483
18268TIP3    H276220   0.381   2.346  16.204  2.1518 -0.6857  1.0275
18269TIP3   OH276221   2.111   1.138  14.365 -0.5333 -0.2747  0.0549
18269TIP3    H176222   2.106   1.170  14.275 -1.5669 -3.7209 -1.2800
18269TIP3    H276223   2.025   1.158  14.402 -0.2163  0.8637  0.2198
18270TIP3   OH276224   6.520   3.968   4.892 -0.6000 -0.1126  0.1213
18270TIP3    H176225   6.456   4.004   4.954  0.4682 -0.4848  1.5066
18270TIP3    H276226   6.488   3.993   4.806 -1.5824  1.3494  0.8796
18271TIP3   OH276227   5.424   5.612  16.897  0.0296 -0.9315  0.1593
18271TIP3    H176228   5.485   5.677  16.862 -2.2553  0.0855 -2.3358
18271TIP3    H276229   5.457   5.528  16.865 -0.3226 -0.2976 -2.0521
18272TIP3   OH276230   1.776   2.159   6.343  0.3386  0.0343  0.1232
18272TIP3    H176231   1.809   2.132   6.429 -0.4006 -0.0509  0.3882
18272TIP3    H276232   1.818   2.243   6.327  0.8343 -0.1648  0.3617
18273TIP3   OH276233   6.012   1.612   1.145  0.5526 -0.1754 -0.2483
18273TIP3    H176234   6.098   1.637   1.178  0.3682  1.4768 -0.9275
18273TIP3    H276235   5.959   1.601   1.224  0.8604  0.8655  0.1208
18274TIP3   OH276236   2.379   2.117   4.639  0.2899  0.0059 -0.6320
18274TIP3    H176237   2.329   2.194   4.611 -2.4281 -1.8620 -1.2551
18274TIP3    H276238   2.321   2.043   4.622  2.1121 -2.0712  1.5228
18275TIP3   OH276239   2.553   2.439  13.251 -0.1857  0.2414 -0.4983
18275TIP3    H176240   2.495   2.390  13.192 -1.1407 -0.3702  0.9122
18275TIP3    H276241   2.629   2.381  13.263 -0.3281  0.0461 -0.5331
18276TIP3   OH276242   6.712   2.281  13.866 -0.0265  0.0020 -0.0803
18276TIP3    H176243   6.624   2.253  13.889  0.0958  0.0860  0.5132
18276TIP3    H276244   6.749   2.208  13.817  0.3171 -0.9350  1.5115
18277TIP3   OH276245   1.091   4.553   4.798  0.4813 -0.2839 -0.1627
18277TIP3    H176246   1.013   4.539   4.744  0.3249  0.6290 -0.2056
18277TIP3    H276247   1.063   4.537   4.887 -0.0761  1.1034 -0.0587
18278TIP3   OH276248   6.250   2.068   4.116 -0.1391 -0.4049  0.0410
18278TIP3    H176249   6.203   1.985   4.113 -2.1138  0.6972 -2.5998
18278TIP3    H276250   6.340   2.046   4.090 -0.9786 -1.5634 -2.0416
18279TIP3   OH276251   5.166   1.507   0.472 -0.1803 -0.1402  0.1649
18279TIP3    H176252   5.145   1.552   0.553 -1.1639  0.4531 -0.4052
18279TIP3    H276253   5.259   1.486   0.480 -0.2305  0.0214  1.3769
18280TIP3   OH276254   1.941   6.019   0.410 -0.2875  0.5358  0.1413
18280TIP3    H176255   1.926   5.933   0.450 -0.6306  0.3370 -0.4060
18280TIP3    H276256   1.918   6.081   0.479  0.7453  0.1907  0.8180
18281TIP3   OH276257   4.556   2.925   4.558  0.4830  0.5491 -0.0065
18281TIP3    H176258   4.529   2.886   4.475  0.4412  0.3153  0.1168
18281TIP3    H276259   4.474   2.954   4.598  0.5547  1.1938 -0.3124
18282TIP3   OH276260   5.147   3.704   1.391  0.3146  0.0057 -1.0540
18282TIP3    H176261   5.179   3.620   1.425 -0.3917 -0.4394 -1.4869
18282TIP3    H276262   5.198   3.718   1.311  1.5526  0.7671 -0.1759
18283TIP3   OH276263   1.203   5.454   2.123  0.1064 -0.6360  0.5334
18283TIP3    H176264   1.202   5.499   2.208 -0.5270  0.1929  0.1070
18283TIP3    H276265   1.189   5.525   2.059  0.3424 -1.2801 -0.2465
18284TIP3   OH276266   3.499   3.860   3.626 -0.1774  0.4224  0.4103
18284TIP3    H176267   3.426   3.822   3.674 -1.4354  2.6099  0.3738
18284TIP3    H276268   3.463   3.883   3.541  1.4919 -1.5021 -0.9149
18285TIP3   OH276269   0.500   5.177   2.859 -0.0528  0.4155  0.6406
18285TIP3    H176270   0.552   5.253   2.832  1.2921  0.2141  2.5044
18285TIP3    H276271   0.468   5.140   2.777  2.0720  1.0267 -0.5342
18286TIP3   OH276272   0.500   6.392  11.933  0.0550  0.5820  0.2633
18286TIP3    H176273   0.565   6.449  11.893  0.8211  0.5453  1.3891
18286TIP3    H276274   0.492   6.425  12.023 -2.0339  1.0364 -0.0580
18287TIP3   OH276275   4.340   2.006  16.298  0.3074  0.7644  0.2531
18287TIP3    H176276   4.311   2.076  16.239 -0.7551 -3.1289 -4.4516
18287TIP3    H276277   4.420   1.972  16.258  1.1343 -0.4687  2.7034
18288TIP3   OH276278   4.306   3.771   5.130  0.0402 -0.1073 -0.3530
18288TIP3    H176279   4.352   3.816   5.059 -1.7398  1.1282 -0.7611
18288TIP3    H276280   4.283   3.686   5.093  1.0188 -0.3356 -0.4875
18289TIP3   OH276281   5.166   6.563   1.240  0.2578 -0.2925  0.0253
18289TIP3    H176282   5.155   6.489   1.300 -0.0850 -0.5791 -0.3814
18289TIP3    H276283   5.189   6.523   1.157 -0.6629 -0.0022 -0.3847
18290TIP3   OH276284   4.698   6.158   5.148  0.1546  0.1900 -0.3976
18290TIP3    H176285   4.704   6.164   5.244  1.0145  1.8046 -0.5143
18290TIP3    H276286   4.777   6.111   5.123  0.5751  0.8734 -0.3810
18291TIP3   OH276287   0.872   2.810   3.556  0.2319  0.0213  0.3173
18291TIP3    H176288   0.964   2.795   3.537 -0.3525 -1.5927 -1.5836
18291TIP3    H276289   0.827   2.793   3.473 -2.0199 -2.0120  1.8113
18292TIP3   OH276290   4.571   6.627   5.564 -0.0250 -0.2849  0.5240
18292TIP3    H176291   4.546   6.696   5.625  0.4937  0.0426  0.3771
18292TIP3    H276292   4.627   6.569   5.616 -0.0001 -0.2846  0.4974
18293TIP3   OH276293   6.748   6.699  13.729 -0.4553 -0.6060 -0.0274
18293TIP3    H176294   6.681   6.641  13.691  0.4158 -1.0877 -0.8532
18293TIP3    H276295   6.768   6.660  13.814 -1.9250  0.0970  0.6766
18294TIP3   OH276296   1.437   2.383  13.916 -0.3097 -0.0236  0.0277
18294TIP3    H176297   1.367   2.339  13.963 -2.0404  0.5164 -1.9039
18294TIP3    H276298   1.424   2.358  13.824  2.7457 -0.8264 -0.3218
18295TIP3   OH276299   1.349   2.487   2.733  0.2312 -0.2228 -0.2090
18295TIP3    H176300   1.391   2.415   2.687  1.5503 -0.6213  1.5324
18295TIP3    H276301   1.264   2.452   2.760  1.2329 -1.5430  1.4700
18296TIP3   OH276302   6.772   1.767   3.131 -0.5291  0.5883 -0.1744
18296TIP3    H176303   6.839   1.698   3.125 -1.8722 -0.7285 -0.5508
18296TIP3    H276304   6.763   1.783   3.225  0.2043  0.6767 -0.1122
18297TIP3   OH276305   3.882   6.072  13.197  0.6389 -0.3202 -0.0665
18297TIP3    H176306   3.793   6.067  13.164  1.3736  1.4010 -2.6971
18297TIP3    H276307   3.926   5.996  13.160  0.8280  0.2055 -0.9630
18298TIP3   OH276308   5.562   4.245   2.833 -0.2034 -0.1261 -0.2713
18298TIP3    H176309   5.480   4.287   2.806  0.1822  1.0491  0.2882
18298TIP3    H276310   5.538   4.155   2.851 -1.1958 -0.0181 -0.9628
18299TIP3   OH276311   1.593   0.246  10.864 -0.3371 -0.6239  0.2055
18299TIP3    H176312   1.649   0.168  10.874 -0.5596 -0.7169  0.7602
18299TIP3    H276313   1.654   0.319  10.875 -0.0246 -0.7067 -0.8758
18300TIP3   OH276314   5.847   1.861  16.570 -0.3418 -0.5041  0.2766
18300TIP3    H176315   5.765   1.820  16.542 -0.5928  0.1820 -0.0138
18300TIP3    H276316   5.821   1.947  16.604  0.3092 -0.0139 -0.4198
18301TIP3   OH276317   5.350   0.406   2.870  0.5157 -0.0180  0.4370
18301TIP3    H176318   5.420   0.414   2.934 -0.0958  0.4328  1.0586
18301TIP3    H276319   5.320   0.316   2.879  0.4122  0.0530  0.8032
18302TIP3   OH276320   6.512   0.844   1.089 -0.1561 -0.3343 -0.2832
18302TIP3    H176321   6.459   0.794   1.027  0.0913  1.2604 -1.8488
18302TIP3    H276322   6.602   0.833   1.059  0.0929 -0.5165  0.5111
18303TIP3   OH276323   4.879   4.718  16.959  0.3394 -0.1016 -0.3899
18303TIP3    H176324   4.789   4.686  16.971  0.2605  0.1965 -0.1912
18303TIP3    H276325   4.869   4.811  16.943  0.7483  0.3647  1.7623
18304TIP3   OH276326   0.814   2.174  14.633 -1.1451  0.2428  0.2863
18304TIP3    H176327   0.811   2.088  14.592  1.5357  0.7220 -1.1876
18304TIP3    H276328   0.725   2.208  14.625 -1.7854 -1.5967 -0.9095
18305TIP3   OH276329   0.545   2.187   3.067 -0.2217  0.3853  0.1485
18305TIP3    H176330   0.598   2.137   3.005  0.8579  1.1105  0.4538
18305TIP3    H276331   0.579   2.276   3.062 -1.9583  1.0670 -0.2235
18306TIP3   OH276332   1.353   0.217  16.126 -0.8963 -0.3393  0.7695
18306TIP3    H176333   1.372   0.309  16.144 -1.0706 -0.4424  1.5482
18306TIP3    H276334   1.336   0.213  16.032  2.8390 -0.2091 -0.0666
18307TIP3   OH276335   5.741   3.849   2.678 -0.0213  0.1777  0.4753
18307TIP3    H176336   5.770   3.868   2.588  0.2317  2.9153  1.0474
18307TIP3    H276337   5.812   3.798   2.716  1.2259  1.4449 -0.0526
18308TIP3   OH276338   3.351   0.807  12.508 -0.3792  0.0572 -0.1145
18308TIP3    H176339   3.261   0.775  12.496  0.0350 -2.1797  2.0199
18308TIP3    H276340   3.386   0.754  12.579  1.9507  2.3642  0.6192
18309TIP3   OH276341   5.493   1.265  13.732  0.4169 -0.0075 -0.1916
18309TIP3    H176342   5.564   1.227  13.680  0.1286  1.0802 -1.4147
18309TIP3    H276343   5.531   1.344  13.770  0.3016 -0.2367  0.4166
18310TIP3   OH276344   1.485   6.004   4.614  0.2817 -0.2404  0.3818
18310TIP3    H176345   1.394   5.975   4.608  0.1701 -0.0182  0.9287
18310TIP3    H276346   1.492   6.074   4.548  0.0581 -0.2599  0.3366
18311TIP3   OH276347   5.295   3.167  11.304 -0.2240 -0.6114 -0.0768
18311TIP3    H176348   5.295   3.119  11.221 -0.1800  0.1504 -0.5264
18311TIP3    H276349   5.338   3.109  11.366  0.3072 -0.9307 -0.7395
18312TIP3   OH276350   0.035   4.425   2.777 -0.0735 -0.0711 -0.0561
18312TIP3    H176351   0.093   4.383   2.713  0.4680 -0.2836  0.5538
18312TIP3    H276352   0.059   4.385   2.860  0.9709  1.9018  0.6791
18313TIP3   OH276353   3.504   3.898   3.027 -0.5103  0.2582  0.2197
18313TIP3    H176354   3.492   3.969   3.091  0.1685  0.1318  0.4967
18313TIP3    H276355   3.517   3.820   3.080 -0.8189 -0.0005 -0.0829
18314TIP3   OH276356   4.036   5.792   6.265 -0.7138  0.8153 -0.3295
18314TIP3    H176357   4.010   5.817   6.354 -0.0912  0.9926 -0.1861
18314TIP3    H276358   4.005   5.863   6.210 -1.1239  0.6939 -0.2606
18315TIP3   OH276359   0.519   6.419   1.570  0.6007  0.0531 -0.2864
18315TIP3    H176360   0.533   6.332   1.608  0.4562  1.3211  3.0127
18315TIP3    H276361   0.425   6.422   1.551  0.7945 -0.8450 -1.5323
18316TIP3   OH276362   1.939   0.041   4.940  0.5388 -0.0279 -0.2290
18316TIP3    H176363   1.965   0.133   4.934  0.4688  0.0021 -0.0675
18316TIP3    H276364   1.893   0.024   4.858 -0.7469  0.4867  0.3628
18317TIP3   OH276365   3.435   1.131  16.239 -0.1466 -0.0355  0.2910
18317TIP3    H176366   3.454   1.072  16.166  2.0662 -0.6355  1.2780
18317TIP3    H276367   3.343   1.155  16.227  0.1123 -0.1703 -2.6163
18318TIP3   OH276368   5.590   3.139   3.168  0.2769  0.0191 -0.1942
18318TIP3    H176369   5.670   3.087   3.180  0.7033  0.3881 -1.2909
18318TIP3    H276370   5.565   3.165   3.256  0.1856 -1.8190  0.3804
18319TIP3   OH276371   3.964   1.737   4.647  0.4705  0.5809 -0.3773
18319TIP3    H176372   3.965   1.714   4.554  0.5381  1.6417 -0.6490
18319TIP3    H276373   4.057   1.747   4.670  0.4116  2.2594 -0.7182
18320TIP3   OH276374   6.028   2.709   5.402  0.8483 -0.8061 -0.5581
18320TIP3    H176375   6.068   2.788   5.367  0.1430 -0.8765 -1.5575
18320TIP3    H276376   6.006   2.731   5.493 -1.5961  1.0585 -1.4877
18321TIP3   OH276377   1.116   5.494  17.223  0.0565 -0.2164  0.0211
18321TIP3    H176378   1.028   5.461  17.242 -0.6939  0.8082 -1.4840
18321TIP3    H276379   1.144   5.445  17.145  1.2244 -1.1736  0.9922
18322TIP3   OH276380   6.551   2.057  15.240 -0.8238 -0.4633  0.4514
18322TIP3    H176381   6.480   2.118  15.264 -1.4982 -0.9000 -0.3650
18322TIP3    H276382   6.624   2.083  15.295 -1.9887 -0.7751  2.2272
18323TIP3   OH276383   5.460   0.604   2.405  0.2171 -0.4204  0.0121
18323TIP3    H176384   5.444   0.585   2.497 -0.3576  0.1571  0.0383
18323TIP3    H276385   5.527   0.673   2.407 -0.4251  0.2138  0.0315
18324TIP3   OH276386   3.537   4.525  16.936 -0.1912  0.3578 -0.0975
18324TIP3    H176387   3.624   4.491  16.955 -0.8076 -0.0989  2.2929
18324TIP3    H276388   3.513   4.487  16.852  2.1794  1.1106 -1.1969
18325TIP3   OH276389   4.209   4.719   2.449  0.6224  0.7368  0.4796
18325TIP3    H176390   4.200   4.729   2.543  0.7540  0.6848  0.4978
18325TIP3    H276391   4.202   4.625   2.433  0.1316  0.7877  0.3873
18326TIP3   OH276392   3.839   1.540   2.973 -0.3429  0.6986  0.6678
18326TIP3    H176393   3.925   1.508   2.944  0.5653  1.2176  2.5893
18326TIP3    H276394   3.828   1.501   3.060 -0.2124  3.6925  2.1351
18327TIP3   OH276395   3.645   5.570  15.957 -0.6600 -0.0270  0.4682
18327TIP3    H176396   3.656   5.661  15.930  0.0595  0.0065  0.8567
18327TIP3    H276397   3.583   5.533  15.893  1.3903 -0.0933 -1.5967
18328TIP3   OH276398   4.712   1.707   6.265  0.2773  0.1097  0.2249
18328TIP3    H176399   4.622   1.720   6.235  0.4633  0.7205 -0.0853
18328TIP3    H276400   4.722   1.612   6.268  0.8199 -0.1171 -3.5412
18329TIP3   OH276401   6.428   4.832   2.901  0.3124 -0.5751 -0.1115
18329TIP3    H176402   6.414   4.741   2.927  0.7599 -0.3800  0.8806
18329TIP3    H276403   6.504   4.860   2.953  1.1983 -0.1250 -1.6074
18330TIP3   OH276404   4.706   3.503   0.601  0.2924 -0.0235  0.0898
18330TIP3    H176405   4.651   3.542   0.533 -1.3855 -1.1485  0.7407
18330TIP3    H276406   4.738   3.578   0.651 -2.6744  0.6519  1.1830
18331TIP3   OH276407   1.455   1.661  10.796 -0.7315 -0.2430  0.2208
18331TIP3    H176408   1.390   1.676  10.865 -1.1705 -0.7210 -0.0832
18331TIP3    H276409   1.495   1.577  10.819  0.0826  0.2343  0.6310
18332TIP3   OH276410   1.442   2.577  12.424  0.5726  0.0097 -0.3994
18332TIP3    H176411   1.358   2.590  12.381  0.2990 -1.5383 -0.3637
18332TIP3    H276412   1.506   2.614  12.363 -0.1184  1.2840 -0.3792
18333TIP3   OH276413   2.861   2.707  13.194  0.0074  0.1819  0.4840
18333TIP3    H176414   2.929   2.643  13.175 -0.9602 -0.6573 -0.2830
18333TIP3    H276415   2.855   2.709  13.289  0.4711 -0.4054  0.5317
18334TIP3   OH276416   2.849   1.504  14.958  0.7798  0.0482  0.1171
18334TIP3    H176417   2.919   1.439  14.969  0.9677  0.4680  1.7497
18334TIP3    H276418   2.848   1.522  14.864  2.1013 -0.8113 -0.1016
18335TIP3   OH276419   1.807   2.649  14.102  0.2813  0.3255 -0.6084
18335TIP3    H176420   1.870   2.577  14.093  0.2445  0.4235 -1.7379
18335TIP3    H276421   1.859   2.724  14.128  0.3219 -0.0891  0.5852
18336TIP3   OH276422   6.312   2.980   4.967 -0.6379  0.2189 -0.6523
18336TIP3    H176423   6.369   3.046   4.927 -0.3856  0.7204  0.4892
18336TIP3    H276424   6.354   2.960   5.051 -1.8840  0.2263 -0.0037
18337TIP3   OH276425   4.580   1.898  13.684 -0.6627  0.3681 -0.4750
18337TIP3    H176426   4.599   1.805  13.699  0.6765  0.9790  2.3530
18337TIP3    H276427   4.654   1.930  13.632  0.8104  0.5300  1.6125
18338TIP3   OH276428   6.374   1.137  14.497 -0.2154  0.1062 -0.0142
18338TIP3    H176429   6.414   1.168  14.578 -0.3446  0.1203  0.0449
18338TIP3    H276430   6.295   1.091  14.526 -0.8170  0.9945 -0.1875
18339TIP3   OH276431   3.625   0.122  14.587  0.2832  0.0984  0.5036
18339TIP3    H176432   3.630   0.178  14.510 -1.2483 -0.3098  0.0638
18339TIP3    H276433   3.660   0.038  14.557 -0.5793 -0.1462  0.1350
18340TIP3   OH276434   2.388   3.002   1.572 -0.1968 -0.0750 -0.7915
18340TIP3    H176435   2.394   2.991   1.667  0.7130 -0.0921 -0.8388
18340TIP3    H276436   2.312   2.950   1.546 -1.0138  0.6677  0.0303
18341TIP3   OH276437   6.375   3.014   5.745  0.3055 -0.2352 -0.1419
18341TIP3    H176438   6.310   3.069   5.701  0.3121  0.4541  0.6796
18341TIP3    H276439   6.330   2.984   5.824  0.6385 -0.6002 -0.0937
18342TIP3   OH276440   2.195   1.856  12.388 -0.3004  0.3886  0.4819
18342TIP3    H176441   2.127   1.918  12.415 -1.8454 -1.4197  0.8714
18342TIP3    H276442   2.193   1.786  12.453 -0.9626 -1.7865 -1.7325
18343TIP3   OH276443   2.583   2.506  15.429 -0.8078 -0.2018 -0.1003
18343TIP3    H176444   2.517   2.455  15.478 -0.7548  1.7739  2.2203
18343TIP3    H276445   2.587   2.463  15.344 -1.9841 -3.0176  1.1050
18344TIP3   OH276446   6.324   2.599   5.761 -0.1055  0.4196  0.3976
18344TIP3    H176447   6.265   2.669   5.791 -1.1563  0.4149 -1.5126
18344TIP3    H276448   6.310   2.595   5.666  1.9088 -0.6088  0.1047
18345TIP3   OH276449   4.134   3.930  15.454 -0.6498  0.1125  0.4182
18345TIP3    H176450   4.153   3.841  15.483  1.1841  0.3467  0.0574
18345TIP3    H276451   4.168   3.986  15.524 -0.7433  0.5449  0.1240
18346TIP3   OH276452   2.741   1.507  11.476  0.4514  0.1490  0.6734
18346TIP3    H176453   2.762   1.589  11.520 -0.7942  1.5687 -1.2069
18346TIP3    H276454   2.678   1.532  11.408 -0.3985 -2.4605  0.3873
18347TIP3   OH276455   1.659   2.315  10.815  0.2306 -0.3844 -0.3363
18347TIP3    H176456   1.592   2.248  10.832  0.8240 -1.0414 -0.5374
18347TIP3    H276457   1.611   2.398  10.815 -0.9829 -0.9919 -2.5987
18348TIP3   OH276458   2.092   1.849  15.226 -0.3105 -0.9488 -0.0474
18348TIP3    H176459   2.150   1.894  15.287  0.2548 -0.8852 -0.6124
18348TIP3    H276460   2.100   1.899  15.145 -1.3847 -0.7734 -0.0575
18349TIP3   OH276461   0.905   5.582  13.966  0.3137 -0.2386 -0.4085
18349TIP3    H176462   0.823   5.595  14.014  1.2356  0.4862  1.0473
18349TIP3    H276463   0.879   5.577  13.874 -1.2325  1.3214 -0.1111
18350TIP3   OH276464   4.026   3.758   4.989 -0.1645  0.2229 -0.1574
18350TIP3    H176465   3.957   3.700   4.958  1.1374 -0.7257 -1.4270
18350TIP3    H276466   4.078   3.704   5.049 -0.3283  0.8283  0.5413
18351TIP3   OH276467   6.659   2.020   5.640  0.4655 -0.2115 -0.1320
18351TIP3    H176468   6.605   2.098   5.630 -0.2537 -0.6626  0.1151
18351TIP3    H276469   6.742   2.052   5.677  0.6762  0.5861 -1.2532
18352TIP3   OH276470   6.552   1.394  12.598  0.3418  0.1798 -0.3866
18352TIP3    H176471   6.620   1.404  12.665  0.1329  2.5727 -0.4225
18352TIP3    H276472   6.570   1.309  12.558  1.5525 -0.5211  1.5041
18353TIP3   OH276473   2.711   4.771   2.722 -0.3480  0.7510 -0.0921
18353TIP3    H176474   2.640   4.822   2.761 -0.1438  2.0800 -1.3566
18353TIP3    H276475   2.763   4.836   2.674 -1.1961 -0.8649 -3.5049
18354TIP3   OH276476   5.026   2.258  14.672  0.6981  0.4663  0.8058
18354TIP3    H176477   4.991   2.341  14.703  1.5982  0.8169  0.9089
18354TIP3    H276478   5.041   2.271  14.578 -2.1395 -0.6337  0.1166
18355TIP3   OH276479   2.477   2.547   3.875 -0.2785  0.0556  0.2690
18355TIP3    H176480   2.470   2.476   3.939  1.7283 -1.3284 -0.9386
18355TIP3    H276481   2.390   2.553   3.835 -0.5298 -1.6466  0.4954
18356TIP3   OH276482   3.819   4.008  11.213  0.2546  0.2487 -0.0782
18356TIP3    H176483   3.894   4.056  11.247 -1.0189 -0.3131  4.1094
18356TIP3    H276484   3.844   3.916  11.219 -0.7596  0.0418  1.6276
18357TIP3   OH276485   5.377   2.296   2.141 -0.1112  0.6554  0.2468
18357TIP3    H176486   5.361   2.219   2.086  1.8374  0.2203  0.1997
18357TIP3    H276487   5.387   2.368   2.078  2.5926  0.0768 -0.1414
18358TIP3   OH276488   1.947   0.732  15.630 -0.0260  0.0968  0.1423
18358TIP3    H176489   2.003   0.680  15.572  0.3244  0.0119  0.5509
18358TIP3    H276490   1.992   0.730  15.714  0.2962  1.5404  0.0346
18359TIP3   OH276491   2.891   4.177   2.246 -0.4467  0.5818 -0.6102
18359TIP3    H176492   2.920   4.116   2.179 -0.6959 -0.5572  0.3032
18359TIP3    H276493   2.943   4.256   2.231  0.7524 -0.2734 -1.0334
18360TIP3   OH276494   1.674   3.162   0.342 -0.3101  0.0970 -0.0910
18360TIP3    H176495   1.725   3.081   0.332 -1.2892 -0.5915  0.3232
18360TIP3    H276496   1.668   3.197   0.253 -0.1227 -0.4503 -0.3235
18361TIP3   OH276497   0.849   4.776   5.832  0.1386 -0.5633 -0.0333
18361TIP3    H176498   0.883   4.706   5.888 -0.0305 -1.4760 -1.0431
18361TIP3    H276499   0.879   4.857   5.874  1.8638 -1.2735  0.2057
18362TIP3   OH276500   5.566   4.729  10.776  0.7178  0.1594  0.1433
18362TIP3    H176501   5.556   4.658  10.713  0.5434 -0.5544  0.9535
18362TIP3    H276502   5.661   4.738  10.785  0.7774 -1.1821  1.3209
18363TIP3   OH276503   0.082   6.118   5.522  0.4712  0.1999 -0.1840
18363TIP3    H176504   0.017   6.112   5.452 -0.2992  1.4478  0.3970
18363TIP3    H276505   0.057   6.048   5.583 -0.2117  0.5456 -0.0601
18364TIP3   OH276506   5.239   6.679  13.581 -0.1828  0.1451  0.7134
18364TIP3    H176507   5.157   6.631  13.585 -0.1434  0.0669  0.5766
18364TIP3    H276508   5.243   6.711  13.491 -0.4848  0.8872  0.9537
18365TIP3   OH276509   4.751   3.706   0.267  0.4205 -0.0912 -0.2043
18365TIP3    H176510   4.845   3.726   0.268  0.6286 -0.9828  1.3915
18365TIP3    H276511   4.718   3.743   0.350 -0.6408  0.1942 -0.7398
18366TIP3   OH276512   5.577   3.973   3.024  0.5350  0.0467 -0.2282
18366TIP3    H176513   5.666   3.996   2.998  0.4422 -0.4541 -1.0446
18366TIP3    H276514   5.528   3.969   2.941 -1.1755  3.8901  0.3715
18367TIP3   OH276515   4.876   1.434   4.114 -0.2475  0.5761  0.5473
18367TIP3    H176516   4.794   1.398   4.080 -0.3954  0.9535  0.4999
18367TIP3    H276517   4.931   1.445   4.037 -0.3382  0.8006  0.5140
18368TIP3   OH276518   4.284   4.226   5.630 -0.2377 -0.6433 -0.1606
18368TIP3    H176519   4.328   4.144   5.608  1.5290  0.6836 -1.8553
18368TIP3    H276520   4.216   4.235   5.563 -0.0285 -0.4188 -0.3407
18369TIP3   OH276521   6.083   6.060  14.895  0.7025 -0.4177  0.1308
18369TIP3    H176522   6.125   5.975  14.881  1.9181  0.1016  0.5439
18369TIP3    H276523   6.101   6.108  14.814  0.6211 -0.3024  0.1821
18370TIP3   OH276524   5.118   2.573   4.491  0.4410  0.4236  0.2266
18370TIP3    H176525   5.095   2.575   4.584  1.8762 -1.4028  0.6819
18370TIP3    H276526   5.159   2.488   4.479  0.2751  0.6248 -2.1122
18371TIP3   OH276527   3.292   3.790   4.688 -0.0911 -0.2711 -0.7282
18371TIP3    H176528   3.306   3.873   4.642  1.1575 -0.9766 -1.7182
18371TIP3    H276529   3.361   3.788   4.754  1.2671 -1.3843 -2.0795
18372TIP3   OH276530   0.273   3.758  14.638 -0.4346  0.0017 -0.5838
18372TIP3    H176531   0.359   3.797  14.619 -0.4552 -0.0683 -0.8201
18372TIP3    H276532   0.236   3.814  14.706  0.1521 -0.4475  0.1223
18373TIP3   OH276533   3.791   6.766  17.172 -0.3376 -0.0282 -0.1573
18373TIP3    H176534   3.841   6.837  17.213 -0.3085 -1.0434  1.6936
18373TIP3    H276535   3.712   6.809  17.139 -0.2823  0.9080  0.8330
18374TIP3   OH276536   4.753   3.188   2.784 -0.1698 -0.2308  0.0408
18374TIP3    H176537   4.764   3.100   2.819 -0.8108 -0.6714 -0.8349
18374TIP3    H276538   4.741   3.243   2.862 -1.7433 -1.2196  0.5330
18375TIP3   OH276539   5.553   6.346   1.581 -0.4778 -0.3785 -0.1819
18375TIP3    H176540   5.618   6.289   1.623 -0.2649 -0.9053 -1.1859
18375TIP3    H276541   5.594   6.433   1.581 -0.2066 -0.5044  0.1059
18376TIP3   OH276542   2.166   2.780   4.300 -0.1327  0.0209 -0.0326
18376TIP3    H176543   2.131   2.770   4.211 -0.9990 -0.9464  0.3974
18376TIP3    H276544   2.110   2.724   4.354 -0.2287  1.3232  1.2884
18377TIP3   OH276545   5.353   4.326   5.233  0.0981 -0.1122 -0.4751
18377TIP3    H176546   5.382   4.316   5.142  1.3249  1.0411 -0.2545
18377TIP3    H276547   5.375   4.242   5.274  2.5895  0.4335 -0.5152
18378TIP3   OH276548   4.669   4.616   0.802 -0.3740  0.2087  0.6808
18378TIP3    H176549   4.671   4.655   0.889 -3.8497  1.6605  0.2876
18378TIP3    H276550   4.610   4.542   0.810  1.1854 -1.1741  0.0143
18379TIP3   OH276551   5.103   2.478   0.593  0.7020  0.0375  0.5089
18379TIP3    H176552   5.052   2.447   0.518 -0.6843  2.7795  0.2038
18379TIP3    H276553   5.182   2.424   0.591 -0.7837 -2.2885 -0.8396
18380TIP3   OH276554   0.409   0.554  16.584 -0.2649  0.0442  0.4450
18380TIP3    H176555   0.388   0.639  16.623 -2.2599  0.1585 -0.7089
18380TIP3    H276556   0.326   0.506  16.584 -0.0301 -0.5430 -2.0739
18381TIP3   OH276557   2.990   6.753   2.516 -0.2483  0.0873 -0.3065
18381TIP3    H176558   2.977   6.786   2.427  0.5760 -0.7733 -0.7637
18381TIP3    H276559   3.014   6.661   2.505  0.7208  0.1853  0.7590
18382TIP3   OH276560   5.558   3.689  14.243  0.0724 -0.5386 -0.0695
18382TIP3    H176561   5.537   3.709  14.334 -2.1551 -1.4712 -0.3105
18382TIP3    H276562   5.549   3.594  14.237 -1.4889 -0.3414 -1.6060
18383TIP3   OH276563   6.472   2.566  13.260  0.1008  0.3739 -0.5362
18383TIP3    H176564   6.554   2.612  13.273  0.5491 -0.5271 -0.0435
18383TIP3    H276565   6.481   2.486  13.312 -1.3122  0.5255 -0.0261
18384TIP3   OH276566   5.776   3.613  15.842  0.5333  0.1650 -0.2096
18384TIP3    H176567   5.863   3.610  15.881  1.3396  0.2412 -1.9108
18384TIP3    H276568   5.742   3.700  15.866  0.6026 -0.1328  1.0541
18385TIP3   OH276569   3.618   5.304  17.155 -0.5583  0.5634  0.0459
18385TIP3    H176570   3.711   5.300  17.174 -0.7537 -0.4406  0.8979
18385TIP3    H276571   3.588   5.385  17.197  0.2798  2.0366 -2.0558
18386TIP3   OH276572   4.056   0.533   2.203  0.3035  0.0343  0.8400
18386TIP3    H176573   4.088   0.537   2.112 -0.4048 -0.8598  0.5476
18386TIP3    H276574   4.103   0.605   2.247  1.9060 -0.5456  0.1707
18387TIP3   OH276575   0.195   3.187   0.274 -0.9947  0.3029 -0.0483
18387TIP3    H176576   0.104   3.214   0.261 -1.0329 -0.1927 -0.8732
18387TIP3    H276577   0.223   3.233   0.354 -1.7591  0.9680 -0.1551
18388TIP3   OH276578   6.250   2.621  15.876  0.8385  0.1506  0.3886
18388TIP3    H176579   6.159   2.609  15.905  1.0670  0.5363  1.2832
18388TIP3    H276580   6.255   2.713  15.849  0.5127 -0.3043 -1.3536
18389TIP3   OH276581   4.137   0.250   2.004 -0.5717  0.1868 -0.3273
18389TIP3    H176582   4.059   0.218   2.050 -0.5260 -2.2494 -1.7835
18389TIP3    H276583   4.103   0.289   1.923 -0.2903 -1.8477 -1.4805
18390TIP3   OH276584   5.023   4.030   3.425  0.9452  0.0425  0.2162
18390TIP3    H176585   4.929   4.021   3.445  0.9123  1.5986  0.9757
18390TIP3    H276586   5.053   3.941   3.409 -1.1410 -0.3016 -2.4110
18391TIP3   OH276587   6.714   6.247   1.127 -0.0792 -0.4602  0.3346
18391TIP3    H176588   6.796   6.219   1.087 -1.1308 -1.4419 -1.2346
18391TIP3    H276589   6.646   6.219   1.066 -1.5084  1.9124  0.7142
18392TIP3   OH276590   4.436   4.374  15.583  0.3628 -0.0967 -0.2163
18392TIP3    H176591   4.392   4.363  15.667  1.4230  0.3731  0.4281
18392TIP3    H276592   4.511   4.314  15.587  1.4194  1.1666 -0.0827
18393TIP3   OH276593   3.354   2.760   4.876  0.2317 -0.6665 -1.1262
18393TIP3    H176594   3.378   2.762   4.969 -1.1380  0.8029 -0.7468
18393TIP3    H276595   3.290   2.689   4.870  0.5951 -1.0042 -1.0212
18394TIP3   OH276596   6.712   3.991  14.578 -0.2151 -1.1145  0.0094
18394TIP3    H176597   6.714   4.074  14.530  0.5274 -1.0333  0.1724
18394TIP3    H276598   6.703   4.017  14.670  1.7053 -1.1263  0.2387
18395TIP3   OH276599   6.514   1.234  10.880  0.2374  0.5340 -0.3318
18395TIP3    H176600   6.463   1.156  10.902  0.0132  0.1817 -1.9570
18395TIP3    H276601   6.576   1.204  10.813  1.7781  1.2379  0.7433
18396TIP3   OH276602   2.823   1.669  13.200 -0.0363  0.1242 -0.2649
18396TIP3    H176603   2.736   1.666  13.240 -1.3787  3.5465 -2.4577
18396TIP3    H276604   2.880   1.704  13.269 -1.6450  2.9677 -0.2202
18397TIP3   OH276605   3.211   2.490  16.979 -0.3547 -0.5946  0.0501
18397TIP3    H176606   3.181   2.422  16.918 -0.0095 -0.3558 -0.3934
18397TIP3    H276607   3.208   2.571  16.927  0.6738 -0.5059  0.1143
18398TIP3   OH276608   1.563   1.908  12.111 -0.0417 -0.1416 -0.2885
18398TIP3    H176609   1.571   1.932  12.018 -0.9749 -0.9970 -0.6063
18398TIP3    H276610   1.653   1.915  12.145  0.0570  1.7668 -0.8335
18399TIP3   OH276611   0.742   1.134   4.468  0.3939  0.0843 -0.3032
18399TIP3    H176612   0.742   1.189   4.546 -1.2783 -1.3444  0.7775
18399TIP3    H276613   0.778   1.190   4.399  0.2577  1.9738  1.0854
18400TIP3   OH276614   4.257   1.739   4.695  0.4543 -0.3674  0.6047
18400TIP3    H176615   4.328   1.755   4.757  1.0282 -1.3677  0.2354
18400TIP3    H276616   4.262   1.811   4.632  1.8048 -0.9605  0.0026
18401TIP3   OH276617   0.863   5.138  15.693  0.6496  0.2462 -0.1015
18401TIP3    H176618   0.949   5.107  15.664 -0.4252 -2.6090 -0.5261
18401TIP3    H276619   0.826   5.064  15.740 -2.5425  0.4971 -1.9683
18402TIP3   OH276620   0.835   4.292   1.673  0.0139  0.3307 -0.3334
18402TIP3    H176621   0.855   4.363   1.734 -0.4642  1.2854 -1.2574
18402TIP3    H276622   0.841   4.333   1.586 -2.4041 -0.1871 -0.8176
18403TIP3   OH276623   3.638   2.808  17.250  0.4098  0.5694 -0.0345
18403TIP3    H176624   3.676   2.722  17.237 -2.7906 -1.1001  0.5807
18403TIP3    H276625   3.615   2.811  17.343 -0.9220  1.4147 -0.3501
18404TIP3   OH276626   2.071   4.647   6.555 -0.3454 -0.0367  0.0262
18404TIP3    H176627   2.033   4.568   6.593  1.4092 -0.3576  1.2559
18404TIP3    H276628   2.093   4.701   6.631 -0.6872  1.2474 -0.7593
18405TIP3   OH276629   2.685   6.526   0.734  0.4256 -0.3649  0.7618
18405TIP3    H176630   2.645   6.439   0.738  0.0340 -0.1461  2.6580
18405TIP3    H276631   2.761   6.515   0.678  0.5881 -2.0291  1.2656
18406TIP3   OH276632   5.128   5.087   5.298  0.1053 -1.0872  0.2995
18406TIP3    H176633   5.222   5.098   5.289  0.0294  1.2999  1.5310
18406TIP3    H276634   5.092   5.117   5.214  0.3549  1.5698  1.0285
18407TIP3   OH276635   4.487   5.617   0.122  0.0370 -0.6397 -0.3014
18407TIP3    H176636   4.472   5.711   0.136  0.7097 -0.4321 -0.9039
18407TIP3    H276637   4.575   5.602   0.158  0.4464 -0.7657 -1.3184
18408TIP3   OH276638   0.913   4.720   3.199  0.0788  0.6081 -0.2788
18408TIP3    H176639   0.907   4.659   3.273  0.3130  0.1166 -0.6607
18408TIP3    H276640   0.850   4.686   3.135 -0.0926  1.0087 -0.3256
18409TIP3   OH276641   0.057   4.750  13.140  0.2743 -1.1844  0.0866
18409TIP3    H176642   0.133   4.772  13.193 -0.4583 -1.4617  1.2860
18409TIP3    H276643   0.029   4.664  13.172  0.7461 -2.1308 -1.8421
18410TIP3   OH276644   4.347   5.322   3.412  0.2232 -0.6650  0.0908
18410TIP3    H176645   4.393   5.296   3.332  1.2006 -0.7494  0.6602
18410TIP3    H276646   4.394   5.399   3.443 -1.0781  0.2832 -0.2060
18411TIP3   OH276647   4.424   5.955   0.854 -0.2029  0.2923  0.2006
18411TIP3    H176648   4.388   5.958   0.766  1.8681  1.2547 -0.6889
18411TIP3    H276649   4.478   5.876   0.855 -2.0439 -1.0211  1.4379
18412TIP3   OH276650   3.804   2.744  13.269 -0.1905  0.1535 -0.7904
18412TIP3    H176651   3.849   2.659  13.262  1.9144  1.3352 -3.0105
18412TIP3    H276652   3.824   2.774  13.358 -0.0024 -1.1589 -0.3658
18413TIP3   OH276653   3.825   3.422   4.376 -0.2800  0.2826 -1.0242
18413TIP3    H176654   3.819   3.434   4.281 -0.8688  0.9887 -0.8988
18413TIP3    H276655   3.782   3.338   4.392 -1.6739  0.9399 -1.2043
18414TIP3   OH276656   1.478   2.268   0.939  0.3268 -0.2698 -0.7078
18414TIP3    H176657   1.459   2.229   1.024  0.0709  2.3540  0.5211
18414TIP3    H276658   1.440   2.207   0.875 -0.3678 -1.7808  1.0730
18415TIP3   OH276659   6.360   0.261   2.359 -0.2121  0.4046  0.3419
18415TIP3    H176660   6.366   0.322   2.433 -0.1039 -1.1159  1.6523
18415TIP3    H276661   6.268   0.235   2.358  0.1482 -0.9788  1.1573
18416TIP3   OH276662   1.397   6.695   6.199  0.0476  0.3055  0.3137
18416TIP3    H176663   1.395   6.621   6.138  0.6271  0.3362  0.2577
18416TIP3    H276664   1.350   6.663   6.276  0.6177 -0.2479  0.4348
18417TIP3   OH276665   4.347   6.680   4.351  0.1972 -0.6760 -0.3166
18417TIP3    H176666   4.406   6.684   4.426  0.0991  0.7203 -0.2852
18417TIP3    H276667   4.372   6.754   4.296 -1.4927 -0.0573 -0.3212
18418TIP3   OH276668   6.427   6.595   4.997 -0.0014 -0.1990  0.7180
18418TIP3    H176669   6.483   6.562   5.067  1.1421 -0.7137 -0.3873
18418TIP3    H276670   6.466   6.559   4.917 -0.8139  0.9982 -0.2487
18419TIP3   OH276671   2.065   4.814   2.248  0.2730 -0.0579 -0.0689
18419TIP3    H176672   1.984   4.818   2.197 -0.6419 -0.7362  1.2771
18419TIP3    H276673   2.110   4.736   2.214 -0.6076 -0.8451  0.5380
18420TIP3   OH276674   5.715   0.725  12.171 -0.8955 -0.6645 -0.5512
18420TIP3    H176675   5.755   0.675  12.242 -2.4471  1.1627  1.7328
18420TIP3    H276676   5.765   0.806  12.167 -1.3612 -0.3935 -0.9891
18421TIP3   OH276677   0.962   1.625  11.482  0.0143 -0.0731 -0.1198
18421TIP3    H176678   1.041   1.610  11.534 -1.1437 -0.3028  1.6280
18421TIP3    H276679   0.968   1.718  11.457  0.6163  0.0210  0.3453
18422TIP3   OH276680   3.275   6.079  12.352 -0.5290 -0.4017  0.2104
18422TIP3    H176681   3.303   6.126  12.273 -1.6637  0.0436  0.0496
18422TIP3    H276682   3.196   6.032  12.326 -0.9856 -0.1615  1.1007
18423TIP3   OH276683   2.197   3.307  10.648 -0.0085  0.3517 -0.7850
18423TIP3    H176684   2.105   3.332  10.656 -0.0368  0.6415 -1.8911
18423TIP3    H276685   2.242   3.387  10.621  0.6972  0.3847  0.4077
18424TIP3   OH276686   5.967   2.063  10.948 -0.2164 -0.6236 -0.2671
18424TIP3    H176687   6.012   2.070  10.864 -0.7263 -1.4505 -0.6196
18424TIP3    H276688   5.920   1.979  10.943  0.0860 -0.8829  1.0067
18425TIP3   OH276689   6.176   6.122   6.141  0.0334  0.4757 -0.0779
18425TIP3    H176690   6.147   6.049   6.195 -0.2409 -0.1948 -1.1131
18425TIP3    H276691   6.267   6.137   6.168  0.0452 -0.1559  0.2369
18426TIP3   OH276692   3.331   5.673   3.398  0.0537 -0.3265 -0.0084
18426TIP3    H176693   3.257   5.614   3.386 -0.6405  0.1013  1.8727
18426TIP3    H276694   3.304   5.753   3.352 -0.8631 -0.0256  1.0127
18427TIP3   OH276695   4.984   5.040   5.800 -0.5101 -0.1359 -0.1577
18427TIP3    H176696   4.922   5.039   5.727 -0.5605  0.0843 -0.1198
18427TIP3    H276697   4.939   5.090   5.869  0.0529  0.8067 -0.4465
18428TIP3   OH276698   4.293   0.143   4.859 -0.2334  1.3148 -0.0263
18428TIP3    H176699   4.239   0.067   4.881  1.7691 -0.5871 -1.2322
18428TIP3    H276700   4.349   0.156   4.936  1.0583 -0.0346 -0.6814
18429TIP3   OH276701   5.018   6.147  12.583  0.0970  0.1438 -0.6698
18429TIP3    H176702   5.100   6.197  12.585  1.3831 -1.8677  0.8427
18429TIP3    H276703   4.954   6.206  12.623  1.3520  0.9087  0.2972
18430TIP3   OH276704   6.741   0.958  14.689 -0.1003  0.3094  0.2839
18430TIP3    H176705   6.787   1.034  14.724 -1.5746  0.5619  1.8112
18430TIP3    H276706   6.648   0.982  14.690 -0.4376 -0.7613 -1.1737
18431TIP3   OH276707   5.199   0.486  14.139 -0.6592  0.1472 -0.0686
18431TIP3    H176708   5.193   0.392  14.155  0.0869  0.0801 -0.1840
18431TIP3    H276709   5.291   0.502  14.120 -0.5328  1.0969  1.2141
18432TIP3   OH276710   1.932   1.885   5.718 -0.6029  0.2773 -0.4837
18432TIP3    H176711   1.906   1.917   5.631 -0.4106  0.5883 -0.4303
18432TIP3    H276712   2.007   1.939   5.742 -3.0123  3.0643  1.6065
18433TIP3   OH276713   2.778   5.985  15.723 -0.2712  0.1222 -0.2920
18433TIP3    H176714   2.710   5.958  15.663 -1.4215 -1.2313  1.5126
18433TIP3    H276715   2.734   6.043  15.786  0.6330  0.5881 -0.0552
18434TIP3   OH276716   5.919   1.449   6.628  0.1926  0.5071  0.0763
18434TIP3    H176717   5.912   1.360   6.592 -1.7669  0.6265  0.0856
18434TIP3    H276718   5.979   1.494   6.568  0.3616 -0.5047 -0.5441
18435TIP3   OH276719   3.485   4.093  14.562  0.2389  0.5543  0.2673
18435TIP3    H176720   3.412   4.108  14.502  0.8700  0.2753 -0.5791
18435TIP3    H276721   3.459   4.139  14.642 -0.8203  0.5435 -0.0492
18436TIP3   OH276722   0.397   0.047  13.942  0.0698  0.0273 -0.2680
18436TIP3    H176723   0.342  -0.023  13.906 -1.6064  0.7805  0.6811
18436TIP3    H276724   0.440   0.007  14.017 -0.1079 -0.2550 -0.3118
18437TIP3   OH276725   2.906   0.532  16.449 -0.0812 -0.5279 -0.2474
18437TIP3    H176726   2.997   0.507  16.434  0.0132 -0.9667  0.9507
18437TIP3    H276727   2.858   0.449  16.453 -0.2651 -0.3891  0.7031
18438TIP3   OH276728   6.160   2.312  11.061  0.4241 -0.1164  0.2086
18438TIP3    H176729   6.225   2.382  11.058 -0.3547  0.6987  1.4804
18438TIP3    H276730   6.105   2.328  10.984  1.2022 -0.3167 -0.4094
18439TIP3   OH276731   1.890   6.081  10.985  0.0912 -0.5523  0.5982
18439TIP3    H176732   1.882   6.132  10.905  0.3788 -0.1199  0.8411
18439TIP3    H276733   1.982   6.092  11.011  0.3555 -1.7939  0.2533
18440TIP3   OH276734   1.530   2.684  12.756  0.5382 -1.2424  0.1253
18440TIP3    H176735   1.451   2.669  12.807  0.5468 -2.6630 -0.2399
18440TIP3    H276736   1.536   2.608  12.698  1.9153 -0.9290 -0.1792
18441TIP3   OH276737   1.579   0.937  16.336 -0.2706 -0.0473 -0.0924
18441TIP3    H176738   1.635   0.994  16.388 -0.7669 -0.5514  1.0142
18441TIP3    H276739   1.636   0.905  16.266  0.2439  1.1057 -0.2219
18442TIP3   OH276740   3.469   0.036   0.172 -0.7042 -0.1681  0.0150
18442TIP3    H176741   3.534  -0.012   0.224 -2.1974 -4.0765 -1.3586
18442TIP3    H276742   3.392   0.041   0.229 -0.8102 -0.1036 -0.1339
18443TIP3   OH276743   4.412   1.997  16.559 -0.0973 -0.0247  0.7837
18443TIP3    H176744   4.367   2.062  16.613 -0.1032  0.1510  0.5677
18443TIP3    H276745   4.385   2.017  16.469  0.9607  0.5267  0.5702
18444TIP3   OH276746   3.498   2.193  12.155 -0.4337 -0.4779  0.0840
18444TIP3    H176747   3.424   2.240  12.192 -0.2329  0.0135 -0.1276
18444TIP3    H276748   3.575   2.239  12.188 -0.2517  0.4638 -1.5220
18445TIP3   OH276749   1.751   6.159   4.917  0.2647  0.2296  0.2630
18445TIP3    H176750   1.826   6.143   4.861  0.0642 -0.2389  0.1237
18445TIP3    H276751   1.701   6.077   4.915  0.1343  0.2826  0.9380
18446TIP3   OH276752   5.063   2.784   6.780 -0.2508  0.8584  0.4095
18446TIP3    H176753   5.018   2.716   6.830 -0.2494  0.8624  0.4160
18446TIP3    H276754   5.151   2.788   6.818 -0.1823  0.7129  0.2677
18447TIP3   OH276755   2.167   4.737  13.129  0.1015 -0.2593 -0.3604
18447TIP3    H176756   2.212   4.784  13.058  3.8298  0.4989  2.2476
18447TIP3    H276757   2.140   4.805  13.189 -0.6931 -1.0593  0.2131
18448TIP3   OH276758   3.815   3.632   1.856  0.5606  0.1853 -0.2055
18448TIP3    H176759   3.815   3.538   1.876  0.1939  0.2023 -0.1231
18448TIP3    H276760   3.782   3.637   1.767 -0.7731  0.3288  0.2690
18449TIP3   OH276761   1.749   1.440   4.814  0.4622 -0.3801  0.0966
18449TIP3    H176762   1.737   1.467   4.905  2.0982 -1.1104  0.5621
18449TIP3    H276763   1.684   1.491   4.765  0.3970  0.9567  1.5095
18450TIP3   OH276764   0.650   0.786  16.614 -0.2365  0.3662 -0.7696
18450TIP3    H176765   0.716   0.745  16.670  0.1144  0.9028 -0.7829
18450TIP3    H276766   0.657   0.880  16.633 -2.3843  0.2968  0.7333
18451TIP3   OH276767   1.180   4.982   0.010  0.3922  0.2662  0.2528
18451TIP3    H176768   1.084   4.982   0.003  0.2622 -0.1572  1.7278
18451TIP3    H276769   1.198   5.032   0.089  1.4664  1.2447 -0.5768
18452TIP3   OH276770   4.892   0.529  12.798  0.6632 -0.1655  0.0036
18452TIP3    H176771   4.838   0.473  12.742  1.5138 -0.6474 -0.3528
18452TIP3    H276772   4.933   0.469  12.860 -1.7152  0.5400  2.4335
18453TIP3   OH276773   6.548   5.747  15.139 -0.0142  0.1404  0.0370
18453TIP3    H176774   6.604   5.677  15.106 -1.0215 -0.6199 -0.1017
18453TIP3    H276775   6.465   5.736  15.093  0.3843  2.6777 -1.5242
18454TIP3   OH276776   3.117   3.948   2.454 -0.4707 -0.3233  0.1317
18454TIP3    H176777   3.028   3.964   2.420 -0.4999  1.8621  1.0669
18454TIP3    H276778   3.175   3.982   2.385 -0.3914 -0.8092 -0.0400
18455TIP3   OH276779   1.089   5.324  13.665  0.0530 -0.0528 -0.2280
18455TIP3    H176780   1.120   5.248  13.715  0.8253  0.7178  0.4883
18455TIP3    H276781   1.148   5.328  13.590 -0.1641 -0.3267 -0.4139
18456TIP3   OH276782   6.015   4.743  16.066 -0.6688  0.4567 -0.0295
18456TIP3    H176783   5.967   4.737  16.149 -0.2369  2.5970  0.4139
18456TIP3    H276784   6.061   4.827  16.070  1.1633 -0.4043 -1.4996
18457TIP3   OH276785   1.867   3.835  16.112 -0.1912  0.0075  0.0245
18457TIP3    H176786   1.813   3.786  16.050 -0.4138 -0.0872  0.2904
18457TIP3    H276787   1.956   3.824  16.079 -0.2582 -0.4301 -0.0226
18458TIP3   OH276788   2.844   6.028  12.514  0.0947 -0.0714 -0.1976
18458TIP3    H176789   2.840   6.089  12.588 -1.2015  0.6237 -0.8192
18458TIP3    H276790   2.766   5.973  12.524  1.2092 -1.6271  0.3182
18459TIP3   OH276791   2.267   2.725  13.462  0.6723 -0.0031  0.3319
18459TIP3    H176792   2.305   2.715  13.375 -1.7975  0.4948 -0.8650
18459TIP3    H276793   2.246   2.818  13.469  0.1601 -0.1704  1.1493
18460TIP3   OH276794   0.400   0.539  15.505 -0.2091 -0.5463 -0.1666
18460TIP3    H176795   0.450   0.610  15.545  0.6736 -1.0120 -0.3945
18460TIP3    H276796   0.335   0.582  15.450  1.1634  0.1000 -1.3434
18461TIP3   OH276797   5.339   5.004   4.207 -0.2309  0.6446  0.0938
18461TIP3    H176798   5.263   5.027   4.154  0.2897  1.9359 -0.1364
18461TIP3    H276799   5.393   4.950   4.150 -0.9189 -0.2298  0.2396
18462TIP3   OH276800   2.182   2.272   2.586 -0.4127  0.7105 -0.0641
18462TIP3    H176801   2.262   2.221   2.570 -1.5557 -0.9060 -1.0434
18462TIP3    H276802   2.180   2.286   2.680  1.6340  1.8690 -0.1566
18463TIP3   OH276803   4.152   2.656   2.269  0.3929 -0.3683 -0.6219
18463TIP3    H176804   4.145   2.566   2.299 -0.8364 -0.2628 -0.5277
18463TIP3    H276805   4.083   2.665   2.203  1.1706  0.2178 -1.3766
18464TIP3   OH276806   5.763   6.634   4.869  0.1371  0.6128 -0.5146
18464TIP3    H176807   5.789   6.724   4.850 -0.8455  0.8786 -0.6424
18464TIP3    H276808   5.703   6.610   4.798  1.0241 -0.4446 -0.9483
18465TIP3   OH276809   3.401   0.003  11.639 -0.1974 -0.2036 -0.0719
18465TIP3    H176810   3.344  -0.001  11.716 -0.5580 -0.4494 -0.3478
18465TIP3    H276811   3.445  -0.082  11.637  0.1555 -0.0321  0.1148
18466TIP3   OH276812   2.539   2.818   1.070 -0.6966 -0.7126  0.0787
18466TIP3    H176813   2.473   2.815   1.139 -1.4821 -2.9837 -0.6620
18466TIP3    H276814   2.490   2.795   0.990  0.6163 -0.4268 -0.8384
18467TIP3   OH276815   4.394   3.300   3.583  0.4368 -0.0790  0.0478
18467TIP3    H176816   4.433   3.379   3.620 -1.4533  1.0857 -0.3392
18467TIP3    H276817   4.411   3.307   3.489 -1.1513  0.7490 -0.2050
18468TIP3   OH276818   2.660   4.253  14.076 -0.2325  0.2066 -0.1216
18468TIP3    H176819   2.632   4.275  13.987 -2.8773  0.1883  0.6003
18468TIP3    H276820   2.754   4.237  14.069 -0.3466  0.2694 -2.8809
18469TIP3   OH276821   3.347   2.705  16.765  0.0543 -0.3545 -0.0689
18469TIP3    H176822   3.363   2.631  16.706  1.7231 -0.2295  0.1684
18469TIP3    H276823   3.421   2.703  16.826 -0.5730  0.7315  0.7563
18470TIP3   OH276824   2.154   4.398  13.737 -0.1881  0.2201  0.2031
18470TIP3    H176825   2.241   4.380  13.702  0.0459 -0.4689  1.1035
18470TIP3    H276826   2.114   4.456  13.673  0.7686  0.1821 -0.4483
18471TIP3   OH276827   0.437   0.762  15.846 -0.5258  0.6689  0.1295
18471TIP3    H176828   0.375   0.690  15.839 -0.0179  0.3871 -2.6049
18471TIP3    H276829   0.502   0.732  15.910 -1.1003 -0.6936  0.1056
18472TIP3   OH276830   0.028   1.098  13.397  0.6427 -0.2637  0.5187
18472TIP3    H176831   0.082   1.168  13.434  0.6653 -0.2338  0.4302
18472TIP3    H276832  -0.029   1.070  13.469 -0.8263  1.2592  0.0137
18473TIP3   OH276833   3.818   0.361  11.856 -0.4385 -0.4318 -1.0380
18473TIP3    H176834   3.728   0.369  11.827 -1.1298 -2.0403  0.4949
18473TIP3    H276835   3.824   0.417  11.934 -0.1112 -0.3059 -1.1524
18474TIP3   OH276836   0.404   6.412  15.068 -0.0793  0.2287  0.0560
18474TIP3    H176837   0.337   6.395  15.002  0.9006  0.6231 -1.0760
18474TIP3    H276838   0.432   6.324  15.097 -1.7988  0.0505  1.3567
18475TIP3   OH276839   2.979   2.533  16.461  0.2648  0.1406  0.2445
18475TIP3    H176840   2.925   2.526  16.382  1.4917  1.6419 -0.7974
18475TIP3    H276841   2.917   2.552  16.531 -0.6770  0.9320 -0.7595
18476TIP3   OH276842   5.816   4.993   1.187  0.3639  0.3317  0.0142
18476TIP3    H176843   5.775   4.915   1.150 -0.9382  1.1511 -0.3794
18476TIP3    H276844   5.760   5.016   1.261 -0.0704  1.6318 -0.6848
18477TIP3   OH276845   4.851   4.665  13.967  0.2160  0.0228 -0.1001
18477TIP3    H176846   4.831   4.758  13.956  1.4608  0.4817  1.2312
18477TIP3    H276847   4.932   4.664  14.019  0.0086 -1.8071  0.2370
18478TIP3   OH276848   0.555   1.860  13.887 -0.5424 -0.2263  0.5694
18478TIP3    H176849   0.463   1.838  13.868 -0.2070 -1.4714  0.2861
18478TIP3    H276850   0.550   1.942  13.937 -1.7530  0.2383 -0.2439
18479TIP3   OH276851   2.779   6.003   2.488  0.6718  0.1460  0.2268
18479TIP3    H176852   2.735   6.052   2.558  1.5814  1.6485 -0.1995
18479TIP3    H276853   2.789   5.914   2.523  1.7900  1.0277  2.3459
18480TIP3   OH276854   5.101   3.846   0.485  0.8250  0.5547  0.4127
18480TIP3    H176855   5.184   3.876   0.523  0.8971  1.5335 -0.4748
18480TIP3    H276856   5.045   3.924   0.484  0.3202  0.1895 -0.1177
18481TIP3   OH276857   2.168   6.311   2.933  0.4100  0.0120 -0.2261
18481TIP3    H176858   2.207   6.234   2.974  2.7429  0.9075 -0.6136
18481TIP3    H276859   2.094   6.334   2.990  2.7109  0.4426  2.8349
18482TIP3   OH276860   2.376   5.411   6.121  0.1015 -0.2689  0.0244
18482TIP3    H176861   2.332   5.328   6.102 -0.7359  0.0239  0.6722
18482TIP3    H276862   2.344   5.471   6.053 -0.4913 -0.0578  0.4913
18483TIP3   OH276863   3.681   5.791   2.423 -0.4509 -1.0048 -0.0960
18483TIP3    H176864   3.716   5.772   2.510 -0.9137 -2.2794 -0.1726
18483TIP3    H276865   3.731   5.735   2.364  1.5396  1.5640 -1.0304
18484TIP3   OH276866   2.507   4.286  16.024 -0.0090  0.2686  0.1662
18484TIP3    H176867   2.552   4.241  16.096  1.0932 -3.4016 -2.4678
18484TIP3    H276868   2.564   4.360  16.003  1.5132 -0.6438  0.8683
18485TIP3   OH276869   4.705   6.730   0.852  1.0426  0.1674  0.2347
18485TIP3    H176870   4.779   6.681   0.890  1.6532  0.8249 -0.0921
18485TIP3    H276871   4.671   6.672   0.784  2.4679  0.6295 -0.9119
18486TIP3   OH276872   5.237   3.356  14.250 -0.1285 -0.1939  0.0331
18486TIP3    H176873   5.163   3.304  14.281 -0.1875 -0.1829 -0.0874
18486TIP3    H276874   5.206   3.447  14.255  0.7316  0.0351  2.3651
18487TIP3   OH276875   0.951   2.216   2.524 -0.5188 -0.4652 -0.3153
18487TIP3    H176876   0.921   2.160   2.596  0.4293 -0.8481 -0.2079
18487TIP3    H276877   1.022   2.167   2.483  1.0052  1.0209  0.3695
18488TIP3   OH276878   3.521   1.763  17.177 -0.1667 -0.1555  0.4620
18488TIP3    H176879   3.580   1.803  17.240  0.0826 -1.4073  1.0642
18488TIP3    H276880   3.578   1.731  17.107 -0.4688  1.4625 -0.5570
18489TIP3   OH276881   4.994   5.669  11.108 -0.2478 -0.3973 -0.0971
18489TIP3    H176882   4.998   5.656  11.013  1.5267 -0.6426 -0.0326
18489TIP3    H276883   4.919   5.726  11.122  1.3266  2.3804 -1.9970
18490TIP3   OH276884   5.951   4.934   5.200 -0.6651  0.5174 -0.7626
18490TIP3    H176885   5.889   4.869   5.232 -1.2741  0.9135 -1.1251
18490TIP3    H276886   5.899   4.995   5.148 -0.0158  0.9924 -0.8830
18491TIP3   OH276887   1.160   1.139  13.292 -0.0273  0.4406 -0.1403
18491TIP3    H176888   1.139   1.157  13.383  1.2439  2.0846 -0.1357
18491TIP3    H276889   1.202   1.053  13.294 -1.5382 -0.3147  0.5623
18492TIP3   OH276890   0.016   3.816   1.608  0.4295  0.0011  0.6679
18492TIP3    H176891  -0.069   3.787   1.642 -0.8167 -0.7670 -2.7091
18492TIP3    H276892   0.058   3.736   1.576  1.1661  0.7297 -0.2487
18493TIP3   OH276893   3.839   3.118   3.255 -0.5038 -0.7667  0.0598
18493TIP3    H176894   3.921   3.157   3.286 -2.1735  0.5215  3.3264
18493TIP3    H276895   3.818   3.051   3.320 -2.3069 -0.6714 -0.3813
18494TIP3   OH276896   5.675   3.565   2.507 -0.8024  0.2145  0.5011
18494TIP3    H176897   5.625   3.637   2.470 -0.5937 -0.0260 -0.2639
18494TIP3    H276898   5.610   3.513   2.555 -0.8445  1.2413  1.6198
18495TIP3   OH276899   6.316   5.330  17.216 -0.1381  0.3684  0.1584
18495TIP3    H176900   6.296   5.248  17.262 -0.0802  0.6297  0.6489
18495TIP3    H276901   6.243   5.341  17.155 -0.5939  0.3966  0.6973
18496TIP3   OH276902   3.875   6.490  12.995  1.2885 -0.0089 -0.0895
18496TIP3    H176903   3.961   6.453  13.013  0.1417 -2.4973  0.7434
18496TIP3    H276904   3.813   6.422  13.022 -0.9219  0.8177 -2.5778
18497TIP3   OH276905   5.377   3.433   5.057 -0.1528  0.2656  0.1051
18497TIP3    H176906   5.402   3.348   5.021 -1.5015 -0.2663  0.3758
18497TIP3    H276907   5.422   3.438   5.141  0.1234 -0.0660 -0.0206
18498TIP3   OH276908   6.530   6.236   5.602 -0.2044  0.0669 -0.3883
18498TIP3    H176909   6.512   6.315   5.653 -1.8551 -0.7578  0.3704
18498TIP3    H276910   6.527   6.164   5.665 -3.2843 -1.1025 -1.6660
18499TIP3   OH276911   3.065   2.326   1.469 -0.3601  0.1815 -0.1788
18499TIP3    H176912   2.990   2.354   1.417 -0.6628  1.0961  0.7386
18499TIP3    H276913   3.041   2.239   1.501  0.5918 -1.2980 -3.0511
18500TIP3   OH276914   4.021   2.382  14.721 -0.1469  0.2521  0.7141
18500TIP3    H176915   4.078   2.457  14.707 -0.2697  0.8160  2.8846
18500TIP3    H276916   4.079   2.306  14.717  0.6004  0.7392  1.7975
18501TIP3   OH276917   1.698   4.528   3.515 -0.0816 -0.3177 -0.7105
18501TIP3    H176918   1.689   4.477   3.596 -3.1635  0.4557 -0.4612
18501TIP3    H276919   1.781   4.575   3.526  0.9359 -2.2935  0.7301
18502TIP3   OH276920   0.587   2.774   2.979 -0.4172  0.2420  0.2636
18502TIP3    H176921   0.590   2.728   2.895 -1.0638  0.9065 -0.1299
18502TIP3    H276922   0.520   2.842   2.967 -0.9864 -0.0648  1.5149
18503TIP3   OH276923   5.278   5.084   0.515  0.1598 -0.3813 -0.8334
18503TIP3    H176924   5.234   5.112   0.434 -2.6558 -0.9546  0.3663
18503TIP3    H276925   5.232   5.132   0.584  1.1724 -1.3798  0.5827
18504TIP3   OH276926   5.992   0.314   4.682  0.7144 -0.5917 -0.0859
18504TIP3    H176927   6.076   0.269   4.690  1.2641  0.6249  1.3738
18504TIP3    H276928   6.013   0.396   4.638 -0.3533 -1.8115 -3.1640
18505TIP3   OH276929   5.360   2.010   3.104  0.4524  0.5423  0.3808
18505TIP3    H176930   5.441   2.017   3.154  1.1809 -0.3637 -0.6148
18505TIP3    H276931   5.336   1.918   3.109  0.0492  0.6099 -0.1820
18506TIP3   OH276932   6.648   4.843   5.028 -0.0321  0.3299  0.4805
18506TIP3    H176933   6.649   4.853   5.123  2.4383 -1.8833  0.7941
18506TIP3    H276934   6.575   4.783   5.011 -0.1542  0.3120  1.0441
18507TIP3   OH276935   0.732   3.668  11.344 -0.3952  0.0801 -0.1509
18507TIP3    H176936   0.819   3.697  11.316 -0.3765 -0.5233 -0.7565
18507TIP3    H276937   0.747   3.586  11.391 -0.6599 -0.2283 -0.5895
18508TIP3   OH276938   5.085   3.537  15.987  0.0444  0.6023 -0.1039
18508TIP3    H176939   5.103   3.606  16.050 -1.3199 -0.7444  1.8745
18508TIP3    H276940   5.137   3.462  16.017  0.9803  0.5013 -1.8130
18509TIP3   OH276941   4.495   4.783  15.546  0.9626  0.2748 -0.1498
18509TIP3    H176942   4.411   4.814  15.579  0.7916  0.7686 -1.0017
18509TIP3    H276943   4.479   4.693  15.518  0.6871  0.3996 -0.3973
18510TIP3   OH276944   4.874   5.736   5.029 -0.3128 -0.2283  0.5674
18510TIP3    H176945   4.936   5.714   4.959 -0.7138  0.3208  0.0292
18510TIP3    H276946   4.814   5.799   4.989 -0.8518 -0.2896  1.2634
18511TIP3   OH276947   5.873   6.126  15.585 -0.2094  0.3190  0.1632
18511TIP3    H176948   5.955   6.112  15.538 -0.2526 -0.0650  0.1996
18511TIP3    H276949   5.897   6.182  15.659 -0.4259  2.3686 -1.2194
18512TIP3   OH276950   1.928   1.683  16.402 -0.1646 -0.2665 -0.3189
18512TIP3    H176951   2.013   1.716  16.370  0.4855 -1.4207  0.1650
18512TIP3    H276952   1.899   1.750  16.464  1.2716 -0.6608  0.8555
18513TIP3   OH276953   2.747   4.047   4.843  0.0386  0.0649 -0.2175
18513TIP3    H176954   2.694   4.115   4.883  0.8858 -0.1098  1.2898
18513TIP3    H276955   2.838   4.074   4.861  0.4985  0.1355 -2.3374
18514TIP3   OH276956   2.002   4.693  13.491 -0.9384 -0.4587  0.0035
18514TIP3    H176957   2.011   4.721  13.582 -2.4410 -1.2167  0.4300
18514TIP3    H276958   1.989   4.775  13.442 -0.7779 -0.0904  0.5666
18515TIP3   OH276959   4.521   4.249  11.432 -0.3835  0.0611  0.1865
18515TIP3    H176960   4.459   4.192  11.477 -1.1010  0.3596 -0.4101
18515TIP3    H276961   4.580   4.189  11.386 -1.3835 -0.2245 -0.7704
18516TIP3   OH276962   5.959   6.530  14.493 -0.3952 -0.7674 -0.0442
18516TIP3    H176963   5.870   6.525  14.526 -0.3131 -0.8114  0.1714
18516TIP3    H276964   6.010   6.473  14.551 -0.2406 -0.7983 -0.2082
18517TIP3   OH276965   2.802   1.670   0.188  0.1228 -0.6328  0.2992
18517TIP3    H176966   2.855   1.637   0.261  1.6320 -1.5126 -1.1206
18517TIP3    H276967   2.812   1.765   0.193  0.2410 -0.6761  1.1957
18518TIP3   OH276968   3.998   2.641   1.400 -0.1453 -0.3622 -0.1380
18518TIP3    H176969   3.931   2.707   1.416  0.6722  0.5747 -0.4682
18518TIP3    H276970   4.015   2.603   1.486  2.1714  2.6251  0.9032
18519TIP3   OH276971   5.076   6.095  14.818  1.0443 -0.3036  0.8579
18519TIP3    H176972   5.003   6.089  14.755  1.1992  1.1254  0.4918
18519TIP3    H276973   5.040   6.060  14.899  0.0247  0.1033  0.6064
18520TIP3   OH276974   6.680   2.879   4.733 -0.0785  0.0153  0.0818
18520TIP3    H176975   6.712   2.798   4.693  2.9821  0.6091  1.0705
18520TIP3    H276976   6.676   2.859   4.827 -1.5314  0.3511  0.1008
18521TIP3   OH276977   3.907   0.024   1.108  0.0286  0.0715  0.4648
18521TIP3    H176978   3.882   0.021   1.015 -0.7745  3.1977  0.4414
18521TIP3    H276979   3.985   0.079   1.109  0.5231 -0.6353  1.5778
18522TIP3   OH276980   1.400   3.335  10.516 -0.6905  0.1320 -0.2339
18522TIP3    H176981   1.319   3.298  10.552 -0.9020 -1.2148 -1.9886
18522TIP3    H276982   1.383   3.429  10.513 -1.3132  0.1155  1.5040
18523TIP3   OH276983   1.363   5.112   1.450  0.0391  0.8334 -0.0790
18523TIP3    H176984   1.444   5.073   1.416  0.2801  0.2058  1.1683
18523TIP3    H276985   1.297   5.043   1.441 -0.1652  1.0612 -0.3353
18524TIP3   OH276986   2.661   0.515   4.269  0.8400 -0.5753  0.2890
18524TIP3    H176987   2.706   0.450   4.323  1.2865 -0.9355 -0.5065
18524TIP3    H276988   2.714   0.521   4.190  0.1939 -0.0466 -0.1062
18525TIP3   OH276989   3.567   1.635  14.362 -0.2723  0.3957  0.1541
18525TIP3    H176990   3.487   1.687  14.371  0.3795  1.0620  2.8044
18525TIP3    H276991   3.631   1.678  14.419  1.8328 -0.4696 -1.4161
18526TIP3   OH276992   4.965   0.668  15.046 -0.2264  0.5177  0.2462
18526TIP3    H176993   4.967   0.762  15.062  0.7216  0.4525  0.5727
18526TIP3    H276994   4.942   0.629  15.130  0.0636  0.4236  0.2832
18527TIP3   OH276995   1.950   2.608   3.173 -0.2419  0.1471 -0.2480
18527TIP3    H176996   2.015   2.643   3.234 -0.9194  0.4316  0.3275
18527TIP3    H276997   1.980   2.636   3.086 -0.0588  1.0172  0.0894
18528TIP3   OH276998   1.279   3.641  14.710  0.0839  0.1949 -0.0785
18528TIP3    H176999   1.361   3.667  14.667 -1.3166  1.5579 -2.0779
18528TIP3    H277000   1.281   3.545  14.709  1.1925  0.1976 -1.0204
18529TIP3   OH277001   4.315   3.319  14.033 -0.2461 -0.0062  0.1902
18529TIP3    H177002   4.382   3.358  14.089 -0.7373  1.9051 -0.4638
18529TIP3    H277003   4.363   3.260  13.975  0.6935  0.3377  0.6104
18530TIP3   OH277004   2.614   6.423   4.074  0.4581  0.2813 -0.4101
18530TIP3    H177005   2.551   6.485   4.111 -1.7468 -1.2395 -1.3726
18530TIP3    H277006   2.598   6.426   3.980  3.6529  1.6397 -1.0303
18531TIP3   OH277007   5.621   1.191  10.878  0.1596  0.0210 -0.4466
18531TIP3    H177008   5.596   1.120  10.818 -0.7564  0.0383 -0.1027
18531TIP3    H277009   5.716   1.183  10.885  0.0367 -1.4952 -0.0410
18532TIP3   OH277010   2.800   5.612   6.812 -0.3565 -0.2038 -0.3734
18532TIP3    H177011   2.878   5.582   6.765  0.5468  0.7910  0.4581
18532TIP3    H277012   2.782   5.699   6.776  1.2995  1.2887  2.1079
18533TIP3   OH277013   1.968   4.802  12.279 -0.4470 -0.6427  0.8162
18533TIP3    H177014   2.004   4.771  12.196 -0.8144 -0.3157  0.5281
18533TIP3    H277015   2.043   4.807  12.338  0.2683  1.4432 -0.1728
18534TIP3   OH277016   2.174   0.839  12.534 -0.6526  1.2380  0.4481
18534TIP3    H177017   2.080   0.832  12.517 -0.1439 -1.6232 -1.9813
18534TIP3    H277018   2.185   0.808  12.623 -1.7652 -1.7032 -0.3378
18535TIP3   OH277019   5.276   1.596   2.047  0.5626 -0.2406  0.3422
18535TIP3    H177020   5.245   1.685   2.062 -0.8471 -0.6597  0.1021
18535TIP3    H277021   5.334   1.603   1.971 -0.1630  0.3648 -0.1688
18536TIP3   OH277022   3.676   2.406  13.418  0.4197 -0.0559  0.8589
18536TIP3    H177023   3.633   2.369  13.495 -0.5751 -0.5966  0.0599
18536TIP3    H277024   3.769   2.407  13.442  0.1673 -0.5100  1.9440
18537TIP3   OH277025   2.872   2.050  12.147 -0.6146  0.3826 -0.2912
18537TIP3    H177026   2.954   2.028  12.103 -1.8152 -2.3506 -1.3806
18537TIP3    H277027   2.852   2.138  12.116  0.5693  0.0736 -2.1260
18538TIP3   OH277028   3.783   3.305  16.742 -0.1162 -0.1137 -0.3966
18538TIP3    H177029   3.802   3.396  16.762  0.2012  0.1502 -1.7896
18538TIP3    H277030   3.855   3.256  16.780 -0.5078  0.1489  0.7372
18539TIP3   OH277031   3.072   1.849   2.108  0.2909 -0.0600 -0.3842
18539TIP3    H177032   3.097   1.794   2.033 -1.0965  0.3380 -1.1860
18539TIP3    H277033   3.079   1.791   2.184 -0.6526 -1.2416 -1.1496
18540TIP3   OH277034   1.147   4.744   3.472 -0.3740  0.0868 -0.5226
18540TIP3    H177035   1.059   4.706   3.478 -0.1895 -0.4754 -1.2414
18540TIP3    H277036   1.132   4.834   3.441 -0.6681 -0.1727 -1.1453
18541TIP3   OH277037   3.110   6.743  15.004 -0.1753 -0.0677  0.0744
18541TIP3    H177038   3.162   6.677  14.957 -1.2391 -0.0209 -1.2302
18541TIP3    H277039   3.154   6.752  15.089  2.2503  0.3710 -1.1530
18542TIP3   OH277040   5.903   2.381  15.273 -0.2200 -0.6097  0.6908
18542TIP3    H177041   5.874   2.316  15.209 -1.1138  0.9464 -0.5677
18542TIP3    H277042   5.867   2.351  15.356  1.6633 -3.1403  0.7279
18543TIP3   OH277043   5.115   5.203  15.314 -0.2585  0.0316  0.6016
18543TIP3    H177044   5.104   5.296  15.294 -0.2353 -0.2604 -0.8845
18543TIP3    H277045   5.032   5.177  15.354 -1.7196 -0.0715 -2.2363
18544TIP3   OH277046   3.929   5.933   1.347  0.0880 -0.3711  0.2365
18544TIP3    H177047   3.956   5.846   1.378 -0.3123  0.0413  1.8096
18544TIP3    H277048   3.995   5.955   1.281  0.9664 -1.3212  0.7498
18545TIP3   OH277049   0.874   0.254  14.223  0.5126  0.3569 -0.4644
18545TIP3    H177050   0.908   0.248  14.134  0.0352  1.9812 -0.7924
18545TIP3    H277051   0.949   0.281  14.276  1.0382 -1.5786 -0.1667
18546TIP3   OH277052   6.557   2.557   3.123  0.0732 -0.2268  0.0958
18546TIP3    H177053   6.545   2.465   3.148 -0.6383  0.1623  1.2082
18546TIP3    H277054   6.496   2.570   3.050 -0.6188 -0.3616  0.6395
18547TIP3   OH277055   5.225   4.717   0.304  0.1983 -0.2635 -0.1438
18547TIP3    H177056   5.133   4.708   0.327 -0.2624  1.7369 -0.9469
18547TIP3    H277057   5.229   4.796   0.250  2.3517 -0.4317 -0.3499
18548TIP3   OH277058   2.855   0.649  13.522  0.1371  0.3735  0.6630
18548TIP3    H177059   2.894   0.692  13.598 -0.7303  0.9277  0.7978
18548TIP3    H277060   2.849   0.718  13.456  1.3153 -0.2127 -0.0824
18549TIP3   OH277061   3.512   3.648  11.314  0.1762 -0.6861  0.3874
18549TIP3    H177062   3.442   3.672  11.253  1.2416  0.5189 -0.3979
18549TIP3    H277063   3.573   3.595  11.262  0.7331 -0.2455  0.5826
18550TIP3   OH277064   1.396   1.123   5.555 -0.7148 -0.0133 -0.1056
18550TIP3    H177065   1.351   1.074   5.624 -0.6713 -0.6968 -0.5569
18550TIP3    H277066   1.346   1.104   5.475 -2.2928  2.7389  0.0881
18551TIP3   OH277067   6.321   0.720   2.856 -0.4930 -0.7199 -0.2234
18551TIP3    H177068   6.325   0.747   2.764  1.6068 -0.3067 -0.0621
18551TIP3    H277069   6.292   0.798   2.902  0.7987 -0.1764 -0.2976
18552TIP3   OH277070   0.957   6.579  16.304 -0.8148  0.1321 -0.0480
18552TIP3    H177071   0.914   6.656  16.340 -0.6335 -0.1099  0.7104
18552TIP3    H277072   0.887   6.516  16.291 -1.0645  0.6463 -1.3069
18553TIP3   OH277073   3.590   4.423  12.825  0.2353  0.5043  0.1433
18553TIP3    H177074   3.613   4.382  12.741 -0.4933 -0.2155  0.2811
18553TIP3    H277075   3.674   4.436  12.868  0.4715 -2.0506  0.6162
18554TIP3   OH277076   0.873   1.166   1.588  0.4606  0.5661 -0.1944
18554TIP3    H177077   0.818   1.244   1.583 -0.3134 -0.0133 -0.9672
18554TIP3    H277078   0.931   1.182   1.662  1.7141  2.7842 -1.5340
18555TIP3   OH277079   6.104   4.311  14.865  0.3565 -0.2683  0.8236
18555TIP3    H177080   6.068   4.336  14.950  1.4309  1.1668  0.9088
18555TIP3    H277081   6.103   4.392  14.814  0.7080 -0.8665 -0.1628
18556TIP3   OH277082   5.512   5.541   4.708  0.0947 -0.5381 -0.4674
18556TIP3    H177083   5.537   5.450   4.723  0.4047 -0.4208 -0.2839
18556TIP3    H277084   5.535   5.587   4.788  1.2123 -0.0301 -1.0614
18557TIP3   OH277085   6.110   1.962   1.180  0.7146  0.3446  0.0859
18557TIP3    H177086   6.121   2.029   1.248  1.2810 -1.1388  1.5337
18557TIP3    H277087   6.019   1.971   1.152  0.2612  0.5660  1.5428
18558TIP3   OH277088   1.110   4.369   0.622 -0.0673  0.1361  0.0935
18558TIP3    H177089   1.059   4.438   0.664  1.5711  0.8471  1.0193
18558TIP3    H277090   1.123   4.401   0.532  0.6092  1.0442  0.4892
18559TIP3   OH277091   5.547   3.652   1.043  0.3880 -0.8979  0.1651
18559TIP3    H177092   5.566   3.659   0.950  0.7286 -1.4326  0.1872
18559TIP3    H277093   5.531   3.559   1.057 -1.3644 -0.6075  0.3277
18560TIP3   OH277094   1.288   6.435  12.576 -0.3907 -0.7579  0.3807
18560TIP3    H177095   1.263   6.414  12.486 -0.3187  2.7132 -0.6010
18560TIP3    H277096   1.210   6.475  12.614  0.6219  1.2092  0.5401
18561TIP3   OH277097   1.245   0.648  15.482 -0.0782 -0.1577 -0.3715
18561TIP3    H177098   1.236   0.742  15.466 -1.3259  0.4359  3.0073
18561TIP3    H277099   1.156   0.614  15.476 -0.0225 -0.5924  0.9868
18562TIP3   OH277100   5.807   1.921  11.216 -0.1411  0.2783  0.2434
18562TIP3    H177101   5.725   1.873  11.208 -0.7872  1.5821 -1.9486
18562TIP3    H277102   5.858   1.896  11.139 -0.2957  2.5960 -0.7072
18563TIP3   OH277103   1.415   3.573  16.002  0.4818 -0.0637  0.2266
18563TIP3    H177104   1.496   3.624  16.007 -0.3483  1.4755 -0.9756
18563TIP3    H277105   1.356   3.617  16.063 -0.4092  0.8035 -1.2015
18564TIP3   OH277106   4.508   6.031   2.207  0.0798 -0.3115  0.1173
18564TIP3    H177107   4.437   6.002   2.149 -0.0683  0.6449 -0.1936
18564TIP3    H277108   4.527   6.121   2.179  0.5801 -0.1276  1.0069
18565TIP3   OH277109   2.848   5.065   0.177  0.2376  0.5389  0.4856
18565TIP3    H177110   2.764   5.035   0.211  0.2735  0.3194  0.3791
18565TIP3    H277111   2.851   5.158   0.200 -0.5878  0.8499 -0.6059
18566TIP3   OH277112   4.265   2.609  12.321  0.1111 -0.3416 -0.5530
18566TIP3    H177113   4.341   2.582  12.269 -1.4548 -1.3085 -2.4869
18566TIP3    H277114   4.204   2.535  12.314 -0.7313  0.0589  1.6176
18567TIP3   OH277115   5.506   3.424  14.162 -0.1285  0.1341 -0.0490
18567TIP3    H177116   5.493   3.409  14.068  1.6736 -2.0013 -0.0440
18567TIP3    H277117   5.426   3.390  14.203 -0.9505  1.1255 -0.7691
18568TIP3   OH277118   3.244   1.446   1.583  0.3271  0.0584  0.1250
18568TIP3    H177119   3.280   1.535   1.586  1.5335 -0.4079  3.1145
18568TIP3    H277120   3.181   1.443   1.655 -0.9909 -1.0569 -1.0147
18569TIP3   OH277121   5.905   2.294   1.137 -0.2896 -0.1637 -0.0556
18569TIP3    H177122   5.900   2.389   1.138  1.1991 -0.0613 -0.4118
18569TIP3    H277123   5.930   2.272   1.047 -2.5326 -1.0350 -0.5287
18570TIP3   OH277124   1.755   3.784  14.895  0.2021 -0.1439 -0.0001
18570TIP3    H177125   1.823   3.718  14.905 -1.1153 -1.9283 -2.0595
18570TIP3    H277126   1.795   3.851  14.840  0.6532 -0.5779 -0.2059
18571TIP3   OH277127   0.796   1.327  15.186 -0.6960  0.2526  0.9352
18571TIP3    H177128   0.828   1.246  15.225  0.3165 -0.3771 -1.0486
18571TIP3    H277129   0.701   1.319  15.186 -0.7076  0.0777  2.7482
18572TIP3   OH277130   5.103   3.363   5.071  0.8438  0.0505 -0.2395
18572TIP3    H177131   5.192   3.397   5.076  2.8550 -4.6114  1.6962
18572TIP3    H277132   5.097   3.322   4.985 -0.4297  2.2448 -1.2932
18573TIP3   OH277133   5.673   2.423  16.613  0.5213 -0.2580  0.1704
18573TIP3    H177134   5.757   2.380  16.597 -0.8856 -2.2178 -3.1445
18573TIP3    H277135   5.618   2.355  16.653 -0.6168 -0.4469 -1.5865
18574TIP3   OH277136   4.022   2.041  16.874  0.6219 -0.1058  0.0112
18574TIP3    H177137   4.022   2.121  16.927  0.4372  0.4801 -0.8572
18574TIP3    H277138   3.929   2.017  16.869  0.6426 -0.1783 -0.0162
18575TIP3   OH277139   5.522   1.428  17.029 -0.4987  0.3776 -0.0186
18575TIP3    H177140   5.554   1.419  16.940 -1.6086 -0.1307 -0.3894
18575TIP3    H277141   5.429   1.448  17.019 -0.2724  2.1711  1.0046
18576TIP3   OH277142   5.644   3.443  16.014 -0.4723  0.0956 -0.6408
18576TIP3    H177143   5.722   3.413  16.061  0.0570  0.1306 -1.4783
18576TIP3    H277144   5.678   3.505  15.949 -1.2515  0.4262 -0.7433
18577TIP3   OH277145   1.174   5.589   0.891 -0.0293  0.3374  0.4948
18577TIP3    H177146   1.130   5.582   0.807  0.7652 -1.9107  0.1854
18577TIP3    H277147   1.261   5.622   0.870  0.7167 -1.7076  0.1602
18578TIP3   OH277148   0.643   5.599  14.065 -0.1161  1.0252 -0.2002
18578TIP3    H177149   0.548   5.615  14.069 -0.1404  1.1389 -1.1189
18578TIP3    H277150   0.651   5.513  14.024  0.2070  1.4095 -0.9486
18579TIP3   OH277151   3.732   2.580   3.344  0.5393 -0.4517  0.1006
18579TIP3    H177152   3.706   2.617   3.260  1.0366 -1.2340 -0.4072
18579TIP3    H277153   3.663   2.517   3.365 -0.0633  0.3821  0.7418
18580TIP3   OH277154   2.004   5.674  15.660  0.0427  0.2171  0.4144
18580TIP3    H177155   2.052   5.746  15.619  0.5477 -0.2051  0.2539
18580TIP3    H277156   2.071   5.625  15.708 -0.1546 -0.5857 -0.1006
18581TIP3   OH277157   3.128   2.172  12.732 -0.5925  0.1428  0.2154
18581TIP3    H177158   3.138   2.087  12.689 -0.2193  0.0832  0.4196
18581TIP3    H277159   3.139   2.154  12.825 -2.5306  0.0880  0.4646
18582TIP3   OH277160   2.573   3.414   0.920  0.5201  0.2503  0.7481
18582TIP3    H177161   2.537   3.501   0.904  2.1985  0.6832 -1.1170
18582TIP3    H277162   2.608   3.419   1.009 -0.2415  1.1442  1.0231
18583TIP3   OH277163   2.781   6.583   3.647 -0.1038 -0.5045 -0.1858
18583TIP3    H177164   2.704   6.526   3.650 -1.0651  0.7706  1.0568
18583TIP3    H277165   2.811   6.587   3.738 -0.1837  1.0624 -0.1914
18584TIP3   OH277166   2.415   5.446  14.224  0.0848 -0.1700 -0.4058
18584TIP3    H177167   2.510   5.452  14.233  0.0860 -0.3444 -0.2888
18584TIP3    H277168   2.388   5.534  14.200  0.2842 -0.1360 -0.5097
18585TIP3   OH277169   0.643   4.742  13.510 -0.3777  0.3160 -0.3438
18585TIP3    H177170   0.736   4.718  13.517 -0.6056 -0.3150  0.8225
18585TIP3    H277171   0.604   4.710  13.591 -1.7119  0.2126 -1.0009
18586TIP3   OH277172   5.009   0.248  14.605 -0.4123  0.0209 -0.4526
18586TIP3    H177173   5.013   0.314  14.536  0.4823 -0.2750 -0.6843
18586TIP3    H277174   5.008   0.299  14.686 -0.0182  0.3250 -0.6367
18587TIP3   OH277175   2.453   2.561   1.297 -0.6443  0.3878 -0.3589
18587TIP3    H177176   2.489   2.616   1.366  0.1027  1.2487 -1.3899
18587TIP3    H277177   2.360   2.551   1.319 -0.8060  2.0733 -0.1320
18588TIP3   OH277178   5.629   2.740   2.508 -0.2201  0.1173 -0.0574
18588TIP3    H177179   5.624   2.836   2.503  1.8396  0.3558  1.2552
18588TIP3    H277180   5.658   2.723   2.597 -0.6758 -1.7666 -0.2417
18589TIP3   OH277181   5.479   3.629   6.091  0.0524  0.5049 -0.3588
18589TIP3    H177182   5.460   3.637   6.184 -0.0442  0.5269 -0.3806
18589TIP3    H277183   5.499   3.718   6.062  0.1191  0.4927 -0.3518
18590TIP3   OH277184   6.589   4.257   0.266  0.1060 -0.3943 -0.3874
18590TIP3    H177185   6.657   4.275   0.332  0.2027  0.6999 -0.7534
18590TIP3    H277186   6.638   4.244   0.185 -0.1193  1.5894 -0.9050
18591TIP3   OH277187   0.825   0.403   1.453  0.1318 -0.0566  0.8665
18591TIP3    H177188   0.808   0.497   1.448  0.0334 -0.0639  1.0605
18591TIP3    H277189   0.768   0.365   1.386  0.5512  0.0711  0.4365
18592TIP3   OH277190   0.315   3.608  12.047  0.1791 -0.1395  0.1890
18592TIP3    H177191   0.384   3.672  12.030  0.0172  0.5578  2.0269
18592TIP3    H277192   0.340   3.532  11.993  1.4190  0.7322 -0.5172
18593TIP3   OH277193   6.053   1.190  11.091  0.6468  0.1863 -0.1898
18593TIP3    H177194   6.102   1.242  11.028  0.4785  2.3382  1.3420
18593TIP3    H277195   6.109   1.187  11.168 -0.0241 -0.6192  0.2888
18594TIP3   OH277196   0.537   3.981  11.686  0.4129  0.5062 -0.0356
18594TIP3    H177197   0.623   3.945  11.663  0.4521  0.6843 -0.1731
18594TIP3    H277198   0.546   4.008  11.777  1.1370  2.3698 -0.6087
18595TIP3   OH277199   3.438   0.986  12.760 -0.6971  0.3200 -0.3614
18595TIP3    H177200   3.380   0.926  12.809 -0.9020  1.2935  0.6439
18595TIP3    H277201   3.526   0.956  12.781 -0.8016 -0.6404 -1.2087
18596TIP3   OH277202   5.840   3.863  11.967  0.7955 -0.0431  0.2613
18596TIP3    H177203   5.899   3.935  11.945  0.0144  0.8981  1.1431
18596TIP3    H277204   5.898   3.788  11.981  1.5835  0.2641 -1.1742
18597TIP3   OH277205   1.833   2.100  17.002 -0.2860 -0.7110 -0.1527
18597TIP3    H177206   1.777   2.177  17.010  0.6301  0.2336 -2.0569
18597TIP3    H277207   1.778   2.027  17.031 -1.4351  0.5407  0.9631
18598TIP3   OH277208   2.191   4.147  13.362 -0.5448 -0.0605 -0.4497
18598TIP3    H177209   2.258   4.079  13.359  1.3984  1.6089  1.5664
18598TIP3    H277210   2.209   4.201  13.285 -0.5247 -0.4378 -0.7119
18599TIP3   OH277211   6.373   6.510   4.109  0.0206  0.1453  0.1047
18599TIP3    H177212   6.463   6.515   4.140  1.4252 -2.6960 -2.9673
18599TIP3    H277213   6.368   6.575   4.039 -0.0754 -0.2210 -0.2310
18600TIP3   OH277214   2.274   1.692  13.948  0.5717  0.1063  0.5104
18600TIP3    H177215   2.232   1.778  13.946 -0.4886 -0.4181 -1.1184
18600TIP3    H277216   2.271   1.661  13.858  0.0218 -2.0721  1.2157
18601TIP3   OH277217   2.821   6.190  13.442  0.3420 -0.1639 -0.1791
18601TIP3    H177218   2.732   6.166  13.466  0.2340 -1.2758 -1.5433
18601TIP3    H277219   2.825   6.285  13.455 -0.1425 -0.4510  2.5548
18602TIP3   OH277220   3.527   3.854   5.389 -0.0116 -0.5637  0.6940
18602TIP3    H177221   3.478   3.910   5.328  0.1828 -0.2735  0.8021
18602TIP3    H277222   3.476   3.773   5.393  0.2783 -0.8083 -0.3102
18603TIP3   OH277223   4.975   3.481   0.258 -0.3883 -0.4260  0.3648
18603TIP3    H177224   4.882   3.481   0.278 -0.4143  1.0576  0.3475
18603TIP3    H277225   4.988   3.402   0.206 -2.2081  0.7124 -2.0383
18604TIP3   OH277226   2.118   0.851   5.528 -0.3657 -0.0742  0.4272
18604TIP3    H177227   2.154   0.899   5.602 -0.1123 -0.9456  0.8870
18604TIP3    H277228   2.123   0.759   5.554  0.0752 -0.4302 -0.8156
18605TIP3   OH277229   5.595   1.681   1.316 -1.0329  0.7524  0.2821
18605TIP3    H177230   5.632   1.770   1.315 -0.0922  0.3765 -0.9171
18605TIP3    H277231   5.637   1.637   1.242  1.8270 -2.0100  3.2155
18606TIP3   OH277232   6.377   1.610  15.335  0.4497 -0.0709  0.3545
18606TIP3    H177233   6.320   1.587  15.261 -0.7945 -0.6063  1.4529
18606TIP3    H277234   6.464   1.618  15.296  0.0176 -1.4411 -0.9950
18607TIP3   OH277235   4.904   2.025  14.419 -0.7726  0.3589 -0.2586
18607TIP3    H177236   4.987   2.070  14.436 -0.6832  0.6845 -1.4619
18607TIP3    H277237   4.911   1.943  14.467  0.7594 -0.1571 -1.2900
18608TIP3   OH277238   0.818   2.681  15.417  0.2431  0.3592  0.0780
18608TIP3    H177239   0.746   2.743  15.406 -0.6053 -0.7999 -1.3433
18608TIP3    H277240   0.897   2.731  15.397 -0.2490  1.4025  0.7065
18609TIP3   OH277241   2.310   2.068   1.170  0.2267  0.1576 -0.1089
18609TIP3    H177242   2.288   2.094   1.080 -1.5897  0.1683  0.2888
18609TIP3    H277243   2.265   2.132   1.225 -0.3713 -1.0205  0.8180
18610TIP3   OH277244   2.295   2.389   6.068  0.4271 -0.5493 -0.5174
18610TIP3    H177245   2.217   2.434   6.099 -0.5332 -1.8097 -1.0107
18610TIP3    H277246   2.365   2.417   6.127 -0.2097  1.2230 -0.5574
18611TIP3   OH277247   3.024   0.848   3.474 -0.2372  0.1545 -0.4351
18611TIP3    H177248   2.965   0.919   3.499  0.3623  0.4572  0.1505
18611TIP3    H277249   2.976   0.768   3.496  0.0793  0.4010  1.3092
18612TIP3   OH277250   0.271   1.534  13.639 -0.2986  0.6074 -0.5219
18612TIP3    H177251   0.356   1.525  13.683 -0.3587  0.6435 -0.3998
18612TIP3    H277252   0.294   1.565  13.551 -0.2721  2.0558 -0.0262
18613TIP3   OH277253   4.864   4.313   6.334 -0.0295  0.3933  0.8338
18613TIP3    H177254   4.956   4.302   6.313 -0.4057 -0.3388 -0.5344
18613TIP3    H277255   4.863   4.348   6.423  1.5515  0.2306  0.9272
18614TIP3   OH277256   5.081   4.402   1.681 -0.2428 -0.7152  0.8101
18614TIP3    H177257   5.106   4.334   1.618  0.4291  0.2228  0.0290
18614TIP3    H277258   5.152   4.466   1.676 -2.2883  1.6321 -0.8297
18615TIP3   OH277259   1.174   1.335  15.313  0.0031 -0.6191  0.0337
18615TIP3    H177260   1.156   1.421  15.350 -0.6003 -1.2824  1.3631
18615TIP3    H277261   1.165   1.346  15.218 -2.4444  0.2495  0.3027
18616TIP3   OH277262   4.168   6.056  15.975 -0.5939  0.5989 -0.0472
18616TIP3    H177263   4.218   5.978  15.998 -0.1639  1.2147  1.2152
18616TIP3    H277264   4.227   6.107  15.920 -0.1680  0.8606  0.6291
18617TIP3   OH277265   0.991   6.683   1.337 -0.0905 -0.3435 -0.1175
18617TIP3    H177266   0.957   6.769   1.362 -1.1595 -0.7174 -0.1937
18617TIP3    H277267   0.951   6.623   1.401  1.2016 -0.7078  0.3782
18618TIP3   OH277268   3.341   5.334  16.134 -0.2883  0.2743  0.0768
18618TIP3    H177269   3.325   5.425  16.113 -2.4344 -0.1064 -0.1666
18618TIP3    H277270   3.324   5.327  16.229  0.9645  0.3274  0.3188
18619TIP3   OH277271   2.944   4.138  15.532  0.0209  0.0357  0.4477
18619TIP3    H177272   2.880   4.168  15.468  1.3642  4.7739  0.9115
18619TIP3    H277273   3.013   4.097  15.479 -0.9284 -0.2340 -0.6125
18620TIP3   OH277274   4.403   1.026  13.965 -0.6055  0.0937 -0.0820
18620TIP3    H177275   4.321   1.059  13.929  0.6636  1.8012 -1.6128
18620TIP3    H277276   4.428   1.091  14.030 -1.2230 -1.2804  1.6156
18621TIP3   OH277277   2.083   5.941  13.539  0.2085  0.2398 -0.1178
18621TIP3    H177278   1.988   5.945  13.546  0.3385  2.4377  1.5152
18621TIP3    H277279   2.107   6.019  13.488  1.1991  0.6567  0.9358
18622TIP3   OH277280   6.509   1.611   0.735 -0.3075 -0.0617 -0.0658
18622TIP3    H177281   6.420   1.624   0.767 -1.1650 -1.7424 -1.5670
18622TIP3    H277282   6.533   1.694   0.693 -1.4748  0.1480 -0.3400
18623TIP3   OH277283   4.693   6.295  17.002  0.6353  0.4058 -0.1918
18623TIP3    H177284   4.661   6.361  17.064 -1.3360  1.0072 -1.7319
18623TIP3    H277285   4.788   6.302  17.007  0.5110  1.5595  1.5486
18624TIP3   OH277286   4.729   4.486  12.600  0.2073 -0.3894  0.4049
18624TIP3    H177287   4.755   4.564  12.648  0.2133  0.5542 -1.0590
18624TIP3    H277288   4.724   4.514  12.509 -2.8737 -1.2818  0.1722
18625TIP3   OH277289   2.388   4.290  14.729 -0.3013 -0.1180  0.0449
18625TIP3    H177290   2.371   4.384  14.722 -1.2319 -0.2063  0.8917
18625TIP3    H277291   2.310   4.255  14.771  0.2982 -1.1818  0.2995
18626TIP3   OH277292   0.020   3.031   3.387 -0.0096  0.2377  0.4819
18626TIP3    H177293   0.093   3.033   3.325 -0.1347  0.4921  0.3410
18626TIP3    H277294  -0.036   3.104   3.360 -0.5832 -0.2730  0.2540
18627TIP3   OH277295   5.217   5.639  11.285 -0.2167 -0.2143 -0.2522
18627TIP3    H177296   5.202   5.551  11.320 -0.8337 -0.9558 -2.2564
18627TIP3    H277297   5.152   5.650  11.216  1.0113  1.1074 -1.2732
18628TIP3   OH277298   3.659   2.050   6.268  0.1177 -0.0187 -0.1935
18628TIP3    H177299   3.691   2.039   6.179 -0.7123  2.8936 -0.9623
18628TIP3    H277300   3.577   2.098   6.259 -1.2422 -1.6936  2.0619
18629TIP3   OH277301   3.800   1.995  14.417 -0.2164 -0.0830 -0.0535
18629TIP3    H177302   3.847   1.995  14.333 -0.7962  1.2156 -0.4092
18629TIP3    H277303   3.839   2.069  14.465 -1.1860  0.3737  0.0454
18630TIP3   OH277304   2.604   3.580   3.038  0.1415 -0.4757  0.3223
18630TIP3    H177305   2.596   3.587   2.942  0.4004 -0.5017  0.2978
18630TIP3    H277306   2.623   3.488   3.053  0.9178 -0.3145  0.3390
18631TIP3   OH277307   5.903   1.278   0.598 -0.5258 -0.8584 -0.2394
18631TIP3    H177308   5.965   1.250   0.666 -1.4508  1.2509  1.6025
18631TIP3    H277309   5.941   1.359   0.563 -2.6408  1.1989  1.8080
18632TIP3   OH277310   3.217   4.863   4.747  0.2900  0.6582  0.3850
18632TIP3    H177311   3.271   4.790   4.717  1.1390  2.0699 -1.8182
18632TIP3    H277312   3.136   4.856   4.697  0.1772  0.9535  0.5206
18633TIP3   OH277313   1.076   6.681   5.778 -0.2877  0.4765 -0.3516
18633TIP3    H177314   1.028   6.686   5.860  0.3153  0.8426 -0.0158
18633TIP3    H277315   1.111   6.592   5.776 -0.2437  0.4894 -0.1731
18634TIP3   OH277316   4.103   6.622   1.015  0.1941  0.2586 -0.3925
18634TIP3    H177317   4.030   6.590   1.068  0.1502  0.1154 -0.5396
18634TIP3    H277318   4.124   6.549   0.957  0.4017  0.3281 -0.4060
18635TIP3   OH277319   3.211   0.252  12.912  1.1139  0.1701 -0.2046
18635TIP3    H177320   3.218   0.203  12.994  0.0112  0.4442  0.0769
18635TIP3    H277321   3.233   0.342  12.936 -0.6048  0.5395  0.1415
18636TIP3   OH277322   1.731   4.757  13.125 -0.1067  0.0461  0.2521
18636TIP3    H177323   1.653   4.761  13.180  0.9036  2.6465  1.6241
18636TIP3    H277324   1.745   4.847  13.095  1.7133 -0.5722 -0.9448
18637TIP3   OH277325   1.038   5.405  14.971 -0.0779  0.5244 -0.3498
18637TIP3    H177326   1.028   5.378  14.880 -1.0511  1.4165 -0.5292
18637TIP3    H277327   0.972   5.474  14.983 -0.9238 -0.4971  1.4059
18638TIP3   OH277328   2.690   2.559   1.119  0.0696 -0.3473 -0.0863
18638TIP3    H177329   2.626   2.629   1.114 -0.2033 -0.5076  0.8949
18638TIP3    H277330   2.637   2.479   1.130  0.4137 -0.5494  0.1217
18639TIP3   OH277331   6.114   1.272   0.178 -0.1125 -0.7845  0.4327
18639TIP3    H177332   6.078   1.342   0.122  3.6568 -0.2716 -1.7288
18639TIP3    H277333   6.098   1.192   0.129  0.1813 -0.7463  0.2676
18640TIP3   OH277334   3.289   1.381   4.052 -0.5847 -0.4733  0.0002
18640TIP3    H177335   3.239   1.400   4.131  1.0787  1.2067  0.6985
18640TIP3    H277336   3.288   1.285   4.046  0.9099 -0.8175  3.2113
18641TIP3   OH277337   0.903   6.688   5.996  0.7846  0.1255  0.0328
18641TIP3    H177338   0.819   6.725   6.022  0.9103 -0.7099  1.8193
18641TIP3    H277339   0.893   6.594   6.010  1.9386 -0.0064  0.0876
18642TIP3   OH277340   0.847   6.201  15.737  0.1569 -0.2101  0.1308
18642TIP3    H177341   0.767   6.241  15.770  1.0867  1.7388  0.1592
18642TIP3    H277342   0.917   6.257  15.769  1.4181 -0.8548 -1.3718
18643TIP3   OH277343   1.598   1.957   1.189  0.4790  0.0950 -0.4232
18643TIP3    H177344   1.558   1.911   1.262 -1.7716 -0.8923 -2.1424
18643TIP3    H277345   1.548   2.039   1.181 -0.2861 -0.4610 -1.6791
18644TIP3   OH277346   5.877   4.522   3.586 -0.3183  0.3476 -0.4450
18644TIP3    H177347   5.829   4.565   3.515 -0.6897 -0.2258 -0.5560
18644TIP3    H277348   5.890   4.432   3.554  0.9055  0.5134 -0.4481
18645TIP3   OH277349   1.767   6.048   0.120 -0.0464  0.0028 -0.0228
18645TIP3    H177350   1.767   6.038   0.215  0.1391 -0.9965 -0.1198
18645TIP3    H277351   1.858   6.035   0.095  0.3660  2.5988 -0.1323
18646TIP3   OH277352   2.338   4.747  10.817  0.3269  0.1451 -0.6636
18646TIP3    H177353   2.413   4.688  10.812  0.5785  0.0582  2.2715
18646TIP3    H277354   2.281   4.706  10.882 -0.1282  2.4350  0.4525
18647TIP3   OH277355   3.346   5.785   2.255  0.4846 -0.5350 -0.4589
18647TIP3    H177356   3.346   5.703   2.306 -1.1322 -0.6859 -0.6576
18647TIP3    H277357   3.270   5.777   2.197  0.8350  0.7342 -1.1231
18648TIP3   OH277358   1.993   4.851   1.448 -0.5821  0.3420 -0.6828
18648TIP3    H177359   1.947   4.908   1.387 -2.4241  1.1611  1.3343
18648TIP3    H277360   2.065   4.906   1.481 -0.8953  0.6687 -0.5296
18649TIP3   OH277361   5.559   1.923   2.827  0.5338  0.1508 -0.4753
18649TIP3    H177362   5.504   1.851   2.860  0.6736  0.8631  1.4379
18649TIP3    H277363   5.521   1.945   2.742 -1.1811 -0.4086  0.1033
18650TIP3   OH277364   2.683   4.359   5.285  0.5683 -0.0267  0.0691
18650TIP3    H177365   2.699   4.265   5.299  0.4477 -0.3766 -1.9073
18650TIP3    H277366   2.677   4.395   5.373  2.5155 -1.5503  0.9069
18651TIP3   OH277367   0.229   0.951  16.970  0.1008  0.1800  0.2371
18651TIP3    H177368   0.263   0.861  16.972  0.1661  0.2121  0.8539
18651TIP3    H277369   0.148   0.946  17.020  0.7924  0.7306  1.4660
18652TIP3   OH277370   3.734   1.578  14.173  0.2555  0.1736  0.3153
18652TIP3    H177371   3.821   1.579  14.212  0.4660 -2.0924  0.0125
18652TIP3    H277372   3.674   1.581  14.248  0.6177  0.0441  0.6117
18653TIP3   OH277373   4.482   4.781  16.682  0.0977  0.1646 -0.2939
18653TIP3    H177374   4.567   4.740  16.701  0.1667 -0.7803 -2.3981
18653TIP3    H277375   4.498   4.833  16.604 -1.4644 -0.8374 -1.3324
18654TIP3   OH277376   6.270   3.082   2.595 -0.1358 -0.6142  0.8840
18654TIP3    H177377   6.287   3.013   2.660  0.8946 -1.1018  0.1431
18654TIP3    H277378   6.295   3.163   2.639  0.5727 -0.9421  1.1109
18655TIP3   OH277379   3.354   6.545  15.665  0.2620  0.5512  0.0456
18655TIP3    H177380   3.410   6.551  15.588  0.6347 -0.5089  0.2152
18655TIP3    H277381   3.407   6.498  15.729 -1.0971 -1.3133 -0.0974
18656TIP3   OH277382   2.089   3.849  13.530  0.3432 -0.0338 -0.1323
18656TIP3    H177383   2.181   3.824  13.526 -0.1170 -1.6836 -2.2516
18656TIP3    H277384   2.089   3.937  13.567  2.8619  0.4304 -1.1118
18657TIP3   OH277385   3.634   6.499   2.355  0.2344  0.3590  0.1161
18657TIP3    H177386   3.634   6.593   2.335  1.4723  0.4314  0.3467
18657TIP3    H277387   3.727   6.477   2.364  0.0435 -1.1880 -1.2628
18658TIP3   OH277388   1.926   3.026   4.811 -0.7185  0.7583 -0.3816
18658TIP3    H177389   2.015   3.003   4.785 -0.3050  0.9874  0.7793
18658TIP3    H277390   1.892   2.947   4.854 -0.3643  1.2881  0.9190
18659TIP3   OH277391   5.444   4.897  10.964  0.2904  0.8479  0.3196
18659TIP3    H177392   5.471   4.839  10.893  0.8530  0.6632  0.6735
18659TIP3    H277393   5.349   4.886  10.970  0.3007  0.5200 -0.0931
18660TIP3   OH277394   5.558   1.210   4.269  0.1978  0.5149 -0.0253
18660TIP3    H177395   5.539   1.270   4.340 -0.3715 -0.6353  0.8274
18660TIP3    H277396   5.482   1.152   4.265  1.1531 -0.7737 -0.1605
18661TIP3   OH277397   2.830   1.024   3.144  0.5217 -0.3630 -0.1210
18661TIP3    H177398   2.754   1.049   3.196 -0.1499 -0.3345 -1.0795
18661TIP3    H277399   2.843   1.098   3.085 -1.2356 -1.9744 -2.7268
18662TIP3   OH277400   4.705   4.476  14.872  0.1320  0.1377  0.6505
18662TIP3    H177401   4.628   4.449  14.822  0.1642 -1.0324  1.1963
18662TIP3    H277402   4.669   4.526  14.945  0.0029  0.8310  0.1229
18663TIP3   OH277403   2.217   6.704   1.628 -0.0255  0.3993 -0.0417
18663TIP3    H177404   2.213   6.797   1.649 -2.8300  0.1278  1.1100
18663TIP3    H277405   2.224   6.660   1.712 -1.4092 -0.4461 -0.3177
18664TIP3   OH277406   5.623   0.607  12.761 -0.0358 -0.4194  0.4639
18664TIP3    H177407   5.572   0.557  12.698  0.7090  0.6049 -0.9903
18664TIP3    H277408   5.590   0.578  12.846 -1.1440 -1.7435 -0.3732
18665TIP3   OH277409   6.295   6.185   2.838  0.1206 -0.6542 -0.0412
18665TIP3    H177410   6.306   6.118   2.769  0.5088 -0.3138 -0.3141
18665TIP3    H277411   6.307   6.268   2.792 -2.7357 -0.2333 -0.2080
18666TIP3   OH277412   3.589   4.861   2.773 -0.7560 -1.1881  0.8303
18666TIP3    H177413   3.682   4.872   2.757 -0.3828 -0.3453  3.2617
18666TIP3    H277414   3.551   4.852   2.685  1.2158  1.5681 -0.4390
18667TIP3   OH277415   5.217   2.140   4.837 -0.4754 -0.3633  0.9191
18667TIP3    H177416   5.308   2.169   4.823 -1.0277  1.3239  0.5790
18667TIP3    H277417   5.212   2.120   4.930 -0.0595  0.7657  1.2070
18668TIP3   OH277418   0.168   2.982  14.086  0.5093  0.0753 -0.0867
18668TIP3    H177419   0.112   2.924  14.035  1.4552  0.7626 -2.0037
18668TIP3    H277420   0.254   2.940  14.084  0.5794  0.1431  0.9358
18669TIP3   OH277421   0.787   0.291  15.957 -0.2713 -0.1610  0.0923
18669TIP3    H177422   0.756   0.200  15.967 -0.9497  0.0507 -0.0091
18669TIP3    H277423   0.831   0.292  15.872  1.0442 -0.7455  0.7429
18670TIP3   OH277424   6.279   3.968  12.607  0.0767 -0.2618 -0.2309
18670TIP3    H177425   6.274   4.029  12.680  3.3231  1.7716 -1.5003
18670TIP3    H277426   6.233   4.013  12.536  1.6368  0.3447 -0.8968
18671TIP3   OH277427   2.023   6.610  17.061 -0.2457  0.0874  0.3164
18671TIP3    H177428   1.958   6.602  16.991  0.0305  0.6855 -0.0187
18671TIP3    H277429   2.103   6.637  17.016 -0.0298  0.3432  0.8443
18672TIP3   OH277430   0.975   1.847   1.916  0.1382  0.0799  0.3428
18672TIP3    H177431   1.009   1.758   1.910  1.8740  0.7971 -1.4025
18672TIP3    H277432   1.013   1.882   1.997  1.7103  0.0798 -0.3579
18673TIP3   OH277433   6.354   3.822  15.325 -0.7937  0.3671 -0.4727
18673TIP3    H177434   6.450   3.818  15.325 -0.8134 -2.0766  0.3081
18673TIP3    H277435   6.334   3.909  15.358  1.2232  0.2112  1.4519
18674TIP3   OH277436   6.638   5.146  15.030 -0.4871  0.0867 -0.1507
18674TIP3    H177437   6.682   5.158  15.114  1.4999  0.0106 -1.1149
18674TIP3    H277438   6.588   5.065  15.041 -0.5770  0.2836  1.0624
18675TIP3   OH277439   1.535   5.154  16.168 -0.4436  0.5314  0.3094
18675TIP3    H177440   1.563   5.085  16.108 -1.2850  1.2883 -1.0080
18675TIP3    H277441   1.453   5.121  16.206  1.5710 -1.2870  3.4761
18676TIP3   OH277442   6.247   3.717   0.093  0.4455 -0.1106 -0.3279
18676TIP3    H177443   6.237   3.809   0.114 -1.0688 -0.5437  1.0618
18676TIP3    H277444   6.329   3.712   0.044 -0.0037  2.0983 -1.4033
18677TIP3   OH277445   3.639   0.553  10.474  0.3415 -0.3321  0.1394
18677TIP3    H177446   3.564   0.510  10.514  0.0873 -0.5091 -0.5153
18677TIP3    H277447   3.715   0.512  10.516  0.0775 -0.2727  0.6807
18678TIP3   OH277448   3.802   5.486   3.637 -0.1254  0.0848 -0.5619
18678TIP3    H177449   3.841   5.408   3.597  0.8884 -1.2122  2.6541
18678TIP3    H277450   3.872   5.552   3.633 -0.0530 -0.0134 -0.9508
18679TIP3   OH277451   0.257   2.578  15.802 -0.7429  0.2794  0.4772
18679TIP3    H177452   0.209   2.595  15.882  0.8107 -0.9930  1.7510
18679TIP3    H277453   0.344   2.617  15.818 -0.7853  1.0931 -1.0917
18680TIP3   OH277454   5.937   3.435   4.805  0.4029 -0.3177  0.3329
18680TIP3    H177455   5.952   3.528   4.788 -2.4757  0.3085  0.7381
18680TIP3    H277456   5.999   3.413   4.874  0.1402  1.7138  1.2839
18681TIP3   OH277457   3.439   3.758  14.502 -0.7087  0.0467 -0.0028
18681TIP3    H177458   3.370   3.816  14.469 -0.3931 -0.5984 -1.8688
18681TIP3    H277459   3.520   3.794  14.467 -0.4394 -1.0741 -0.5947
18682TIP3   OH277460   3.037   6.248  12.927  0.1530  0.2406  0.1433
18682TIP3    H177461   3.059   6.341  12.934  0.4722  0.3882 -2.1032
18682TIP3    H277462   2.980   6.243  12.849  0.4741 -1.4881 -0.0118
18683TIP3   OH277463   1.551   5.444   4.283  0.4797  0.1568  0.1083
18683TIP3    H177464   1.500   5.435   4.363 -2.5532  2.8798 -1.2999
18683TIP3    H277465   1.510   5.384   4.221 -0.3618  1.5593 -0.7283
18684TIP3   OH277466   4.799   0.244  10.360  0.2584  0.0694 -0.5887
18684TIP3    H177467   4.717   0.282  10.392  0.2331 -2.2429  2.6350
18684TIP3    H277468   4.771   0.176  10.299 -0.2229 -0.1943 -0.0880
18685TIP3   OH277469   4.914   4.536   1.346  0.0888  0.2572 -0.1677
18685TIP3    H177470   5.006   4.509   1.348 -0.1377 -0.4834  0.6854
18685TIP3    H277471   4.867   4.464   1.387 -0.8680  0.6841 -0.4922
18686TIP3   OH277472   3.655   1.735  12.425 -0.1159  0.4391 -0.1287
18686TIP3    H177473   3.721   1.703  12.364 -0.4998 -1.0247  0.1889
18686TIP3    H277474   3.635   1.824  12.395  1.3239  0.5695 -0.7687
18687TIP3   OH277475   0.464   4.799   0.125 -0.4718 -0.0602 -0.2201
18687TIP3    H177476   0.372   4.812   0.103  0.0472  0.3597 -2.2987
18687TIP3    H277477   0.472   4.836   0.213 -2.5265 -1.2842  0.5566
18688TIP3   OH277478   6.383   2.408   1.943 -0.7649  0.0362  0.1781
18688TIP3    H177479   6.381   2.365   2.029 -0.1596 -0.9346 -0.2777
18688TIP3    H277480   6.322   2.482   1.952 -0.9796 -0.2581  1.3293
18689TIP3   OH277481   2.517   5.217  15.775  0.3585 -0.3166  0.2252
18689TIP3    H177482   2.467   5.247  15.699 -1.5556 -1.3930  0.9980
18689TIP3    H277483   2.468   5.143  15.808  0.2430  1.0397  3.4521
18690TIP3   OH277484   2.970   1.767   1.009 -0.0232  0.3565 -0.1189
18690TIP3    H177485   3.022   1.793   1.085  1.1103 -0.1138 -0.7044
18690TIP3    H277486   2.994   1.829   0.941 -1.1716  0.8880 -0.0575
18691TIP3   OH277487   1.624   2.635  13.846 -0.0887 -0.1656  0.5203
18691TIP3    H177488   1.684   2.619  13.919  0.7091  0.5820  0.0579
18691TIP3    H277489   1.552   2.574  13.860  0.8001 -1.1172  1.0724
18692TIP3   OH277490   1.991   3.890   5.306  0.4126 -0.1561 -0.5870
18692TIP3    H177491   1.944   3.915   5.226 -1.4058 -1.0682  0.1264
18692TIP3    H277492   2.081   3.876   5.278  1.0265  4.2663 -1.5709
18693TIP3   OH277493   2.347   2.197   5.658  0.3624  1.2941  0.6633
18693TIP3    H177494   2.396   2.121   5.627 -2.1902 -0.0604 -0.3218
18693TIP3    H277495   2.255   2.170   5.654 -0.4757  3.2005  3.7372
18694TIP3   OH277496   5.397   1.881  12.229 -0.1638  0.0924  0.2870
18694TIP3    H177497   5.348   1.905  12.307 -1.7895  0.6040 -0.8277
18694TIP3    H277498   5.353   1.928  12.158 -0.4211 -2.3760 -1.3113
18695TIP3   OH277499   5.861   5.472   5.548  0.0099  0.2182 -0.2124
18695TIP3    H177500   5.861   5.380   5.521 -1.1773  0.7865 -2.4625
18695TIP3    H277501   5.952   5.501   5.534 -0.2929  0.1656 -2.7332
18696TIP3   OH277502   0.912   5.892   0.447 -0.2845  0.9256  0.4474
18696TIP3    H177503   0.873   5.864   0.365 -2.0170 -1.0621  1.8426
18696TIP3    H277504   0.839   5.897   0.508  1.1584  0.5655  2.3181
18697TIP3   OH277505   2.605   2.555  11.677 -0.7557  0.4938 -0.1539
18697TIP3    H177506   2.654   2.493  11.731  1.0308  2.1057  0.1828
18697TIP3    H277507   2.514   2.529  11.687 -0.1425 -1.6311  0.5126
18698TIP3   OH277508   5.415   0.283   4.114  0.9020  0.0477  0.6455
18698TIP3    H177509   5.341   0.263   4.172 -0.4179  0.2629 -0.8761
18698TIP3    H277510   5.487   0.230   4.148 -0.3289 -1.2398  1.3915
18699TIP3   OH277511   2.846   6.255   0.064 -0.2351 -0.2987  0.2289
18699TIP3    H177512   2.815   6.278   0.151 -0.2651  0.8338 -0.0723
18699TIP3    H277513   2.788   6.184   0.036 -0.2529 -0.6448  1.0975
18700TIP3   OH277514   1.167   0.663  14.692 -0.2430  0.1902 -0.1208
18700TIP3    H177515   1.259   0.649  14.713 -0.3714  1.0887  1.1561
18700TIP3    H277516   1.166   0.745  14.643 -0.3389  0.1026 -0.2633
18701TIP3   OH277517   1.053   5.730  14.348  0.1398 -0.2462 -0.8116
18701TIP3    H177518   0.998   5.763  14.419  0.7643  0.0704 -0.4581
18701TIP3    H277519   1.015   5.768  14.269  1.6241  2.5754 -0.3139
18702TIP3   OH277520   1.229   5.614  15.312 -0.0105 -0.4901 -0.1877
18702TIP3    H177521   1.284   5.582  15.384 -0.5797  1.1401  1.0288
18702TIP3    H277522   1.156   5.553  15.309  0.1280 -0.7035  0.5041
18703TIP3   OH277523   2.473   5.695  15.310  0.1783  0.1576 -0.3321
18703TIP3    H177524   2.539   5.677  15.377  0.7834  1.1265 -0.6411
18703TIP3    H277525   2.475   5.619  15.253  0.2777 -0.2882  0.2549
18704TIP3   OH277526   5.808   3.344   0.676 -0.4498 -0.3337 -0.3689
18704TIP3    H177527   5.819   3.345   0.581 -1.3167 -0.2768 -0.4798
18704TIP3    H277528   5.811   3.436   0.702  1.1743 -0.4110 -0.1431
18705TIP3   OH277529   4.431   2.284  11.407  0.1286  0.5974 -0.0313
18705TIP3    H177530   4.479   2.316  11.330 -0.6433 -0.1694 -0.8582
18705TIP3    H277531   4.354   2.339  11.413  0.1867  0.6553  0.2014
18706TIP3   OH277532   6.476   2.587  15.463  0.6374  0.0846  0.5650
18706TIP3    H177533   6.400   2.640  15.438 -0.2797 -0.9181  1.1340
18706TIP3    H277534   6.474   2.587  15.559  0.9443 -0.5123  0.5746
18707TIP3   OH277535   1.848   3.978   2.949  0.3182 -0.2953  0.2740
18707TIP3    H177536   1.884   4.051   2.898  0.5983  0.2067  1.1777
18707TIP3    H277537   1.924   3.926   2.974  0.0418 -1.5214 -1.2537
18708TIP3   OH277538   0.443   2.843   5.976  0.2925  0.3218  0.8337
18708TIP3    H177539   0.439   2.805   6.064 -1.9113 -0.9397  0.2705
18708TIP3    H277540   0.362   2.894   5.968  1.2850  1.8795  0.1077
18709TIP3   OH277541   3.819   3.283  17.239 -0.1221 -0.2690  0.8387
18709TIP3    H177542   3.764   3.215  17.276 -0.6204  0.0736  0.7334
18709TIP3    H277543   3.883   3.302  17.307 -1.2264  0.5895  1.6737
18710TIP3   OH277544   2.745   5.745   5.203  0.4312  0.6953  0.1343
18710TIP3    H177545   2.708   5.726   5.117  1.7697  1.6098 -0.6864
18710TIP3    H277546   2.716   5.672   5.258 -1.7823  0.9006 -0.6484
18711TIP3   OH277547   0.102   4.152   4.318  0.7688 -0.2071 -0.0664
18711TIP3    H177548   0.040   4.225   4.315  1.0213  0.2339  2.8033
18711TIP3    H277549   0.065   4.092   4.382  3.0776 -0.1059  1.4634
18712TIP3   OH277550   5.370   3.276   3.678 -0.0925 -0.1975 -0.2761
18712TIP3    H177551   5.302   3.315   3.623  0.6048  0.2265 -0.8542
18712TIP3    H277552   5.405   3.350   3.728  1.3871 -0.0010 -1.5356
18713TIP3   OH277553   6.426   2.870   1.504 -0.0712  0.1842  0.1549
18713TIP3    H177554   6.361   2.923   1.550 -0.8282  0.9690 -1.7263
18713TIP3    H277555   6.481   2.934   1.457 -0.6594 -0.6081 -1.7138
18714TIP3   OH277556   0.350   0.150  14.336 -0.3752 -0.2532 -0.0620
18714TIP3    H177557   0.440   0.179  14.351 -0.0524 -0.5401 -1.2917
18714TIP3    H277558   0.337   0.079  14.399  0.1523 -0.0091  0.3315
18715TIP3   OH277559   0.369   6.000  16.468  0.2586 -0.1690 -0.3700
18715TIP3    H177560   0.312   5.927  16.489 -1.6414  1.2538 -0.3003
18715TIP3    H277561   0.446   5.988  16.523 -0.2299 -1.8144 -0.0001
18716TIP3   OH277562   4.027   6.331   0.220  0.2078  0.4335  0.2938
18716TIP3    H177563   4.121   6.326   0.235  0.4327  0.4942 -1.0122
18716TIP3    H277564   4.012   6.281   0.140 -0.1125  4.3120 -2.3851
18717TIP3   OH277565   5.306   5.272  14.039  0.1671 -0.1517 -0.2774
18717TIP3    H177566   5.291   5.207  14.107  1.6827 -0.8289 -0.5512
18717TIP3    H277567   5.319   5.354  14.087  0.2022 -0.4300  0.1968
18718TIP3   OH277568   0.720   6.361  13.690 -0.6769 -0.3286  0.2921
18718TIP3    H177569   0.687   6.445  13.658  1.6682  1.1253  1.4083
18718TIP3    H277570   0.710   6.301  13.616  0.1121  1.6561 -1.5219
18719TIP3   OH277571   6.143   3.471  14.400  0.2702 -0.2946  0.0823
18719TIP3    H177572   6.206   3.487  14.330 -0.7689  0.8939 -0.6492
18719TIP3    H277573   6.171   3.390  14.440  1.9309 -0.0848 -0.5682
18720TIP3   OH277574   6.599   2.027   4.502 -0.3983  0.0303 -0.2018
18720TIP3    H177575   6.632   2.106   4.460 -1.1875  1.7092  2.1285
18720TIP3    H277576   6.636   1.955   4.451  0.7457  1.8737 -2.1150
18721TIP3   OH277577   2.784   6.620   5.481  0.9008  0.0673 -0.0174
18721TIP3    H177578   2.731   6.565   5.424  1.7818  0.1193 -0.9252
18721TIP3    H277579   2.873   6.586   5.471  0.9632 -0.5041  2.0511
18722TIP3   OH277580   1.667   3.880  13.248 -0.0631  0.0905  0.5650
18722TIP3    H177581   1.634   3.816  13.185 -0.5246 -0.0678  0.9549
18722TIP3    H277582   1.761   3.862  13.254  0.4300  1.5269 -1.6935
18723TIP3   OH277583   3.127   2.959   5.931 -0.6221 -0.2296  0.3543
18723TIP3    H177584   3.153   2.922   6.015 -1.7516 -1.6084  0.1315
18723TIP3    H277585   3.130   3.054   5.945  1.7265 -0.3494  1.1291
18724TIP3   OH277586   2.446   6.308  12.385  0.1064 -1.0031 -0.4300
18724TIP3    H177587   2.369   6.256  12.365 -0.9750  0.3532 -0.0064
18724TIP3    H277588   2.444   6.320  12.480  3.4949 -4.8400  0.4166
18725TIP3   OH277589   1.390   2.584  12.115  0.8227  0.3836 -0.3025
18725TIP3    H177590   1.294   2.582  12.108  0.7456 -0.2154  0.6713
18725TIP3    H277591   1.420   2.516  12.054  0.7064  1.3611 -1.4791
18726TIP3   OH277592   6.653   1.896  16.755 -0.5495  0.1211 -0.5484
18726TIP3    H177593   6.623   1.900  16.663 -0.6887  0.4714 -0.4901
18726TIP3    H277594   6.610   1.819  16.790  1.2852 -1.3582 -1.3902
18727TIP3   OH277595   4.148   2.375   1.000 -0.0438  0.2907  0.0889
18727TIP3    H177596   4.146   2.471   1.001  1.3737  0.3546 -0.4820
18727TIP3    H277597   4.155   2.352   0.908 -2.2838 -0.4783  0.0495
18728TIP3   OH277598   2.951   0.679  16.678  0.0989 -0.3755 -0.0607
18728TIP3    H177599   2.983   0.610  16.735  0.6303 -0.4168 -0.4023
18728TIP3    H277600   2.934   0.636  16.594 -0.9025 -0.3630  0.1180
18729TIP3   OH277601   5.155   6.352   3.496  0.5499 -0.2453  0.4877
18729TIP3    H177602   5.167   6.264   3.532  0.3236 -0.0879  0.9580
18729TIP3    H277603   5.128   6.405   3.571  2.2426  0.5973  0.5556
18730TIP3   OH277604   4.719   4.569   2.318  0.1470 -0.3305 -0.5287
18730TIP3    H177605   4.710   4.537   2.229 -0.3209 -0.2980 -0.4944
18730TIP3    H277606   4.635   4.610   2.338  0.5670  0.4986 -0.4021
18731TIP3   OH277607   0.734   2.317  12.998 -0.1439  0.2639 -0.3174
18731TIP3    H177608   0.790   2.255  13.044 -0.2440  1.2162  1.1250
18731TIP3    H277609   0.794   2.377  12.955 -0.0354 -0.9937 -2.0494
18732TIP3   OH277610   0.683   3.946   2.776 -0.2488 -0.3037 -0.2833
18732TIP3    H177611   0.698   4.002   2.700  1.9141 -0.8642 -0.3434
18732TIP3    H277612   0.706   3.858   2.746 -2.0224 -0.9930  0.2700
18733TIP3   OH277613   3.684   4.883  14.151 -0.1256 -0.5349 -0.5713
18733TIP3    H177614   3.747   4.934  14.202 -0.3953 -2.1749  1.5161
18733TIP3    H277615   3.636   4.832  14.216 -3.8304  0.7627 -2.0062
18734TIP3   OH277616   2.414   6.467   1.160  0.0744 -0.0445  0.6846
18734TIP3    H177617   2.399   6.374   1.145 -1.2156  0.5286 -2.4970
18734TIP3    H277618   2.333   6.498   1.202 -0.2775 -0.0609  0.0295
18735TIP3   OH277619   2.965   6.512  15.710  0.1295 -0.0692  0.5871
18735TIP3    H177620   2.991   6.576  15.777 -0.0643 -0.4891  1.0735
18735TIP3    H277621   3.045   6.461  15.694  0.2043  0.0996  0.4172
18736TIP3   OH277622   0.693   1.068  12.631 -0.0748  0.3593 -0.3942
18736TIP3    H177623   0.761   1.045  12.567  0.2501  1.5478 -0.5047
18736TIP3    H277624   0.619   1.094  12.577 -0.1760  0.3125 -0.2765
18737TIP3   OH277625   5.944   0.022  15.610 -0.5658  0.3520 -0.4437
18737TIP3    H177626   5.953   0.115  15.591  1.1960  0.3090  0.0254
18737TIP3    H277627   6.010  -0.020  15.555  0.3603 -0.3648  1.1451
18738TIP3   OH277628   1.123   3.800   6.287  0.3422 -0.2763  0.2831
18738TIP3    H177629   1.183   3.760   6.351 -1.0432  0.6453  2.2355
18738TIP3    H277630   1.067   3.728   6.259  0.4485 -0.5261  0.6997
18739TIP3   OH277631   2.181   5.119  15.962  0.5350  0.2366 -0.0766
18739TIP3    H177632   2.159   5.075  15.879  2.2650 -0.8578 -0.0100
18739TIP3    H277633   2.107   5.176  15.979 -2.0054 -2.7641 -0.1115
18740TIP3   OH277634   2.371   5.690  14.125 -0.2808  0.1746  0.5018
18740TIP3    H177635   2.432   5.728  14.062 -1.3560  0.5439 -0.3620
18740TIP3    H277636   2.387   5.739  14.206 -1.6094  2.5797 -0.5665
18741TIP3   OH277637   2.932   1.904   1.857  0.2627 -0.3482 -0.3624
18741TIP3    H177638   2.901   1.834   1.916  0.8647  0.0754  0.4831
18741TIP3    H277639   2.871   1.976   1.871 -1.0827 -1.0525 -2.1144
18742TIP3   OH277640   0.585   5.631   5.249 -0.1385 -0.4916  0.4590
18742TIP3    H177641   0.614   5.645   5.159  0.3446 -3.9919 -0.1009
18742TIP3    H277642   0.666   5.622   5.300 -0.4080  1.2336  1.2601
18743TIP3   OH277643   3.062   3.508   5.486 -0.0223  0.1123 -0.7577
18743TIP3    H177644   3.128   3.442   5.466  0.0686 -0.0300 -0.0047
18743TIP3    H277645   2.990   3.488   5.427 -1.0106 -2.1810  1.0787
18744TIP3   OH277646   1.977   1.348   3.169 -0.2588  0.3215 -0.0928
18744TIP3    H177647   1.962   1.314   3.081  1.3260 -0.0753 -0.2375
18744TIP3    H277648   1.968   1.443   3.160 -1.6026  0.1887 -0.3448
18745TIP3   OH277649   0.329   3.938   0.260  0.2769  0.2350  0.1166
18745TIP3    H177650   0.400   3.875   0.248 -0.7718 -0.6712 -1.9492
18745TIP3    H277651   0.363   4.020   0.225 -0.2366 -0.6475 -2.7089
18746TIP3   OH277652   4.776   5.455  15.632  0.1344 -0.4274 -0.2600
18746TIP3    H177653   4.865   5.435  15.662  0.0299 -0.5809 -0.0538
18746TIP3    H277654   4.719   5.403  15.689 -0.1447  0.5022  0.3266
18747TIP3   OH277655   0.400   1.871  13.520 -0.0552  0.0366 -0.1128
18747TIP3    H177656   0.368   1.797  13.468  0.5243 -0.1381 -0.2300
18747TIP3    H277657   0.414   1.941  13.457  0.5527 -0.1441 -0.1909
18748TIP3   OH277658   5.323   5.411   2.072  0.4343 -0.2934  0.6608
18748TIP3    H177659   5.369   5.463   2.007 -1.0204  0.3895  0.1451
18748TIP3    H277660   5.305   5.471   2.144  1.4844 -0.8912  1.4587
18749TIP3   OH277661   1.604   5.310   0.296  0.1815 -0.2673 -0.5104
18749TIP3    H177662   1.638   5.307   0.385  2.8157  0.4537 -1.4050
18749TIP3    H277663   1.514   5.342   0.305  1.3086  2.6592  1.6692
18750TIP3   OH277664   0.822   0.447  13.057  0.4239 -0.8530 -0.1753
18750TIP3    H177665   0.885   0.376  13.072  0.4068 -0.7021  0.6558
18750TIP3    H277666   0.737   0.408  13.078  0.5687 -0.1285  2.0283
18751TIP3   OH277667   4.976   0.040   2.502 -0.0781  0.1268 -0.2800
18751TIP3    H177668   5.025  -0.010   2.568 -0.7424  0.7512  0.7181
18751TIP3    H277669   5.010   0.129   2.508  0.2470  0.0748 -1.1936
18752TIP3   OH277670   0.400   5.554   1.111  0.3536  0.0182 -0.4024
18752TIP3    H177671   0.311   5.561   1.078  0.6097  1.5033 -0.8686
18752TIP3    H277672   0.408   5.464   1.142 -1.3178 -0.1077 -0.2889
18753TIP3   OH277673   0.443   3.880  17.219  0.3441  0.2980 -0.0595
18753TIP3    H177674   0.425   3.886  17.125  0.1623 -0.8505 -0.1102
18753TIP3    H277675   0.473   3.791  17.233 -0.2621  0.2396  1.0719
18754TIP3   OH277676   6.385   6.552  15.175 -0.2643  0.0272 -0.2422
18754TIP3    H177677   6.406   6.593  15.259 -2.1015  1.2054 -0.3142
18754TIP3    H277678   6.456   6.580  15.116  1.6225 -1.6603  1.0942
18755TIP3   OH277679   2.305   5.341  16.124  0.0058  0.1592  0.6955
18755TIP3    H177680   2.210   5.327  16.127 -0.2126  1.4992  3.0784
18755TIP3    H277681   2.330   5.349  16.216  2.9416 -2.9491  0.3482
18756TIP3   OH277682   5.011   0.427  13.225  0.0437 -0.1937  0.2600
18756TIP3    H177683   4.991   0.411  13.318  0.1382 -0.6211  0.2106
18756TIP3    H277684   5.097   0.387  13.212  0.0692 -0.0579  0.0046
18757TIP3   OH277685   3.219   1.772   4.696  0.1753  0.7194 -0.2779
18757TIP3    H177686   3.230   1.678   4.681 -0.6184  0.8483 -1.7584
18757TIP3    H277687   3.308   1.804   4.709  0.4673 -0.2027  0.0941
18758TIP3   OH277688   1.573   6.424   1.367 -0.5015  0.8880  0.0670
18758TIP3    H177689   1.625   6.500   1.394  1.7745 -0.5346 -0.0996
18758TIP3    H277690   1.546   6.445   1.278  1.2810  0.9660 -0.4931
18759TIP3   OH277691   4.259   0.659   6.598 -0.5010 -0.0509 -0.1385
18759TIP3    H177692   4.227   0.674   6.687  1.1403 -2.5371  0.9824
18759TIP3    H277693   4.330   0.723   6.587  0.5099 -0.9048  1.1061
18760TIP3   OH277694   4.541   5.472  16.682 -0.3527 -0.4114  0.2585
18760TIP3    H177695   4.472   5.413  16.712  0.0808 -0.6848  0.7327
18760TIP3    H277696   4.504   5.560  16.692 -0.9645 -0.5868 -0.3625
18761TIP3   OH277697   0.950   5.461  13.256  0.5136  0.0525  0.1975
18761TIP3    H177698   0.857   5.477  13.240  0.3449  0.8139  1.7669
18761TIP3    H277699   0.955   5.369  13.278  0.0446  0.1389  0.6732
18762TIP3   OH277700   2.564   3.637   2.760  0.1289 -0.7162 -0.7962
18762TIP3    H177701   2.605   3.708   2.713 -1.3836  0.5087 -0.3675
18762TIP3    H277702   2.569   3.562   2.701  0.9126 -0.0072 -1.6503
18763TIP3   OH277703   2.330   1.379   5.123  0.3456 -0.2848  0.2208
18763TIP3    H177704   2.302   1.291   5.097 -2.5118  0.9535 -1.3301
18763TIP3    H277705   2.404   1.399   5.065 -0.4260 -0.8634 -1.0067
18764TIP3   OH277706   5.229   5.330   3.692 -0.5273  0.4897 -0.1023
18764TIP3    H177707   5.316   5.352   3.658 -1.0797  1.5749 -0.8657
18764TIP3    H277708   5.175   5.317   3.614 -1.2321  0.5545  0.3674
18765TIP3   OH277709   1.035   5.560   0.335  0.1164  0.7398 -0.3310
18765TIP3    H177710   1.129   5.563   0.317 -0.0148 -0.4322 -1.2818
18765TIP3    H277711   1.005   5.479   0.296 -1.2237  0.8540  0.3916
18766TIP3   OH277712   0.550   3.572   6.439 -0.6336 -0.5951 -0.6075
18766TIP3    H177713   0.645   3.580   6.443 -0.6968  1.0784 -1.4785
18766TIP3    H277714   0.531   3.487   6.479  1.1347 -0.5240  0.4674
18767TIP3   OH277715   1.971   6.221   5.337 -0.1726 -0.1706  0.2470
18767TIP3    H177716   1.905   6.275   5.293  1.1043  2.6820  1.5741
18767TIP3    H277717   2.050   6.230   5.284  0.8506  1.7523  1.9667
18768TIP3   OH277718   3.869   1.970  15.740  0.4651  0.2098  0.2384
18768TIP3    H177719   3.860   2.040  15.805 -0.6362 -1.3134  1.8229
18768TIP3    H277720   3.823   1.895  15.779  3.4698 -2.1312 -0.3436
18769TIP3   OH277721   2.094   5.623   3.017  0.7575 -0.3001 -0.2241
18769TIP3    H177722   2.082   5.611   2.923 -0.4448 -0.3262 -0.0947
18769TIP3    H277723   2.126   5.712   3.026  0.8506 -0.2859 -0.6654
18770TIP3   OH277724   0.149   4.956  14.554  0.0081  0.2090 -0.6158
18770TIP3    H177725   0.135   4.916  14.640 -1.2134 -0.5235 -1.1245
18770TIP3    H277726   0.103   4.898  14.494  1.9143 -0.0039 -1.9490
18771TIP3   OH277727   2.494   2.704   1.526  0.1623  0.4097  0.4502
18771TIP3    H177728   2.495   2.800   1.530  2.7353  0.4063  1.1856
18771TIP3    H277729   2.429   2.678   1.592 -3.5193  1.5757 -2.3346
18772TIP3   OH277730   6.758   3.270   2.874  0.3532  0.4112 -0.3296
18772TIP3    H177731   6.723   3.342   2.821 -0.9204 -0.3303 -0.5205
18772TIP3    H277732   6.708   3.274   2.955  0.6000  0.0247 -0.1573
18773TIP3   OH277733   1.673   1.159   3.476  0.3027 -0.2688 -0.0553
18773TIP3    H177734   1.678   1.254   3.492  2.3888 -0.3048 -0.1944
18773TIP3    H277735   1.673   1.151   3.381  0.6304 -0.4106 -0.0452
18774TIP3   OH277736   4.612   5.321   3.611 -0.3624  0.1756  0.3295
18774TIP3    H177737   4.542   5.385   3.598 -1.6788 -1.1119  0.8796
18774TIP3    H277738   4.680   5.369   3.659 -0.5092  1.6498 -0.8740
18775TIP3   OH277739   4.256   4.033  15.982 -0.2533 -0.0040 -0.1971
18775TIP3    H177740   4.235   4.067  16.069  3.0063  1.6147  0.1229
18775TIP3    H277741   4.288   3.944  15.998  1.6885  0.7678  0.5823
18776TIP3   OH277742   6.635   6.662  15.090  0.2680 -0.0972 -0.1846
18776TIP3    H177743   6.712   6.612  15.062 -0.4163 -1.3109  0.0688
18776TIP3    H277744   6.604   6.705  15.011  2.1224  1.7188 -0.0058
18777TIP3   OH277745   4.622   6.327   6.446  0.0560  0.3595 -0.1364
18777TIP3    H177746   4.528   6.308   6.450  0.3124 -0.8675  0.7494
18777TIP3    H277747   4.627   6.421   6.426 -1.4200  1.0246  2.1527
18778TIP3   OH277748   1.166   5.799  16.863 -0.8757 -0.0168 -0.4946
18778TIP3    H177749   1.187   5.757  16.947 -1.7246  1.6894  0.6179
18778TIP3    H277750   1.172   5.893  16.881 -1.5221  0.3925 -2.2385
18779TIP3   OH277751   2.995   4.618   4.885 -0.5361 -0.1565  0.1758
18779TIP3    H177752   2.962   4.549   4.941 -2.4118  0.5323 -0.0002
18779TIP3    H277753   3.039   4.679   4.945  0.3944 -1.0552  0.4295
18780TIP3   OH277754   5.955   3.735  16.714 -0.5953  0.2386  0.7402
18780TIP3    H177755   5.894   3.805  16.689 -2.3804 -1.5974 -0.3885
18780TIP3    H277756   5.904   3.680  16.774  0.8148 -0.0782  1.6984
18781TIP3   OH277757   4.482   0.914   4.811  0.1393  0.0919 -0.2180
18781TIP3    H177758   4.423   0.932   4.739 -2.5466 -0.9827  1.5580
18781TIP3    H277759   4.456   0.828   4.843  1.6428  0.2556  1.6352
18782TIP3   OH277760   0.903   2.924   2.499 -0.5282  0.2919  0.0753
18782TIP3    H177761   0.904   2.924   2.595 -1.6971 -0.7074  0.1234
18782TIP3    H277762   0.917   3.015   2.475 -3.8249  1.2819  1.3272
18783TIP3   OH277763   5.936   3.308  15.046  0.1947  0.9374  0.1737
18783TIP3    H177764   6.008   3.252  15.074 -0.5744 -0.1078  0.1275
18783TIP3    H277765   5.857   3.256  15.062 -0.3803  0.6169 -2.9187
18784TIP3   OH277766   4.066   2.618  13.058  0.2796 -0.0318  0.2249
18784TIP3    H177767   4.056   2.578  13.144  0.9890  0.0153  0.3386
18784TIP3    H277768   4.050   2.547  12.996  1.7440 -0.5668  0.4278
18785TIP3   OH277769   4.443   0.949   3.577  0.1325  0.0524 -0.0841
18785TIP3    H177770   4.521   0.987   3.617  0.5490 -1.8836  1.0381
18785TIP3    H277771   4.476   0.878   3.523 -0.9117 -2.1839  2.0461
18786TIP3   OH277772   4.286   1.496  11.972  0.1509 -0.0729 -0.3084
18786TIP3    H177773   4.198   1.460  11.963  0.3282 -0.5639 -0.1055
18786TIP3    H277774   4.272   1.587  11.997 -0.3011 -0.2075 -0.0528
18787TIP3   OH277775   5.799   4.001  16.297 -0.7375  0.0689  0.2128
18787TIP3    H177776   5.807   3.912  16.262 -0.2534 -0.3380  1.3005
18787TIP3    H277777   5.716   4.033  16.264 -0.7272 -0.6390 -0.5280
18788TIP3   OH277778   6.486   4.834   3.326  0.5881 -0.4071 -0.6005
18788TIP3    H177779   6.541   4.757   3.309  1.0301 -0.1188 -0.5047
18788TIP3    H277780   6.463   4.828   3.418  1.7935  0.2989 -0.2189
18789TIP3   OH277781   2.744   2.485  12.944  0.5529  0.3567  0.2714
18789TIP3    H177782   2.818   2.482  13.005  0.5993 -0.1408  0.2002
18789TIP3    H277783   2.733   2.394  12.917  0.9654  0.6551 -0.9751
18790TIP3   OH277784   3.820   2.351   0.530  0.8009 -0.1909 -0.1356
18790TIP3    H177785   3.747   2.289   0.525 -0.3012  1.0663 -0.2590
18790TIP3    H277786   3.849   2.361   0.440  0.7218 -0.2335 -0.1660
18791TIP3   OH277787   4.247   6.352  11.518  0.2294  0.3924 -0.1342
18791TIP3    H177788   4.325   6.401  11.545  0.9852 -0.6024 -0.4574
18791TIP3    H277789   4.197   6.341  11.599  0.2527  1.3204  0.0170
18792TIP3   OH277790   6.164   4.757   2.736  0.3467 -0.3158  0.1923
18792TIP3    H177791   6.224   4.801   2.676  1.1256  0.6756  1.6198
18792TIP3    H277792   6.213   4.680   2.767 -1.0088 -2.3180 -2.2925
18793TIP3   OH277793   3.594   0.256  12.485  0.0238  0.1538 -0.2635
18793TIP3    H177794   3.579   0.318  12.557  0.2758 -0.1623  0.0590
18793TIP3    H277795   3.519   0.196  12.489 -0.9750  1.2569 -1.4472
18794TIP3   OH277796   2.797   3.281  14.614  0.3519 -0.0949 -0.5470
18794TIP3    H177797   2.851   3.327  14.550 -1.2847  1.3573 -0.9495
18794TIP3    H277798   2.761   3.350  14.670  0.4082 -1.1910  0.9278
18795TIP3   OH277799   3.834   5.039  12.136  0.5536 -0.2663 -0.1803
18795TIP3    H177800   3.873   5.043  12.049  0.2173  0.5381 -0.3020
18795TIP3    H277801   3.902   5.074  12.195 -0.1986  1.8861 -0.4873
18796TIP3   OH277802   2.127   3.628  10.890 -0.0887  0.1851 -0.4525
18796TIP3    H177803   2.185   3.555  10.912 -0.3171  0.2211  0.3052
18796TIP3    H277804   2.043   3.585  10.870  0.3119  0.0954 -2.0253
18797TIP3   OH277805   3.007   6.742   1.966 -0.3404 -0.5761 -0.0746
18797TIP3    H177806   3.010   6.674   1.899 -0.5280  0.9269 -1.6601
18797TIP3    H277807   3.079   6.801   1.944 -0.1432 -0.2690  1.2986
18798TIP3   OH277808   0.987   3.572  14.204  0.8029  0.6286 -0.0736
18798TIP3    H177809   1.046   3.644  14.226  0.7566  0.7385 -0.3000
18798TIP3    H277810   0.901   3.614  14.192  0.5540  0.3958  0.8021
18799TIP3   OH277811   5.601   3.065  17.122 -0.5043  0.0486  0.1816
18799TIP3    H177812   5.569   3.146  17.081  0.3886  1.1820  1.6081
18799TIP3    H277813   5.593   2.999  17.054 -0.9358  1.4201 -1.1584
18800TIP3   OH277814   2.595   6.077  13.182  0.4851  0.0489 -0.2192
18800TIP3    H177815   2.689   6.079  13.164  0.5297  0.1663  0.0289
18800TIP3    H277816   2.574   6.167  13.208 -0.1565  0.6511 -2.6178
18801TIP3   OH277817   0.259   0.006  16.090  0.5353 -0.7476 -0.3683
18801TIP3    H177818   0.262   0.102  16.086  2.2980 -0.7494  0.1820
18801TIP3    H277819   0.205  -0.012  16.167  2.7156 -0.0801  1.4375
18802TIP3   OH277820   6.208   1.609   0.438  0.0015 -0.6034 -0.1113
18802TIP3    H177821   6.302   1.627   0.441 -0.0697 -0.3358  0.7371
18802TIP3    H277822   6.173   1.675   0.379  0.0805  0.6026  1.1404
18803TIP3   OH277823   3.862   0.596   3.426  0.0037 -0.2329 -0.1412
18803TIP3    H177824   3.797   0.662   3.400  0.6733  0.3126 -0.5060
18803TIP3    H277825   3.944   0.628   3.387  0.4696 -0.9477  0.2322
18804TIP3   OH277826   4.624   0.200   1.971  0.7020 -0.4176  0.1427
18804TIP3    H177827   4.542   0.201   2.021  1.2717 -0.5085  1.1191
18804TIP3    H277828   4.597   0.191   1.880 -0.3993  0.3484  0.3730
18805TIP3   OH277829   0.419   2.243   6.043  0.0116  0.5261 -0.2061
18805TIP3    H177830   0.453   2.333   6.042 -2.0964  1.3894 -0.9026
18805TIP3    H277831   0.335   2.249   6.089  0.6206 -1.4511  1.2716
18806TIP3   OH277832   4.284   1.259  16.101  0.3368  0.2845  0.4491
18806TIP3    H177833   4.376   1.283  16.114  0.4971 -0.8863  1.5490
18806TIP3    H277834   4.255   1.226  16.185 -0.4892 -1.3604 -0.4424
18807TIP3   OH277835   3.248   0.504  15.959 -0.1326 -0.2169 -0.2771
18807TIP3    H177836   3.179   0.545  16.010  0.5259 -1.1230  1.4265
18807TIP3    H277837   3.215   0.416  15.940  0.8591 -0.9724  1.3172
18808TIP3   OH277838   6.707   1.163   0.338  0.1267  0.1088 -0.6536
18808TIP3    H177839   6.728   1.096   0.273  3.1830  0.3675 -0.0682
18808TIP3    H277840   6.762   1.237   0.316  1.8446 -0.0338  2.5278
18809TIP3   OH277841   6.446   0.845  13.553  0.0998 -0.6039  0.9334
18809TIP3    H177842   6.512   0.776  13.552  1.9276  1.0554  0.2257
18809TIP3    H277843   6.376   0.812  13.497  0.8777 -1.8980  0.6787
18810TIP3   OH277844   4.914   1.988   3.949  0.3691  0.2078 -0.0683
18810TIP3    H177845   4.980   2.035   3.898  0.4457  0.8275  0.5858
18810TIP3    H277846   4.837   1.987   3.892  1.4963 -2.3830 -1.7451
18811TIP3   OH277847   0.536   6.687  13.341  0.2640  0.1426 -0.1165
18811TIP3    H177848   0.476   6.712  13.271 -0.6769 -2.7332 -0.4674
18811TIP3    H277849   0.602   6.632  13.298  0.6739 -0.2516  0.9662
18812TIP3   OH277850   1.205   6.555   1.209 -0.2605  0.1254 -0.6134
18812TIP3    H177851   1.236   6.507   1.286  0.5047  0.7241 -0.5396
18812TIP3    H277852   1.125   6.598   1.239  0.0979  0.4506 -0.1115
18813TIP3   OH277853   4.664   2.827   1.888  0.1737 -0.2067  0.5641
18813TIP3    H177854   4.606   2.762   1.849 -0.2499  0.8181 -0.5686
18813TIP3    H277855   4.682   2.793   1.976 -1.1805 -1.1313  0.5139
18814TIP3   OH277856   2.716   0.805  14.848  0.2148  0.1129 -0.4261
18814TIP3    H177857   2.650   0.757  14.898  1.7312 -1.1993  0.4095
18814TIP3    H277858   2.772   0.845  14.915  0.9551  0.2171 -1.0998
18815TIP3   OH277859   1.589   2.301   4.431  0.1848 -0.1662 -0.5773
18815TIP3    H177860   1.520   2.287   4.366 -0.0789  0.4101 -0.4323
18815TIP3    H277861   1.656   2.236   4.410  0.2142  0.1779 -1.5837
18816TIP3   OH277862   3.951   4.611   5.773  0.0168 -0.3113  0.8759
18816TIP3    H177863   3.979   4.591   5.684  1.5078  1.4249  0.9045
18816TIP3    H277864   3.858   4.589   5.774  0.4387 -2.4809 -0.4139
18817TIP3   OH277865   0.963   2.494  14.201 -0.2967  0.3685  0.0355
18817TIP3    H177866   0.915   2.447  14.133 -1.4248  0.8688  0.4659
18817TIP3    H277867   0.909   2.484  14.279  0.5558  0.5249  0.6574
18818TIP3   OH277868   3.245   3.126  10.993  0.4564 -0.1239 -0.4204
18818TIP3    H177869   3.300   3.188  11.041  0.1838 -0.4520  0.3464
18818TIP3    H277870   3.261   3.145  10.901 -1.0184  2.3656 -0.2416
18819TIP3   OH277871   4.731   4.926  12.937 -0.0712  0.2107 -0.5056
18819TIP3    H177872   4.798   4.938  12.870 -2.2353  3.8883 -2.3132
18819TIP3    H277873   4.658   4.885  12.891 -1.5691  2.7440 -0.5733
18820TIP3   OH277874   3.367   2.942   5.514  0.0371  0.3788  0.4714
18820TIP3    H177875   3.353   3.008   5.582  0.2196  0.6964  0.1997
18820TIP3    H277876   3.447   2.970   5.469 -0.0842  0.1684  0.1249
18821TIP3   OH277877   6.752   2.604  12.022 -0.1561  0.3535 -0.3440
18821TIP3    H177878   6.706   2.670  12.075 -0.3916  1.0694 -1.4197
18821TIP3    H277879   6.844   2.614  12.047 -0.4499 -0.6192  1.3176
18822TIP3   OH277880   0.875   0.023  11.580  0.0242  0.2424 -0.2361
18822TIP3    H177881   0.796   0.026  11.526  0.6918 -0.9906 -1.3723
18822TIP3    H277882   0.884   0.111  11.615 -1.7313  0.4601 -0.2519
18823TIP3   OH277883   5.783   0.333   1.159  0.6920  0.1009  0.3208
18823TIP3    H177884   5.746   0.283   1.232 -1.0057  1.2380  0.3146
18823TIP3    H277885   5.821   0.410   1.202  1.3510 -0.1325  0.1550
18824TIP3   OH277886   6.621   2.958   5.673  0.0961 -0.7593  0.9092
18824TIP3    H177887   6.536   2.986   5.708 -0.5541  0.0163 -1.1584
18824TIP3    H277888   6.623   2.864   5.688 -1.3795 -0.8762  0.5373
18825TIP3   OH277889   0.902   5.555   4.804 -0.3800  0.0329  0.5675
18825TIP3    H177890   0.931   5.475   4.847  0.2042 -0.0619  0.0183
18825TIP3    H277891   0.806   5.550   4.807 -0.3476 -0.5093  0.8635
18826TIP3   OH277892   3.647   2.043  11.179 -0.1795 -0.2180  0.2707
18826TIP3    H177893   3.677   1.962  11.138 -0.7561  0.5037 -1.6840
18826TIP3    H277894   3.586   2.081  11.116 -1.0914  0.9944  1.8166
18827TIP3   OH277895   6.194   6.234   5.272 -1.0178 -0.3565 -0.0926
18827TIP3    H177896   6.154   6.256   5.357 -1.3307  0.4066 -0.4193
18827TIP3    H277897   6.288   6.239   5.288 -1.0503  1.5141 -0.1681
18828TIP3   OH277898   2.251   1.607   5.971  0.2224  0.1658  0.2142
18828TIP3    H177899   2.272   1.682   6.026  0.9657  1.1433 -1.3315
18828TIP3    H277900   2.302   1.620   5.891  1.1583 -2.5347  0.2830
18829TIP3   OH277901   4.622   2.379  15.985  0.3955  0.3865 -0.2781
18829TIP3    H177902   4.553   2.421  15.934 -0.5667 -0.4477  0.2850
18829TIP3    H277903   4.678   2.451  16.014 -0.5085  1.1406 -0.3499
18830TIP3   OH277904   4.901   3.377   1.257  0.1183  0.2149  0.4060
18830TIP3    H177905   4.882   3.291   1.295  1.0211 -0.1525  0.0600
18830TIP3    H277906   4.845   3.438   1.305 -1.2431 -0.6942  0.0079
18831TIP3   OH277907   4.482   0.935  15.023  0.0326 -0.6460  0.4833
18831TIP3    H177908   4.550   0.916  14.958 -1.3466 -0.7990 -0.9768
18831TIP3    H277909   4.490   0.864  15.087  0.1888 -1.5703 -0.5398
18832TIP3   OH277910   0.456   3.322   0.186  0.0665  0.1780  0.3591
18832TIP3    H177911   0.386   3.257   0.186  0.6016 -0.4000  0.0511
18832TIP3    H277912   0.535   3.274   0.162  0.1188  1.3454 -2.0523
18833TIP3   OH277913   4.318   2.798  12.076 -0.1455  0.3203  0.0460
18833TIP3    H177914   4.225   2.779  12.082 -0.1519 -0.6168 -2.1703
18833TIP3    H277915   4.359   2.712  12.068  0.8099  0.7802 -0.1647
18834TIP3   OH277916   3.657   2.695  12.398  0.5640  0.1984  0.0778
18834TIP3    H177917   3.641   2.632  12.328  1.1829  0.5558 -0.3936
18834TIP3    H277918   3.709   2.647  12.462 -0.1523 -0.1816  0.3799
18835TIP3   OH277919   6.645   0.183   4.256 -0.1808  0.0636 -0.1677
18835TIP3    H177920   6.736   0.190   4.226 -0.0482 -1.2869 -0.1407
18835TIP3    H277921   6.650   0.126   4.333 -0.9946  0.4351  0.1723
18836TIP3   OH277922   6.161   5.889  14.224  0.6590  0.0017  0.4437
18836TIP3    H177923   6.094   5.956  14.238 -1.1023 -1.8280  1.3195
18836TIP3    H277924   6.239   5.938  14.200 -0.6247  2.3316  0.7033
18837TIP3   OH277925   1.886   5.424  14.886 -0.3453 -0.4506 -0.2502
18837TIP3    H177926   1.861   5.516  14.878  0.6439 -0.0420  0.9305
18837TIP3    H277927   1.902   5.395  14.796  0.8887  1.0096 -0.5546
18838TIP3   OH277928   6.438   5.875   3.512  0.5950 -0.3239  0.3545
18838TIP3    H177929   6.436   5.967   3.538  1.5575 -0.5423  1.2544
18838TIP3    H277930   6.520   5.866   3.462 -0.1508 -0.4089 -0.8941
18839TIP3   OH277931   0.571   6.182  11.539 -0.0530  0.0539  0.0920
18839TIP3    H177932   0.532   6.268  11.522  0.6709  0.4017  0.1819
18839TIP3    H277933   0.553   6.165  11.632 -0.3412  0.0297  0.0328
18840TIP3   OH277934   1.008   0.719   1.839 -0.1203  0.1541 -0.0436
18840TIP3    H177935   1.028   0.651   1.775  0.3923  0.3683 -0.1129
18840TIP3    H277936   0.965   0.788   1.788 -1.2362 -0.3797  0.1355
18841TIP3   OH277937   3.681   2.357   1.396 -0.2337 -0.4753  0.0464
18841TIP3    H177938   3.654   2.445   1.422 -1.7241 -1.0279  0.5029
18841TIP3    H277939   3.730   2.369   1.315  0.4162  0.8504  0.6017
18842TIP3   OH277940   3.702   1.588  11.874 -0.1769 -0.9474 -0.6127
18842TIP3    H177941   3.674   1.678  11.862 -0.0550 -0.8560 -0.2190
18842TIP3    H277942   3.638   1.550  11.933 -0.4782 -1.2475 -1.1247
18843TIP3   OH277943   4.819   4.025  15.565  0.4500  0.0238  0.1089
18843TIP3    H177944   4.888   4.087  15.541  1.3092 -0.7609  0.5012
18843TIP3    H277945   4.865   3.945  15.587 -0.6457 -0.7470 -0.3110
18844TIP3   OH277946   1.113   3.328   4.872 -0.3378  0.5185 -0.0278
18844TIP3    H177947   1.102   3.268   4.798 -0.4264 -1.2534  1.3434
18844TIP3    H277948   1.077   3.280   4.947  0.2072  2.0403  1.2642
18845TIP3   OH277949   2.972   2.086   2.845  0.0040  0.0408  0.8115
18845TIP3    H177950   3.032   2.037   2.788  0.3039  1.2089  0.0986
18845TIP3    H277951   3.016   2.169   2.862 -1.8858  1.4768 -0.7668
18846TIP3   OH277952   6.060   2.000   1.590  0.1296 -0.1786 -0.7576
18846TIP3    H177953   6.045   2.048   1.672  0.3164 -0.0799 -0.7812
18846TIP3    H277954   6.077   2.069   1.525 -0.1631 -0.2490 -0.9107
18847TIP3   OH277955   1.312   5.622  17.035  0.3886  0.4079  0.1171
18847TIP3    H177956   1.325   5.598  16.943  2.4670 -0.0940  0.5039
18847TIP3    H277957   1.275   5.543  17.075 -0.5745  0.6450 -0.2808
18848TIP3   OH277958   0.284   5.961   4.556  0.1928  0.3362  0.0337
18848TIP3    H177959   0.270   5.867   4.570  1.0170  0.2403  0.2999
18848TIP3    H277960   0.237   6.004   4.628  2.0834 -0.0191  1.5766
18849TIP3   OH277961   4.421   6.676  12.934 -0.3994 -0.5449 -0.3224
18849TIP3    H177962   4.452   6.759  12.969 -0.0915 -0.7248 -0.1615
18849TIP3    H277963   4.332   6.668  12.968 -0.3571 -0.3792 -0.1715
18850TIP3   OH277964   6.311   2.650  13.930 -0.3240 -0.2644 -0.2674
18850TIP3    H177965   6.384   2.639  13.869 -1.4417  1.3346 -2.0082
18850TIP3    H277966   6.349   2.634  14.016  1.2867 -2.8762 -1.3218
18851TIP3   OH277967   6.393   1.098   2.018  0.1421  0.0109 -0.3414
18851TIP3    H177968   6.305   1.126   2.045  0.8530  1.7218  0.3317
18851TIP3    H277969   6.385   1.082   1.924 -1.2294 -1.3648 -0.0402
18852TIP3   OH277970   5.771   4.809   5.965  0.1656  0.4615 -0.0138
18852TIP3    H177971   5.710   4.803   6.038  1.0865 -1.4942  0.6897
18852TIP3    H277972   5.845   4.859   5.999  0.3681 -0.0109  0.2646
18853TIP3   OH277973   5.235   2.508  13.724  0.4066 -0.0478  0.0096
18853TIP3    H177974   5.253   2.471  13.638  0.8711  0.6520 -0.2016
18853TIP3    H277975   5.261   2.599  13.717  0.6965 -0.0448  0.9680
18854TIP3   OH277976   2.669   5.306  13.305  0.1431  0.2703 -0.3620
18854TIP3    H177977   2.632   5.344  13.385 -0.8924  0.0285 -0.7125
18854TIP3    H277978   2.732   5.241  13.336 -0.0674  0.3555  0.2580
18855TIP3   OH277979   0.320   1.052  13.517 -0.1978 -0.2809 -0.0749
18855TIP3    H177980   0.247   1.021  13.464 -1.8049  0.7630  1.4038
18855TIP3    H277981   0.350   1.132  13.474  0.7482 -1.2060 -1.2028
18856TIP3   OH277982   3.521   2.149   0.230 -0.1664  0.2138  0.5315
18856TIP3    H177983   3.457   2.079   0.229  0.8883 -0.7811  0.0827
18856TIP3    H277984   3.589   2.121   0.168  1.0094  0.9309  1.4316
18857TIP3   OH277985   2.683   6.602   1.210  0.6408  0.1272 -0.0778
18857TIP3    H177986   2.607   6.562   1.253  1.3807 -0.4169  0.7527
18857TIP3    H277987   2.649   6.633   1.125 -0.8106  1.0737  0.8060
18858TIP3   OH277988   5.453   6.582  13.947  0.2029  0.4188 -1.4814
18858TIP3    H177989   5.526   6.553  13.891  1.3800  0.3073  0.0574
18858TIP3    H277990   5.384   6.518  13.929  0.8900 -0.1832 -2.0966
18859TIP3   OH277991   6.218   0.077   4.180  0.0881 -0.5436  0.1714
18859TIP3    H177992   6.188   0.017   4.248  1.4884  0.2145  1.5267
18859TIP3    H277993   6.286   0.028   4.133  2.2020  0.3179  2.1367
18860TIP3   OH277994   0.478   3.370  11.403 -0.2604  0.5721 -0.0025
18860TIP3    H177995   0.529   3.347  11.325 -0.3604 -1.5098  0.4786
18860TIP3    H277996   0.421   3.294  11.418 -1.5423  1.6855  1.0710
18861TIP3   OH277997   2.031   2.964  11.262 -0.0588  0.7379 -0.1929
18861TIP3    H177998   1.991   3.027  11.202 -0.1727 -1.6933 -2.8612
18861TIP3    H277999   2.076   2.902  11.205  3.8994  0.8139  2.4472
18862TIP3   OH278000   5.656   4.055  11.989  0.0331 -0.4937  0.2865
18862TIP3    H178001   5.714   3.979  11.986 -0.6622 -1.1051  1.4351
18862TIP3    H278002   5.696   4.114  12.053  2.2293  1.6125 -2.7428
18863TIP3   OH278003   1.173   6.314   5.391 -0.7181  0.1738  0.4318
18863TIP3    H178004   1.200   6.312   5.299 -1.6197  0.1743  0.1616
18863TIP3    H278005   1.245   6.359   5.436 -0.2480  0.1281 -0.2604
18864TIP3   OH278006   3.432   5.311  12.144 -0.3260  0.2092 -0.1374
18864TIP3    H178007   3.404   5.223  12.119  0.2444 -0.1408  0.4221
18864TIP3    H278008   3.511   5.327  12.091 -0.8731  0.7121 -0.8244
18865TIP3   OH278009   5.884   5.722   4.703 -0.2782  0.5383 -0.0752
18865TIP3    H178010   5.845   5.802   4.737 -2.1584 -0.4077  0.1240
18865TIP3    H278011   5.868   5.725   4.609 -2.0657 -0.4146  0.1451
18866TIP3   OH278012   3.171   3.765   3.149 -0.0132  0.3948  0.4021
18866TIP3    H178013   3.160   3.689   3.206  2.3454  0.3999  0.9901
18866TIP3    H278014   3.135   3.738   3.065  0.3040 -1.1871  0.7476
18867TIP3   OH278015   1.185   6.344   2.620 -0.0121 -0.1115  0.1855
18867TIP3    H178016   1.275   6.311   2.610  0.6089  0.0778  3.7317
18867TIP3    H278017   1.141   6.277   2.673 -1.5164  0.5080 -0.2262
18868TIP3   OH278018   2.161   6.360  11.145  0.4862  0.7414  0.3033
18868TIP3    H178019   2.098   6.408  11.091  1.1473  0.1715 -1.0031
18868TIP3    H278020   2.110   6.328  11.219 -0.1292  2.8350  0.8592
18869TIP3   OH278021   5.701   3.862   2.395 -0.1407  0.4812  0.4279
18869TIP3    H178022   5.647   3.939   2.407  1.1746  1.9791 -2.2380
18869TIP3    H278023   5.652   3.807   2.334  0.5342  1.0475 -0.6592
18870TIP3   OH278024   6.166   5.887  16.701  0.4799  0.0590 -0.9405
18870TIP3    H178025   6.157   5.955  16.768 -2.3325 -2.1058  1.0838
18870TIP3    H278026   6.250   5.845  16.721  1.2403  1.5003 -0.9135
18871TIP3   OH278027   1.216   2.688   2.891 -0.4287  0.3939 -0.3202
18871TIP3    H178028   1.230   2.599   2.860 -1.4180  1.0160 -2.9093
18871TIP3    H278029   1.121   2.699   2.889 -0.3695  1.2531  0.7533
18872TIP3   OH278030   1.303   0.688   2.351  0.1934  0.0906  0.1911
18872TIP3    H178031   1.331   0.739   2.275  0.0048  1.4081  0.9779
18872TIP3    H278032   1.381   0.638   2.375  0.7977  1.0058  0.1955
18873TIP3   OH278033   3.912   0.271  17.177 -0.8927 -0.6646  0.3019
18873TIP3    H178034   3.833   0.325  17.180  0.2998  1.4543 -2.4748
18873TIP3    H278035   3.974   0.315  17.236 -0.2467  0.5570 -1.2206
18874TIP3   OH278036   5.375   3.093  12.452 -0.1460  0.5734  0.3564
18874TIP3    H178037   5.334   3.176  12.477  0.2573  0.4953  1.3413
18874TIP3    H278038   5.349   3.079  12.361  0.4279  2.1952 -0.0973
18875TIP3   OH278039   1.765   4.618   4.062  0.5671  0.1974 -0.2013
18875TIP3    H178040   1.809   4.687   4.112 -0.5045  0.7685 -0.0204
18875TIP3    H278041   1.674   4.621   4.091  0.0017  0.2589 -1.8800
18876TIP3   OH278042   0.666   3.810   3.076 -0.7521 -0.4557  0.3940
18876TIP3    H178043   0.666   3.807   2.980  0.2114 -0.1686  0.3734
18876TIP3    H278044   0.575   3.824   3.099 -0.7028  2.0379 -0.5781
18877TIP3   OH278045   1.830   1.641  11.461 -0.2337  0.3742 -0.3036
18877TIP3    H178046   1.750   1.589  11.459 -1.0009  1.4577  0.6952
18877TIP3    H278047   1.820   1.698  11.538  1.1754  1.0348 -0.5700
18878TIP3   OH278048   5.363   4.175   2.064 -0.1074 -0.2945 -0.6651
18878TIP3    H178049   5.316   4.139   2.139  1.0921  0.8497  0.7011
18878TIP3    H278050   5.454   4.146   2.077 -0.1429 -1.5019 -2.6187
18879TIP3   OH278051   1.245   3.556   1.923 -0.0057  0.2986  0.1900
18879TIP3    H178052   1.210   3.633   1.968  1.5719  0.0891  1.9099
18879TIP3    H278053   1.171   3.495   1.919 -1.1410  1.6739 -0.7734
18880TIP3   OH278054   5.485   1.629  11.005 -0.4644 -0.2910  0.1689
18880TIP3    H178055   5.490   1.665  10.917  1.6555 -1.6796 -0.3504
18880TIP3    H278056   5.480   1.534  10.993 -3.4014 -0.4179  1.5384
18881TIP3   OH278057   2.381   1.108  14.910  0.2963 -0.1653 -0.0053
18881TIP3    H178058   2.475   1.118  14.895  0.3587  0.1115  0.5359
18881TIP3    H278059   2.371   1.117  15.005 -0.7931  4.6364 -0.2940
18882TIP3   OH278060   3.758   5.701   1.814 -0.0779  0.2552  0.1421
18882TIP3    H178061   3.817   5.648   1.760  1.2192  2.9075 -1.2093
18882TIP3    H278062   3.707   5.752   1.752  0.4195  2.3320  1.3303
18883TIP3   OH278063   6.504   3.221  14.762  0.2028  0.1263  0.4293
18883TIP3    H178064   6.477   3.305  14.724 -1.4880 -0.5851 -0.0241
18883TIP3    H278065   6.591   3.238  14.797  0.4448  1.7252 -0.8151
18884TIP3   OH278066   5.990   1.211  15.741 -0.2449 -0.3556 -0.2850
18884TIP3    H178067   5.928   1.160  15.689 -1.0845  0.4405 -0.0819
18884TIP3    H278068   5.941   1.289  15.768  0.4321 -0.3305  0.9633
18885TIP3   OH278069   4.945   5.227   5.469  0.0395 -0.6309  0.5140
18885TIP3    H178070   4.989   5.163   5.412 -1.8815  0.0619 -1.9018
18885TIP3    H278071   4.893   5.173   5.529  0.4334 -1.3731  0.2085
18886TIP3   OH278072   3.146   1.462   3.808  0.5605  0.2033  0.5231
18886TIP3    H178073   3.203   1.402   3.761  1.5581  0.7522  1.0073
18886TIP3    H278074   3.166   1.446   3.901  1.6057  1.9829  0.6403
18887TIP3   OH278075   1.071   3.816   3.435 -0.1122 -0.0258 -0.5444
18887TIP3    H178076   0.983   3.813   3.397 -0.4768 -2.0555  0.3140
18887TIP3    H278077   1.057   3.806   3.529  1.0887 -2.3090 -0.5489
18888TIP3   OH278078   2.030   2.908  12.344 -0.0175  0.0370 -0.2077
18888TIP3    H178079   2.029   2.821  12.386  1.7845 -0.1344 -0.4514
18888TIP3    H278080   2.046   2.969  12.416 -0.0435  0.0408 -0.2046
18889TIP3   OH278081   1.369   6.303  14.299 -0.1234  0.1001  0.3046
18889TIP3    H178082   1.329   6.390  14.305  0.3422  0.2545  1.4308
18889TIP3    H278083   1.388   6.292  14.206 -1.5506  0.5716 -0.0692
18890TIP3   OH278084   0.251   2.953   1.142  0.6822  0.1631 -0.0904
18890TIP3    H178085   0.238   3.041   1.177  1.9842  0.1042  0.6456
18890TIP3    H278086   0.345   2.936   1.155  0.3007 -1.6832  0.6582
18891TIP3   OH278087   2.951   4.417   1.371 -0.0083  0.7046  0.2259
18891TIP3    H178088   2.884   4.351   1.389  1.2829 -0.0343  2.7415
18891TIP3    H278089   2.902   4.499   1.365 -1.3360 -0.0845 -0.2320
18892TIP3   OH278090   6.072   4.663   6.565  0.4371  0.3545 -0.2949
18892TIP3    H178091   6.082   4.745   6.517  0.3209 -0.0282 -0.9788
18892TIP3    H278092   6.128   4.600   6.518  0.5913  0.0598  0.2715
18893TIP3   OH278093   4.998   5.311  12.511 -0.3768 -0.5847  0.4877
18893TIP3    H178094   4.939   5.386  12.515  1.1720  0.7011  0.1023
18893TIP3    H278095   4.944   5.241  12.474 -1.1715  1.0842 -1.7412
18894TIP3   OH278096   4.647   2.778  13.086 -0.1957  0.0219 -0.0844
18894TIP3    H178097   4.732   2.817  13.104 -0.3045 -0.2075  0.9517
18894TIP3    H278098   4.666   2.706  13.025  0.3624 -0.1077  0.2393
18895TIP3   OH278099   6.120   6.588   4.741 -0.0560  0.2666 -0.3672
18895TIP3    H178100   6.102   6.599   4.835 -0.7410 -0.5171 -0.4015
18895TIP3    H278101   6.046   6.630   4.697 -2.6625 -3.9223 -0.5060
18896TIP3   OH278102   1.141   2.498   0.067 -0.5551 -0.6363 -0.0084
18896TIP3    H178103   1.087   2.568   0.030  0.3762 -0.5478 -1.2612
18896TIP3    H278104   1.117   2.420   0.016 -0.8669 -1.0203  0.7155
18897TIP3   OH278105   4.998   1.480   3.756  0.1111 -0.3064 -0.2899
18897TIP3    H178106   5.070   1.528   3.796 -0.7174  0.7422 -0.0444
18897TIP3    H278107   5.019   1.480   3.662  1.1641 -1.2821 -0.0791
18898TIP3   OH278108   3.182   2.254  15.757 -0.1877  0.3537 -0.0869
18898TIP3    H178109   3.120   2.189  15.791 -2.2715  0.7998 -2.6934
18898TIP3    H278110   3.220   2.213  15.680  1.3715  0.8428  0.3838
18899TIP3   OH278111   0.186   2.166  11.065 -0.0305 -0.6528 -0.0452
18899TIP3    H178112   0.240   2.175  11.144  1.6352 -2.2518 -0.9348
18899TIP3    H278113   0.111   2.224  11.080  0.6767 -0.2680  2.3244
18900TIP3   OH278114   1.041   1.576   1.929 -0.3236 -0.1194 -0.4618
18900TIP3    H178115   0.956   1.555   1.967 -0.1706  1.2196  0.7050
18900TIP3    H278116   1.056   1.507   1.864 -1.6964 -1.1065  0.2159
18901TIP3   OH278117   0.476   0.013   4.962 -0.3447 -0.2057  0.5602
18901TIP3    H178118   0.440   0.028   4.874  2.3746  1.9920 -0.3581
18901TIP3    H278119   0.558  -0.034   4.946  1.9759  3.1252  1.3386
18902TIP3   OH278120   0.734   1.481  16.731  0.2538 -0.0213 -0.4293
18902TIP3    H178121   0.750   1.571  16.760 -0.7911 -0.3520  1.3434
18902TIP3    H278122   0.642   1.466  16.752  0.5977 -1.7259 -0.0543
18903TIP3   OH278123   2.082   5.889   1.734 -0.0932  0.0244  0.1933
18903TIP3    H178124   2.135   5.959   1.695  0.2220  0.2324  0.9669
18903TIP3    H278125   2.098   5.813   1.679 -0.6701  0.6304 -0.8379
18904TIP3   OH278126   3.928   5.597   1.644  0.5748 -0.1089 -0.3293
18904TIP3    H178127   3.918   5.504   1.627 -0.0931  0.0570 -0.8499
18904TIP3    H278128   3.973   5.631   1.566  1.2253 -0.0647  0.0529
18905TIP3   OH278129   3.917   6.106   1.596  0.0996  0.2749  0.1437
18905TIP3    H178130   3.963   6.181   1.558  2.4059 -0.3741  1.4434
18905TIP3    H278131   3.928   6.036   1.531 -0.3316  0.5297 -0.2025
18906TIP3   OH278132   6.318   2.878  16.596 -0.1622 -1.2742 -0.5618
18906TIP3    H178133   6.357   2.884  16.509  1.3459  0.3302  0.1554
18906TIP3    H278134   6.391   2.891  16.657 -1.5729  0.6011  0.8750
18907TIP3   OH278135   6.562   6.213   2.724 -0.3566  0.2936 -0.2281
18907TIP3    H178136   6.526   6.125   2.722  0.0748  0.1179 -1.7033
18907TIP3    H278137   6.495   6.268   2.683  0.3781  0.2108 -1.6052
18908TIP3   OH278138   2.078   3.758  11.366 -0.4745 -0.0051 -1.4950
18908TIP3    H178139   2.131   3.687  11.331 -1.4532 -0.7397 -1.5134
18908TIP3    H278140   2.093   3.831  11.306  2.4938  0.6743 -0.1226
18909TIP3   OH278141   2.202   6.205  13.346 -0.1757  0.2531 -0.3004
18909TIP3    H178142   2.132   6.263  13.375 -1.3166 -0.7674 -0.9162
18909TIP3    H278143   2.280   6.237  13.391 -0.7365  2.2991 -0.6862
18910TIP3   OH278144   1.029   0.599  13.149  0.9072 -0.3493 -0.0346
18910TIP3    H178145   1.032   0.562  13.237 -2.2314  1.8315  1.1747
18910TIP3    H278146   0.958   0.551  13.106 -2.4740  3.0446  1.1999
18911TIP3   OH278147   5.485   0.488  14.083  1.0883  0.2512 -0.0704
18911TIP3    H178148   5.482   0.428  14.008 -0.3983 -0.3059  0.3896
18911TIP3    H278149   5.549   0.449  14.143 -0.8445 -1.7485  0.8589
18912TIP3   OH278150   4.145   2.334  14.981 -0.1352 -0.1155  0.0136
18912TIP3    H178151   4.165   2.288  14.900  0.6474  0.2044  0.0200
18912TIP3    H278152   4.050   2.323  14.991 -0.2220 -0.2811 -0.8632
18913TIP3   OH278153   1.789   5.108  16.877 -0.3370  0.3091 -0.4553
18913TIP3    H178154   1.747   5.096  16.962  0.3384  0.2066 -0.1329
18913TIP3    H278155   1.837   5.190  16.885  0.4647 -0.1559 -0.4304
18914TIP3   OH278156   0.348   2.390   5.714 -0.0568  0.0854  0.6168
18914TIP3    H178157   0.404   2.462   5.685  0.1563 -0.7213 -1.0869
18914TIP3    H278158   0.284   2.431   5.772  1.9636  1.1246  2.2579
18915TIP3   OH278159   6.226   6.368   3.812  0.5639 -0.8778  0.1762
18915TIP3    H178160   6.278   6.305   3.862  0.4678 -0.1791  1.1828
18915TIP3    H278161   6.157   6.316   3.772  0.8437 -1.5027  0.4868
18916TIP3   OH278162   5.335   1.950   6.185  0.1292  0.4273 -0.1734
18916TIP3    H178163   5.403   2.005   6.224 -0.9924  1.8244 -0.1192
18916TIP3    H278164   5.332   1.977   6.093  1.2537 -1.3105 -0.7549
18917TIP3   OH278165   3.765   2.069  12.053 -0.0942 -0.4698 -0.0315
18917TIP3    H178166   3.845   2.081  12.104  0.1128 -1.2319 -0.1672
18917TIP3    H278167   3.705   2.135  12.087 -0.0099 -1.0508  1.3180
18918TIP3   OH278168   0.262   5.394  13.770 -0.0954 -0.3174  0.0986
18918TIP3    H178169   0.171   5.380  13.794 -0.2871  1.4301  0.5314
18918TIP3    H278170   0.312   5.373  13.850 -0.2953  0.5631  0.4638
18919TIP3   OH278171   2.780   4.624  13.531 -0.0615  0.1289  0.0259
18919TIP3    H178172   2.721   4.620  13.607  1.5518 -0.2745  1.3040
18919TIP3    H278173   2.780   4.717  13.506 -0.9079  0.2050  0.2607
18920TIP3   OH278174   5.338   3.018  11.985 -0.5108  1.1487  0.2566
18920TIP3    H178175   5.295   3.002  11.901 -0.0543  2.8195 -0.3388
18920TIP3    H278176   5.422   2.972  11.979 -1.0234  0.1774  0.3398
18921TIP3   OH278177   2.167   1.744  13.235  0.1185  0.2448  0.5743
18921TIP3    H178178   2.072   1.759  13.230 -0.1061 -0.9988  0.9162
18921TIP3    H278179   2.188   1.694  13.156 -0.1802 -2.6860  2.2097
18922TIP3   OH278180   6.748   6.709  11.376  0.1772  0.0335 -0.3972
18922TIP3    H178181   6.813   6.774  11.350  0.4258  0.1908  0.5560
18922TIP3    H278182   6.737   6.653  11.300  0.1396  1.0415 -1.1563
18923TIP3   OH278183   1.583   3.372  15.473  0.1408 -1.0014  0.5532
18923TIP3    H178184   1.657   3.367  15.412  1.1019 -1.1860  1.6946
18923TIP3    H278185   1.551   3.462  15.465 -1.0543 -1.5675 -1.6655
18924TIP3   OH278186   5.356   0.193  13.552 -0.1264  0.0954  0.2467
18924TIP3    H178187   5.294   0.120  13.561  1.1296 -1.1780 -0.8704
18924TIP3    H278188   5.432   0.166  13.603  0.9210 -0.0902 -1.3436
18925TIP3   OH278189   6.045   2.227  12.414  0.8099  0.1966  0.7930
18925TIP3    H178190   6.078   2.267  12.495  1.2110  0.1795  0.6396
18925TIP3    H278191   6.105   2.155  12.397  1.0352  0.5126  0.2049
18926TIP3   OH278192   0.173   5.688  11.895  0.3151 -0.1795 -0.3300
18926TIP3    H178193   0.104   5.745  11.862 -1.5476 -2.4235 -0.5634
18926TIP3    H278194   0.226   5.668  11.819  0.7612  0.8893 -0.3184
18927TIP3   OH278195   4.012   3.920  16.928  0.1108  0.4271 -0.3909
18927TIP3    H178196   3.931   3.968  16.910 -0.9488 -1.5963 -1.3194
18927TIP3    H278197   4.001   3.886  17.016 -0.6698 -0.9603 -1.0031
18928TIP3   OH278198   6.218   1.158  12.354 -0.1614  0.1056  0.0617
18928TIP3    H178199   6.312   1.172  12.344 -0.0783 -1.2067 -1.4002
18928TIP3    H278200   6.177   1.220  12.294 -0.2427  0.5898  0.6055
18929TIP3   OH278201   6.596   0.367   4.586  0.0702 -0.5235  0.0313
18929TIP3    H178202   6.590   0.420   4.507 -1.1048  0.5406  0.7952
18929TIP3    H278203   6.521   0.307   4.579  0.3461 -0.8675  0.0300
18930TIP3   OH278204   0.215   6.011   1.321  0.5869  0.0572  0.3572
18930TIP3    H178205   0.258   6.056   1.249  1.2872 -0.2707  0.5588
18930TIP3    H278206   0.129   5.986   1.286  0.5450  0.7407 -0.0433
18931TIP3   OH278207   6.336   2.846  15.399 -0.2064 -0.3473 -0.1760
18931TIP3    H178208   6.266   2.818  15.458 -0.9073  2.0229  0.2408
18931TIP3    H278209   6.374   2.923  15.442  0.8193  0.0380 -1.6959
18932TIP3   OH278210   1.145   3.749   3.893  0.7399  0.3114 -0.2485
18932TIP3    H178211   1.092   3.685   3.846  2.2268 -1.3275  0.1606
18932TIP3    H278212   1.143   3.827   3.839 -1.2602 -0.0037 -0.7051
18933TIP3   OH278213   0.756   5.612  10.777  0.2335 -0.3695  0.0878
18933TIP3    H178214   0.800   5.663  10.709  1.6502 -2.1135 -0.3665
18933TIP3    H278215   0.694   5.557  10.730  1.4089 -1.7793  0.1255
18934TIP3   OH278216   2.656   3.333   5.800 -0.5328 -0.1476 -0.4741
18934TIP3    H178217   2.667   3.286   5.718  0.0363  0.1920 -0.5977
18934TIP3    H278218   2.735   3.313   5.851 -0.7272 -0.0910 -0.1443
18935TIP3   OH278219   2.586   2.580   5.110 -0.2575  0.0335  0.3994
18935TIP3    H178220   2.607   2.619   5.195 -1.4255 -0.9327  1.1483
18935TIP3    H278221   2.515   2.519   5.128 -0.0281 -0.7371 -1.1519
18936TIP3   OH278222   1.379   2.978   5.151  0.3570 -0.1915  0.4841
18936TIP3    H178223   1.342   2.890   5.138  1.2414 -0.7872  1.7659
18936TIP3    H278224   1.304   3.031   5.179  0.0768 -0.8970  1.1263
18937TIP3   OH278225   5.726   1.310   1.394  0.3098 -0.3312  0.2421
18937TIP3    H178226   5.720   1.314   1.489 -0.0663 -0.5077  0.2293
18937TIP3    H278227   5.779   1.233   1.376 -1.5805 -1.7199  0.2756
18938TIP3   OH278228   4.259   1.867  12.541  0.0094  0.2092  0.5561
18938TIP3    H178229   4.354   1.863  12.549 -0.0329 -1.5698  0.5897
18938TIP3    H278230   4.227   1.852  12.630 -0.3294  1.8763  0.7502
18939TIP3   OH278231   2.002   4.292   3.135 -0.0028 -0.0108  0.0281
18939TIP3    H178232   2.033   4.215   3.182  1.5320 -0.3409 -1.4159
18939TIP3    H278233   1.908   4.295   3.152  0.2983 -0.7890  2.0807
18940TIP3   OH278234   3.763   5.128   1.199 -0.1780 -0.1264  0.4158
18940TIP3    H178235   3.741   5.173   1.117  0.2371 -1.7962 -0.6811
18940TIP3    H278236   3.740   5.036   1.182  2.8799 -1.1191  0.9625
18941TIP3   OH278237   4.490   6.423  12.149  0.1349  0.1922  0.2783
18941TIP3    H178238   4.559   6.419  12.082 -0.0806  2.0172 -0.0995
18941TIP3    H278239   4.538   6.435  12.231  0.3525 -1.1470  0.3791
18942TIP3   OH278240   4.107   2.752  11.559 -0.4243  0.3914 -0.1635
18942TIP3    H178241   4.158   2.774  11.481  1.9405 -0.9029  0.9378
18942TIP3    H278242   4.126   2.823  11.620 -0.3130  0.1576  0.0758
18943TIP3   OH278243   1.147   0.964   5.457  1.0396  0.2000  0.6354
18943TIP3    H178244   1.083   0.924   5.515  1.9193  1.0050  2.2266
18943TIP3    H278245   1.100   0.978   5.375 -0.2615 -0.9037  1.1597
18944TIP3   OH278246   1.201   6.437  14.682 -0.6592  0.2813  0.4929
18944TIP3    H178247   1.115   6.474  14.702 -0.7863  0.4579 -0.3209
18944TIP3    H278248   1.184   6.376  14.610  0.0087  0.9149 -0.2200
18945TIP3   OH278249   4.721   2.188   4.077 -0.0282 -0.3144 -0.7606
18945TIP3    H178250   4.809   2.152   4.071  0.2677  0.1943  0.3655
18945TIP3    H278251   4.724   2.267   4.022  0.6326  0.4603  0.3554
18946TIP3   OH278252   6.714   2.390   0.508  0.4417  0.1446 -0.4838
18946TIP3    H178253   6.743   2.469   0.463 -1.3119  1.1942  0.1622
18946TIP3    H278254   6.662   2.421   0.581 -1.1952 -1.6118 -0.8241
18947TIP3   OH278255   1.381   6.187   2.164 -0.5358  0.1950  0.0448
18947TIP3    H178256   1.298   6.150   2.192 -1.1120  2.1525  1.1206
18947TIP3    H278257   1.411   6.238   2.239  1.0379  0.5220 -0.7578
18948TIP3   OH278258   2.042   0.850  14.308  0.4770 -0.3342 -0.3654
18948TIP3    H178259   1.994   0.930  14.286 -0.8198 -0.3603  2.0457
18948TIP3    H278260   2.023   0.835  14.400  1.8975 -2.6390 -0.3626
18949TIP3   OH278261   2.479   4.683  15.882 -0.1022  0.7267 -0.1594
18949TIP3    H178262   2.385   4.688  15.900 -0.2033 -0.5781 -0.1824
18949TIP3    H278263   2.485   4.636  15.799  0.5677  1.0759 -0.3177
18950TIP3   OH278264   3.102   4.033  14.772 -0.1372 -0.4697 -0.2762
18950TIP3    H178265   3.121   3.952  14.724 -0.1692  0.0682 -1.2300
18950TIP3    H278266   3.066   4.092  14.706  1.0437  0.7465  0.1014
18951TIP3   OH278267   5.758   6.003   2.948 -0.3052  0.0276 -0.4700
18951TIP3    H178268   5.789   6.016   2.859  1.1073  1.4754  0.1926
18951TIP3    H278269   5.774   5.910   2.966 -0.6663 -0.2952 -1.7221
18952TIP3   OH278270   5.044   1.033  16.330  0.2860  0.0519 -0.7832
18952TIP3    H178271   5.058   1.090  16.405 -0.4156 -1.5535  0.6338
18952TIP3    H278272   5.070   0.946  16.361  1.4303 -0.4327 -2.9057
18953TIP3   OH278273   1.121   6.075  16.582  0.3444  0.1467 -0.0875
18953TIP3    H178274   1.183   6.050  16.651 -0.6685  0.4158  0.9541
18953TIP3    H278275   1.124   6.170  16.580  0.2452  0.1457 -0.2883
18954TIP3   OH278276   5.949   3.471   2.925 -0.3634  0.2152 -0.4888
18954TIP3    H178277   5.870   3.418   2.930 -0.1953  0.0158  0.0788
18954TIP3    H278278   5.984   3.472   3.014 -0.5282  1.5528 -0.4127
18955TIP3   OH278279   4.932   2.966  11.574 -0.1982  0.0786 -0.2115
18955TIP3    H178280   4.843   2.930  11.569  0.0952 -0.5758 -1.0541
18955TIP3    H278281   4.986   2.902  11.527  0.5931  0.8620 -0.3926
18956TIP3   OH278282   0.103   6.534   0.619  0.5670 -0.3685  0.3426
18956TIP3    H178283   0.163   6.481   0.672 -1.1303 -2.6503  0.1305
18956TIP3    H278284   0.062   6.594   0.682  1.7335 -0.0126  0.7933
18957TIP3   OH278285   0.588   2.701  13.302 -0.1213 -0.6443 -0.3406
18957TIP3    H178286   0.634   2.657  13.231  0.9190  0.7988 -0.6114
18957TIP3    H278287   0.545   2.775  13.260 -0.4229 -0.4148  0.3623
18958TIP3   OH278288   2.876   2.790  11.366  0.1693 -0.2864 -0.3600
18958TIP3    H178289   2.787   2.793  11.400 -0.0420  2.8605 -0.8887
18958TIP3    H278290   2.866   2.792  11.271  0.7098  2.2316 -0.4342
18959TIP3   OH278291   5.487   5.790   3.051 -0.1223 -0.0374  0.7815
18959TIP3    H178292   5.565   5.781   3.107  0.0198  0.1053  0.6065
18959TIP3    H278293   5.416   5.751   3.103  0.2115 -0.8825  0.6254
18960TIP3   OH278294   5.468   1.720  16.254  0.7034 -0.6833  0.5583
18960TIP3    H178295   5.405   1.667  16.206 -0.2878  1.9378 -1.2542
18960TIP3    H278296   5.550   1.711  16.206  0.2470  0.2565 -0.4324
18961TIP3   OH278297   1.652   0.674  14.086  0.3779  0.0806 -0.0692
18961TIP3    H178298   1.640   0.758  14.132  1.1701  0.3383 -0.3034
18961TIP3    H278299   1.724   0.691  14.025 -0.6622 -0.2449 -1.4406
18962TIP3   OH278300   0.125   0.719  12.014 -0.0375 -0.3282 -0.0062
18962TIP3    H178301   0.092   0.647  12.067  1.5768 -0.6203  0.6544
18962TIP3    H278302   0.220   0.708  12.015  0.0821 -0.3984 -3.0446
18963TIP3   OH278303   1.027   0.001   2.087 -0.1660 -0.3365 -0.4344
18963TIP3    H178304   0.990  -0.037   2.166  1.0031  1.7683  1.2298
18963TIP3    H278305   1.073   0.079   2.117  2.0191 -0.5167 -2.9240
18964TIP3   OH278306   4.086   5.259  14.224  0.0354  0.0242 -0.2115
18964TIP3    H178307   4.158   5.305  14.181 -0.1817 -0.1694 -0.7888
18964TIP3    H278308   4.040   5.328  14.272  1.0416  0.0310  0.7962
18965TIP3   OH278309   1.580   0.994  11.943 -0.2498 -0.0050 -0.1031
18965TIP3    H178310   1.617   1.033  11.863 -2.0006  0.3527 -0.7875
18965TIP3    H278311   1.542   0.912  11.913 -0.3613 -0.1777  0.5096
18966TIP3   OH278312   0.143   1.861  13.093 -0.1059 -0.4194 -0.2338
18966TIP3    H178313   0.117   1.904  13.175 -0.2466  0.4945 -0.7368
18966TIP3    H278314   0.089   1.782  13.089 -0.0309 -0.5223  0.5960
18967TIP3   OH278315   5.851   6.202  14.407  0.7709  0.3193  0.0181
18967TIP3    H178316   5.903   6.196  14.487  0.1293 -0.0893  0.4176
18967TIP3    H278317   5.873   6.124  14.357  0.0112 -0.2300  0.5227
18968TIP3   OH278318   6.756   0.579  16.871 -0.5253 -0.1494 -0.6228
18968TIP3    H178319   6.784   0.491  16.899 -0.7904  0.5522  2.1868
18968TIP3    H278320   6.668   0.567  16.836 -1.4346 -0.8224  1.6815
18969TIP3   OH278321   6.232   1.236  11.318 -0.2519 -0.4664  0.1927
18969TIP3    H178322   6.279   1.154  11.306  0.3620 -0.4815  2.2899
18969TIP3    H278323   6.300   1.302  11.327 -0.7207  0.1052 -0.3450
18970TIP3   OH278324   4.605   2.501   5.373  0.1282 -0.1716 -0.2864
18970TIP3    H178325   4.689   2.530   5.339 -0.5367  0.8942 -1.0995
18970TIP3    H278326   4.550   2.491   5.296 -0.8947  0.5310  0.3236
18971TIP3   OH278327   3.161   5.031  13.296  0.1420 -0.1648 -0.2040
18971TIP3    H178328   3.172   5.124  13.316 -1.2098 -0.0961  0.2941
18971TIP3    H278329   3.187   5.023  13.204  2.4132  0.2750  0.3418
18972TIP3   OH278330   4.385   4.824   6.693 -0.9378  0.8719  0.3999
18972TIP3    H178331   4.299   4.783   6.691 -1.0113  0.9878  0.9581
18972TIP3    H278332   4.375   4.897   6.754 -0.8765  1.8901 -0.7701
18973TIP3   OH278333   0.153   2.888   0.138  0.2570 -0.5779 -0.2847
18973TIP3    H178334   0.169   2.797   0.111  0.2946 -0.7830  0.4155
18973TIP3    H278335   0.081   2.882   0.200  0.3170 -0.1327 -0.1697
18974TIP3   OH278336   2.405   4.763  14.787 -0.8850 -0.4267  0.1309
18974TIP3    H178337   2.472   4.719  14.838  0.2189 -1.2003 -1.8656
18974TIP3    H278338   2.449   4.841  14.752 -1.5577 -0.0100  0.1972
18975TIP3   OH278339   6.262   3.221  14.545  0.3042  0.4346 -0.0154
18975TIP3    H178340   6.313   3.221  14.626 -0.8330 -1.1371  0.7369
18975TIP3    H278341   6.305   3.156  14.489 -0.1824 -0.0578  0.1774
18976TIP3   OH278342   4.495   3.340  17.077  0.1405  0.3553  0.1948
18976TIP3    H178343   4.411   3.378  17.101 -0.1244 -0.2451  0.2254
18976TIP3    H278344   4.484   3.313  16.986  0.1082 -0.2518  0.3760
18977TIP3   OH278345   0.286   1.371   0.461 -0.2025 -0.0381  0.3433
18977TIP3    H178346   0.214   1.376   0.398 -0.3907  1.1082  0.6411
18977TIP3    H278347   0.345   1.441   0.436  0.4718 -0.5270  0.5348
18978TIP3   OH278348   2.137   1.191  14.030 -0.1716 -0.0082 -0.8511
18978TIP3    H178349   2.221   1.233  14.012  0.3635 -0.6956 -0.0361
18978TIP3    H278350   2.074   1.242  13.981  0.5630  1.2474 -0.5228
18979TIP3   OH278351   2.098   1.617   1.056  0.1929  0.0643  0.3427
18979TIP3    H178352   2.053   1.690   1.014 -0.3984 -0.7504 -0.4913
18979TIP3    H278353   2.047   1.600   1.135 -0.2316 -0.0345  0.0554
18980TIP3   OH278354   5.022   2.606  11.826 -0.0131  0.0393 -0.1368
18980TIP3    H178355   4.989   2.693  11.848  0.4178  0.1985 -0.0990
18980TIP3    H278356   4.979   2.585  11.743 -0.9376 -0.1737  0.3818
18981TIP3   OH278357   3.663   3.927  12.660  0.3523  0.1474 -0.0716
18981TIP3    H178358   3.670   3.941  12.566  0.6181  0.9031  0.0500
18981TIP3    H278359   3.719   3.852  12.678 -1.6753 -1.6651 -0.8656
18982TIP3   OH278360   1.645   5.876  12.075  0.6516  0.1871 -0.1879
18982TIP3    H178361   1.691   5.799  12.042  0.9805  0.7138 -0.9944
18982TIP3    H278362   1.625   5.855  12.167  0.0135 -1.1841 -0.6088
18983TIP3   OH278363   0.961   0.466   4.480 -0.8247 -0.0298  0.2788
18983TIP3    H178364   0.883   0.515   4.507 -2.5231 -1.7955 -1.1355
18983TIP3    H278365   0.961   0.388   4.535  0.4281  0.3193  0.8023
18984TIP3   OH278366   6.426   1.197   0.613 -0.5173  0.0982 -0.3037
18984TIP3    H178367   6.460   1.266   0.556 -1.2928  1.5043  0.8458
18984TIP3    H278368   6.442   1.230   0.702 -3.0342 -0.0796  0.2863
18985TIP3   OH278369   3.557   2.224  10.998 -0.2526 -0.4263  0.3203
18985TIP3    H178370   3.626   2.288  11.014 -0.6357  0.2505 -0.6215
18985TIP3    H278371   3.477   2.266  11.029 -0.5168 -0.4063 -0.3727
18986TIP3   OH278372   5.213   4.414  16.211  0.6263  0.2304  0.0010
18986TIP3    H178373   5.136   4.460  16.176 -0.6567 -2.0276 -0.2948
18986TIP3    H278374   5.186   4.385  16.298  1.4326  0.0672  0.1999
18987TIP3   OH278375   6.165   6.256  13.427 -0.3058 -0.5974  0.3007
18987TIP3    H178376   6.207   6.206  13.356  0.5991  1.3385 -0.6159
18987TIP3    H278377   6.211   6.227  13.506  0.7490 -0.6559 -0.3081
18988TIP3   OH278378   4.993   5.733  12.877  0.1893 -0.2465  0.5509
18988TIP3    H178379   5.079   5.692  12.882  0.0172 -0.5758  0.9543
18988TIP3    H278380   5.010   5.827  12.882  0.4464 -0.3491  2.0202
18989TIP3   OH278381   0.250   3.607  13.792 -0.0326  0.0310  0.4847
18989TIP3    H178382   0.343   3.607  13.815  0.4055 -1.5598 -1.0835
18989TIP3    H278383   0.247   3.650  13.707 -0.6673 -0.2908  0.3425
18990TIP3   OH278384   6.358   0.188   5.518  0.4112  0.2760  0.1516
18990TIP3    H178385   6.337   0.208   5.427  0.0231 -0.4498  0.0665
18990TIP3    H278386   6.415   0.111   5.513  1.8835  1.3146  0.4538
18991TIP3   OH278387   0.656   2.108  10.595 -0.3823  0.5538 -0.0707
18991TIP3    H178388   0.615   2.035  10.641 -0.8000  0.7316 -0.1528
18991TIP3    H278389   0.669   2.175  10.662 -1.1785  0.8906 -0.2454
18992TIP3   OH278390   4.371   5.365   2.003  0.2518 -0.0421 -0.4263
18992TIP3    H178391   4.441   5.419   1.968  2.3160 -2.1716  0.1446
18992TIP3    H278392   4.416   5.292   2.045 -2.3026 -0.9713  0.9246
18993TIP3   OH278393   3.404   1.410  16.671 -0.9484 -0.3588  0.0446
18993TIP3    H178394   3.448   1.473  16.615  0.6553 -0.3195  1.2805
18993TIP3    H278395   3.382   1.459  16.750  0.5495 -1.3318  1.1342
18994TIP3   OH278396   1.897   6.192   3.392  0.0754  0.5146  0.5010
18994TIP3    H178397   1.991   6.181   3.408  0.0988 -0.6816 -0.3301
18994TIP3    H278398   1.856   6.143   3.463  0.1083 -0.1454  0.0724
18995TIP3   OH278399   3.562   6.308   1.560  0.2365 -0.2289  0.4249
18995TIP3    H178400   3.497   6.238   1.550 -0.1145  0.3132 -1.4743
18995TIP3    H278401   3.623   6.294   1.489  2.2952 -0.7355  2.1944
18996TIP3   OH278402   2.315   5.385  16.613  0.1166  0.8679 -0.2839
18996TIP3    H178403   2.367   5.384  16.533 -1.7424  0.1247 -1.5436
18996TIP3    H278404   2.290   5.477  16.625 -0.5228  0.8256 -1.2051
18997TIP3   OH278405   1.552   6.542   2.667  0.0410 -0.3023 -0.0963
18997TIP3    H178406   1.601   6.536   2.585  0.1055 -0.0945 -0.0730
18997TIP3    H278407   1.540   6.451   2.694 -0.4978 -0.3986 -0.6407
18998TIP3   OH278408   5.332   5.521  14.203 -0.3883 -0.4214 -0.9566
18998TIP3    H178409   5.318   5.616  14.197 -1.6513 -0.4504  0.6765
18998TIP3    H278410   5.385   5.510  14.282 -0.9473 -1.1219 -0.6706
18999TIP3   OH278411   1.012   3.691  16.807  0.0709 -0.1212  0.3868
18999TIP3    H178412   1.022   3.779  16.771 -2.9652  0.9458  1.7746
18999TIP3    H278413   1.075   3.687  16.878  0.3546  0.8652  0.2107
19000TIP3   OH278414   6.411   3.926  14.663  0.1349  0.1912  0.3404
19000TIP3    H178415   6.471   4.000  14.676  0.1467  0.7236 -2.2944
19000TIP3    H278416   6.324   3.966  14.668 -0.1619 -0.5169  3.7498
19001TIP3   OH278417   3.430   2.173   1.722  0.1404  0.3729 -0.3990
19001TIP3    H178418   3.376   2.099   1.750  0.0963  0.8609  0.8945
19001TIP3    H278419   3.511   2.133   1.691  0.2453 -0.2148  0.5834
19002TIP3   OH278420   3.657   1.991  13.973  0.5444  0.8349 -0.2166
19002TIP3    H178421   3.623   1.904  13.950  0.4905  0.7400  0.2237
19002TIP3    H278422   3.687   2.027  13.889  1.4051  0.0321 -0.2772
19003TIP3   OH278423   0.753   4.769   0.987  0.4122 -0.1807 -0.4778
19003TIP3    H178424   0.753   4.696   1.050 -0.4572 -1.3487 -1.7769
19003TIP3    H278425   0.844   4.775   0.958  0.7018 -0.0286  0.4166
19004TIP3   OH278426   3.955   3.557  15.621  0.3489 -0.2645 -0.1738
19004TIP3    H178427   3.951   3.574  15.526  0.5962  0.2677 -0.0888
19004TIP3    H278428   4.048   3.562  15.643  0.3224 -0.6731  0.0524
19005TIP3   OH278429   5.637   1.632   2.000  0.0084  0.0350  0.3759
19005TIP3    H178430   5.572   1.622   1.930  1.3438 -2.6494 -0.6559
19005TIP3    H278431   5.705   1.687   1.962 -0.2111  0.2671  0.3155
19006TIP3   OH278432   4.658   1.562  10.927 -0.2449  0.0388  0.1216
19006TIP3    H178433   4.588   1.536  10.986  0.7480 -1.9792  0.4919
19006TIP3    H278434   4.730   1.588  10.985 -0.5955  1.9589 -0.2513
19007TIP3   OH278435   5.363   4.307   3.259 -0.0625 -0.8272 -0.0462
19007TIP3    H178436   5.429   4.335   3.196 -1.8977 -0.0120 -1.7356
19007TIP3    H278437   5.379   4.359   3.337 -0.2956  1.3227 -1.3657
19008TIP3   OH278438   4.015   6.072  13.440  0.0128 -0.1827  0.1071
19008TIP3    H178439   4.009   5.978  13.458  1.2040 -0.3106 -0.0713
19008TIP3    H278440   3.984   6.082  13.350 -2.8730  0.0207  1.0171
19009TIP3   OH278441   4.819   3.221  15.944 -0.1344  0.2300 -0.0190
19009TIP3    H178442   4.886   3.202  15.877 -0.7726 -2.8419  0.0858
19009TIP3    H278443   4.738   3.230  15.895 -0.3911 -0.7583  0.2046
19010TIP3   OH278444   1.294   0.574  12.801  0.2092  0.3085  0.0215
19010TIP3    H178445   1.232   0.642  12.827 -1.1393 -1.1543  0.7717
19010TIP3    H278446   1.369   0.622  12.766 -0.2071  2.2112  1.5892
19011TIP3   OH278447   4.817   1.758  14.200 -0.4887  0.5055  0.4206
19011TIP3    H178448   4.863   1.685  14.241 -0.5868  0.1504 -0.0900
19011TIP3    H278449   4.880   1.830  14.200 -0.0788  0.1493  0.1109
19012TIP3   OH278450   3.353   1.015  10.903  0.9847  0.2690 -0.2079
19012TIP3    H178451   3.365   0.998  10.809 -0.7909  0.1140 -0.4335
19012TIP3    H278452   3.384   1.105  10.915  0.5130  0.5641 -1.1097
19013TIP3   OH278453   5.594   3.291  15.696  0.0587  0.4459 -0.0021
19013TIP3    H178454   5.509   3.319  15.662 -0.8613 -0.1674  1.6612
19013TIP3    H278455   5.573   3.242  15.776  1.9863  0.3494  0.5005
19014TIP3   OH278456   1.738   3.910  14.296  0.6820  0.0772  0.8496
19014TIP3    H178457   1.771   3.951  14.216  0.4663  1.3672  1.4066
19014TIP3    H278458   1.815   3.864  14.331  0.2904 -2.3435 -1.1561
19015TIP3   OH278459   2.191   4.605  14.861  0.2415  0.3530 -0.0306
19015TIP3    H178460   2.264   4.667  14.864  0.8320 -0.3378  0.2465
19015TIP3    H278461   2.185   4.580  14.769 -0.7704  1.6987 -0.3537
19016TIP3   OH278462   0.327   0.448   4.958  0.3303  0.0861  0.4877
19016TIP3    H178463   0.252   0.397   4.928 -0.3474  1.6304 -0.5335
19016TIP3    H278464   0.400   0.416   4.904 -0.0970  0.2144 -0.1828
19017TIP3   OH278465   3.104   2.842   3.534 -0.2535  0.1663  0.1224
19017TIP3    H178466   3.111   2.753   3.571 -1.2848  0.3106  0.6817
19017TIP3    H278467   3.057   2.830   3.452 -2.9144  0.4798  1.4940
19018TIP3   OH278468   0.837   3.076   3.626 -0.1259 -1.0618 -0.9126
19018TIP3    H178469   0.898   3.050   3.694 -0.2709  0.1488 -0.2982
19018TIP3    H278470   0.810   2.994   3.585 -0.7960 -1.9209  1.1367
19019TIP3   OH278471   5.311   5.322  11.553  0.1017 -0.4397 -0.7651
19019TIP3    H178472   5.265   5.270  11.619 -1.3338  0.3784 -1.0694
19019TIP3    H278473   5.389   5.354  11.597 -0.5963 -0.2884  0.4039
19020TIP3   OH278474   3.201   3.464  13.344  0.0714 -0.5463 -0.0748
19020TIP3    H178475   3.270   3.527  13.368  0.3103 -0.6630 -0.4463
19020TIP3    H278476   3.203   3.462  13.248 -0.1416 -0.8915 -0.0716
19021TIP3   OH278477   6.391   0.597  14.065 -0.3911 -0.1718 -0.6235
19021TIP3    H178478   6.412   0.651  13.989 -0.1794  0.6477 -0.0007
19021TIP3    H278479   6.449   0.521  14.057 -2.3300 -1.5563 -2.7763
19022TIP3   OH278480   3.628   2.291  12.571 -0.2248  0.2255 -0.2112
19022TIP3    H178481   3.550   2.238  12.590  0.3930 -0.4418  0.5540
19022TIP3    H278482   3.595   2.379  12.557 -1.2364 -0.2630 -1.0110
19023TIP3   OH278483   0.045   3.471  13.150 -0.0155 -0.0381 -0.0572
19023TIP3    H178484   0.008   3.426  13.074 -0.1134  2.1493 -1.3706
19023TIP3    H278485   0.139   3.455  13.142 -0.2054 -1.8231  0.7657
19024TIP3   OH278486   5.574   4.864   3.272  0.2741  0.5906 -0.0952
19024TIP3    H178487   5.608   4.856   3.183 -0.5459  0.8496 -0.4477
19024TIP3    H278488   5.483   4.892   3.260 -0.7669 -2.1064  0.6934
19025TIP3   OH278489   6.053   3.814  14.963 -0.3767  0.1652 -0.0783
19025TIP3    H178490   6.090   3.775  15.043  2.1160  0.1727 -1.1351
19025TIP3    H278491   5.976   3.862  14.994 -0.0188 -0.5636  2.1814
19026TIP3   OH278492   1.209   0.686   4.742 -0.2779  0.1629 -0.5134
19026TIP3    H178493   1.151   0.635   4.799  0.8358  0.3376  0.8465
19026TIP3    H278494   1.155   0.758   4.711 -1.5481 -1.1731 -1.5282
19027TIP3   OH278495   3.622   4.830  12.861 -0.2250 -0.5291 -0.0355
19027TIP3    H178496   3.555   4.764  12.845  2.7483 -3.4775 -1.8972
19027TIP3    H278497   3.668   4.799  12.939  0.5204 -0.0165 -0.2597
19028TIP3   OH278498   0.801   1.362   6.013  0.1870  0.2717  0.7056
19028TIP3    H178499   0.849   1.346   6.095  0.0507  2.1070  1.1942
19028TIP3    H278500   0.713   1.331   6.031 -0.0880  1.4769  1.6314
19029TIP3   OH278501   0.358   4.304  12.850  0.0379 -0.2965  0.4971
19029TIP3    H178502   0.342   4.294  12.756  1.8496  0.7287  0.0327
19029TIP3    H278503   0.315   4.386  12.873 -0.7403 -0.7429  0.6690
19030TIP3   OH278504   0.472   2.676   4.328  0.1673  0.0873  0.4006
19030TIP3    H178505   0.407   2.609   4.308  0.4823 -0.7581  2.0960
19030TIP3    H278506   0.446   2.751   4.274  0.4414 -1.6906 -2.4053
19031TIP3   OH278507   5.205   4.520  12.742  0.3227 -0.0338  0.2053
19031TIP3    H178508   5.146   4.572  12.796  1.2288  2.3203 -0.9639
19031TIP3    H278509   5.152   4.493  12.668 -0.2821 -1.2843  1.0513
19032TIP3   OH278510   2.062   2.141   5.886 -0.0729 -0.2688  0.0637
19032TIP3    H178511   2.145   2.131   5.932 -0.3142 -2.1042  0.1813
19032TIP3    H278512   1.996   2.141   5.955 -0.2913 -0.9172 -0.1334
19033TIP3   OH278513   6.592   1.331  14.871 -0.1230 -0.8927  0.4830
19033TIP3    H178514   6.604   1.423  14.892  0.8399 -1.0928  0.8723
19033TIP3    H278515   6.522   1.302  14.930  1.1992 -0.9688  2.1001
19034TIP3   OH278516   2.265   5.634  12.022  0.3539 -0.3336 -0.3240
19034TIP3    H178517   2.359   5.645  12.006  0.3946  1.4318  0.8809
19034TIP3    H278518   2.260   5.586  12.105  0.3054  2.1457  1.2313
19035TIP3   OH278519   1.913   0.850   0.806  0.3934  0.2702 -0.0339
19035TIP3    H178520   1.929   0.907   0.881  0.9979 -0.8230  0.7004
19035TIP3    H278521   1.942   0.900   0.730 -2.4855  2.4066  0.1065
19036TIP3   OH278522   1.785   5.394   3.451 -0.4229  0.0971  0.3303
19036TIP3    H178523   1.858   5.433   3.499 -0.7205  0.3183  0.6072
19036TIP3    H278524   1.810   5.403   3.359 -0.1813  0.3321  0.4170
19037TIP3   OH278525   4.588   3.168   3.059 -0.0805  0.6385  0.4100
19037TIP3    H178526   4.603   3.199   3.148  1.9821 -0.3953  0.4815
19037TIP3    H278527   4.637   3.086   3.054  0.0205  0.7794 -1.7445
19038TIP3   OH278528   2.465   5.670  16.096  0.1008  0.0950 -0.3889
19038TIP3    H178529   2.408   5.628  16.031 -0.4454  0.8908 -0.4434
19038TIP3    H278530   2.423   5.754  16.114  0.4167  0.0326  0.7512
19039TIP3   OH278531   0.789   2.923   3.968 -0.4929 -0.4132  0.0383
19039TIP3    H178532   0.868   2.951   3.920 -0.1720 -0.8744  0.2830
19039TIP3    H278533   0.743   2.866   3.907 -0.7516  0.0280 -0.1832
19040TIP3   OH278534   2.215   2.948   2.383  0.1645  0.0912 -0.5285
19040TIP3    H178535   2.263   3.021   2.421  0.4804  0.7466 -2.1017
19040TIP3    H278536   2.233   2.874   2.441  1.6570  0.7394 -0.1195
19041TIP3   OH278537   3.383   6.370  16.217 -0.1346  0.1119  0.4968
19041TIP3    H178538   3.327   6.436  16.258  0.0959  0.1213  0.8046
19041TIP3    H278539   3.472   6.405  16.227 -0.1026  0.3213 -0.3916
19042TIP3   OH278540   1.308   3.034   4.380 -0.2882 -0.2679  0.4890
19042TIP3    H178541   1.372   3.102   4.402 -1.2609  0.4524  1.1169
19042TIP3    H278542   1.345   2.992   4.302  0.8650  0.2420  0.7313
19043TIP3   OH278543   0.532   3.606  12.942 -0.1200  0.6156 -0.4042
19043TIP3    H178544   0.603   3.581  13.001 -1.4662  1.0252  1.4467
19043TIP3    H278545   0.577   3.651  12.870  1.4515  1.6745  1.1445
19044TIP3   OH278546   4.890   0.708   5.302 -0.4137 -0.6569 -0.7999
19044TIP3    H178547   4.923   0.648   5.235  0.5318 -3.0303  1.6221
19044TIP3    H278548   4.933   0.791   5.282 -0.7553 -1.0235 -3.5156
19045TIP3   OH278549   6.674   2.993  16.100  0.3663  0.8662  0.7351
19045TIP3    H178550   6.724   2.953  16.029 -0.8896 -1.2172  0.9136
19045TIP3    H278551   6.726   2.976  16.178  0.3154  0.4209  0.6768
19046TIP3   OH278552   1.514   5.814  16.524 -0.5898  0.0352 -0.2440
19046TIP3    H178553   1.518   5.726  16.488 -1.2601  0.8784 -2.5721
19046TIP3    H278554   1.433   5.815  16.575 -0.7386 -0.6005 -0.4564
19047TIP3   OH278555   0.746   0.955  12.900 -0.1875 -0.1431  0.3297
19047TIP3    H178556   0.762   1.016  12.828 -0.8645 -1.8796 -1.3755
19047TIP3    H278557   0.828   0.954  12.949  0.5998  0.4498 -0.9262
19048TIP3   OH278558   3.002   1.735   1.666  0.5508  0.4550 -0.1517
19048TIP3    H178559   3.095   1.721   1.685  0.6422  0.8280 -0.2974
19048TIP3    H278560   2.967   1.775   1.746  0.4837  0.1841 -0.0456
19049TIP3   OH278561   0.574   5.086  12.665  0.4082 -0.3064 -0.2406
19049TIP3    H178562   0.644   5.024  12.643  0.2202 -0.0793 -1.5339
19049TIP3    H278563   0.498   5.055  12.617 -0.2362 -0.1969  0.6806
19050TIP3   OH278564   0.817   2.315  14.067  0.1626  0.0388 -0.3453
19050TIP3    H178565   0.758   2.295  13.994 -0.0197 -1.0906  0.0874
19050TIP3    H278566   0.872   2.237  14.075  0.6929  0.4693  0.2359
19051TIP3   OH278567   4.967   1.886   5.948  0.5063  0.3769  0.0452
19051TIP3    H178568   5.019   1.895   5.868  1.1277  0.1039  0.4112
19051TIP3    H278569   4.899   1.954   5.941 -0.1265 -0.3600 -1.2210
19052TIP3   OH278570   6.755   3.515   2.756  0.0319  0.4415 -0.3862
19052TIP3    H178571   6.793   3.536   2.671 -0.1496  2.6391  0.0157
19052TIP3    H278572   6.824   3.536   2.819 -0.9474  2.1685  0.1904
19053TIP3   OH278573   3.276   1.451  11.988 -0.6137 -0.0663 -0.2756
19053TIP3    H178574   3.300   1.425  12.077 -1.4209 -1.9931 -0.5711
19053TIP3    H278575   3.359   1.474  11.947 -0.1426  0.1120  0.7415
19054TIP3   OH278576   1.083   3.734   2.478 -0.2081 -0.2949 -0.2746
19054TIP3    H178577   1.103   3.816   2.433 -1.1088 -0.6232 -1.3113
19054TIP3    H278578   1.117   3.746   2.567 -1.4956  1.6934 -0.0099
19055TIP3   OH278579   3.976   5.625  12.941 -0.5794 -0.2227 -0.0784
19055TIP3    H178580   3.888   5.643  12.974 -0.9035 -0.9733 -0.4914
19055TIP3    H278581   4.021   5.582  13.014 -0.6168 -0.0046  0.0733
19056TIP3   OH278582   4.115   6.720   4.891  0.1446 -0.3714 -0.3056
19056TIP3    H178583   4.043   6.705   4.953 -0.5147 -0.0105 -0.9743
19056TIP3    H278584   4.091   6.669   4.814  0.0089  0.6755 -0.9779
19057TIP3   OH278585   5.272   0.663   0.663  0.2177 -0.0277 -0.8960
19057TIP3    H178586   5.339   0.613   0.711  0.4831 -0.0419 -1.2770
19057TIP3    H278587   5.217   0.701   0.732  0.9247  0.4091 -0.5614
19058TIP3   OH278588   1.086   2.997  15.287  0.0389  0.1046  0.1398
19058TIP3    H178589   1.120   3.057  15.220  2.5346 -1.4643 -0.1259
19058TIP3    H278590   1.019   2.946  15.241 -1.3679  1.8767  0.0860
19059TIP3   OH278591   0.279   4.644  16.123  0.0094  0.1031  0.2680
19059TIP3    H178592   0.360   4.633  16.072  0.4235  1.2602  0.6506
19059TIP3    H278593   0.266   4.739  16.126 -1.1960 -0.0582  0.4910
19060TIP3   OH278594   0.092   0.449   2.771 -0.2666 -0.2102 -0.1155
19060TIP3    H178595   0.136   0.512   2.714 -0.3344 -0.4343 -0.4237
19060TIP3    H278596   0.145   0.447   2.850 -0.1863  0.1293 -0.1581
19061TIP3   OH278597   5.301   2.252   1.065 -0.9112 -0.4191  0.2226
19061TIP3    H178598   5.353   2.327   1.036  1.1114 -1.3960  1.0923
19061TIP3    H278599   5.303   2.192   0.990  2.7656 -2.1511  1.4313
19062TIP3   OH278600   1.845   6.237   1.892  0.0419 -0.2088 -0.1443
19062TIP3    H178601   1.902   6.308   1.920  0.3842 -0.7887  0.6583
19062TIP3    H278602   1.785   6.278   1.829  0.3345  0.7448  0.1798
19063TIP3   OH278603   5.113   0.217   0.688  0.4692 -0.1639  0.2841
19063TIP3    H178604   5.165   0.256   0.758  0.7670  0.7280 -0.4012
19063TIP3    H278605   5.100   0.289   0.625 -3.4814  0.3243  1.3951
19064TIP3   OH278606   5.579   5.258  11.951 -0.4485 -0.3361 -0.6304
19064TIP3    H178607   5.522   5.225  11.882  0.1651  0.2890 -1.4609
19064TIP3    H278608   5.583   5.352  11.935  2.0376 -0.5290 -1.5837
19065TIP3   OH278609   6.368   1.370   3.611  0.1728  0.1357 -0.1300
19065TIP3    H178610   6.350   1.374   3.517  0.7879  1.2749 -0.2185
19065TIP3    H278611   6.309   1.434   3.650  0.3239  0.0815  0.1944
19066TIP3   OH278612   3.648   0.705   5.126 -0.0657  0.2538  0.2055
19066TIP3    H178613   3.582   0.724   5.059  0.6158  1.6776 -0.1104
19066TIP3    H278614   3.656   0.787   5.175  1.4933  0.1339  0.2043
19067TIP3   OH278615   2.931   4.542  12.202 -0.1366 -0.3346  0.3128
19067TIP3    H178616   2.849   4.506  12.235  0.3975 -0.6508  1.3184
19067TIP3    H278617   2.990   4.541  12.277  1.0117 -0.7783 -0.5688
19068TIP3   OH278618   6.165   0.994  14.633 -0.1224 -0.1792 -0.1859
19068TIP3    H178619   6.212   0.941  14.698 -1.7972  0.6902  1.8825
19068TIP3    H278620   6.105   1.047  14.686 -1.3058  0.8728 -2.4729
19069TIP3   OH278621   0.798   5.594   4.033  0.5298  0.0554 -0.2990
19069TIP3    H178622   0.753   5.510   4.029  0.9253 -0.2098  0.4989
19069TIP3    H278623   0.733   5.655   4.068  0.4486 -0.0756 -0.2209
19070TIP3   OH278624   6.497   3.438  12.429 -0.4920 -0.0498  0.2503
19070TIP3    H178625   6.536   3.505  12.374 -0.7060  0.3056  0.5207
19070TIP3    H278626   6.547   3.358  12.411 -1.5935 -0.3677 -1.6813
19071TIP3   OH278627   3.905   2.717   2.500  0.0675  0.2582 -0.4583
19071TIP3    H178628   3.817   2.727   2.536 -0.1403  0.1517 -0.9360
19071TIP3    H278629   3.903   2.766   2.418  0.7470  1.0883  0.0095
19072TIP3   OH278630   4.255   4.577   3.962 -0.7119 -0.4685 -0.5614
19072TIP3    H178631   4.179   4.610   3.915 -1.2059  1.2914  1.3025
19072TIP3    H278632   4.320   4.647   3.953 -0.6061 -0.3676  0.7817
19073TIP3   OH278633   5.466   3.731  13.270  0.2122  0.2507 -0.1095
19073TIP3    H178634   5.479   3.825  13.284 -3.2237  0.9838 -0.9438
19073TIP3    H278635   5.478   3.692  13.357  0.9421  1.5705  0.4076
19074TIP3   OH278636   4.038   1.737   1.664  0.6567 -0.7037  0.0162
19074TIP3    H178637   4.011   1.777   1.581 -1.7574 -0.4317  0.8741
19074TIP3    H278638   3.956   1.715   1.708  1.8684 -0.4495  2.5428
19075TIP3   OH278639   2.770   6.115   3.338  0.2974 -0.2691  0.0789
19075TIP3    H178640   2.769   6.088   3.246  0.5529 -0.3548  0.1001
19075TIP3    H278641   2.854   6.083   3.372 -0.1789 -1.0340  0.5777
19076TIP3   OH278642   2.849   6.013  14.707  0.1736 -0.2644 -0.1011
19076TIP3    H178643   2.890   6.069  14.641  1.1076 -0.4710  0.2847
19076TIP3    H278644   2.783   5.963  14.658  0.7399 -0.3029 -0.8505
19077TIP3   OH278645   3.168   2.469   2.913 -0.4247  0.2957  0.0663
19077TIP3    H178646   3.107   2.496   2.982  0.0124  0.0795  0.5504
19077TIP3    H278647   3.180   2.375   2.927  0.4023  0.4248  0.2996
19078TIP3   OH278648   1.299   4.263   6.341 -0.6886  0.4048 -0.2356
19078TIP3    H178649   1.356   4.210   6.285 -0.5774 -0.7836  0.9288
19078TIP3    H278650   1.346   4.346   6.351  1.0428 -0.6364  0.9105
19079TIP3   OH278651   5.203   4.115   4.118 -0.7052 -0.2700  0.1113
19079TIP3    H178652   5.187   4.050   4.187 -1.3857  0.5832  0.7894
19079TIP3    H278653   5.291   4.147   4.135 -0.4659 -0.8216 -0.0665
19080TIP3   OH278654   6.563   4.543   1.971 -0.3124  0.7525  0.4332
19080TIP3    H178655   6.496   4.585   2.024 -1.3845  1.6127 -1.4861
19080TIP3    H278656   6.645   4.585   1.997 -0.7846  1.0885  1.4261
19081TIP3   OH278657   1.364   2.911  13.715 -0.3790  0.0352 -0.0114
19081TIP3    H178658   1.336   2.823  13.691  0.5861  0.6645 -4.2670
19081TIP3    H278659   1.283   2.962  13.722 -0.8757 -0.9035  1.4575
19082TIP3   OH278660   3.107   2.920   0.203  0.0557 -0.2370  0.7039
19082TIP3    H178661   3.127   2.992   0.264 -0.8393 -0.7762  1.6645
19082TIP3    H278662   3.020   2.890   0.229  0.6342 -2.0283  0.6926
19083TIP3   OH278663   5.169   4.234  14.337  0.1507  0.5533  0.0059
19083TIP3    H178664   5.108   4.307  14.349  0.4975  0.8427  0.0320
19083TIP3    H278665   5.133   4.183  14.264 -0.5040  0.3208  0.4843
19084TIP3   OH278666   2.110   2.721  11.816  0.1029 -0.1436  0.1355
19084TIP3    H178667   2.068   2.754  11.737  0.0155  0.5866  0.4803
19084TIP3    H278668   2.067   2.638  11.834  0.2782 -0.4250 -0.7083
19085TIP3   OH278669   1.937   6.043   2.709  0.0397  0.1811  0.3301
19085TIP3    H178670   1.870   5.982   2.678  0.6447 -0.9435  1.1498
19085TIP3    H278671   1.997   6.052   2.635 -0.1761 -0.0506  0.1250
19086TIP3   OH278672   1.143   4.440  15.521 -0.1446 -0.5894 -0.5821
19086TIP3    H178673   1.089   4.518  15.530 -0.1987 -0.5111 -1.5062
19086TIP3    H278674   1.213   4.451  15.586  0.2336  0.5437 -1.1646
19087TIP3   OH278675   2.837   0.281   1.979  0.0211 -0.2648 -0.0233
19087TIP3    H178676   2.781   0.293   2.055 -0.9310  0.5931 -0.8368
19087TIP3    H278677   2.924   0.267   2.015 -0.7005 -1.7028  1.2759
19088TIP3   OH278678   3.987   1.667   2.101  0.0402  0.0229  0.0482
19088TIP3    H178679   4.051   1.738   2.104 -0.8609  0.8269  1.5835
19088TIP3    H278680   4.007   1.613   2.178 -1.0058  0.1938  0.4539
19089TIP3   OH278681   0.757   5.289   0.692 -0.0154 -0.1305 -0.1080
19089TIP3    H178682   0.693   5.231   0.650 -0.2581  0.3112 -0.3590
19089TIP3    H278683   0.829   5.293   0.630  0.3504 -0.7788  0.2588
19090TIP3   OH278684   2.290   5.242  16.864  0.4545 -0.1780  0.2475
19090TIP3    H178685   2.334   5.161  16.835  0.0215 -0.1552 -0.4815
19090TIP3    H278686   2.299   5.302  16.790  0.2170  0.2302  0.5482
19091TIP3   OH278687   0.783   0.915   3.075  0.1275 -0.2235 -0.3225
19091TIP3    H178688   0.742   0.964   3.146  1.3084  1.2274 -0.5843
19091TIP3    H278689   0.750   0.826   3.085 -0.7261  0.2271  1.2477
19092TIP3   OH278690   0.663   0.118  12.195  0.0796 -0.3983  0.1911
19092TIP3    H178691   0.665   0.131  12.100 -0.5525  2.0350  0.4442
19092TIP3    H278692   0.580   0.158  12.222  1.0009  0.3903  1.9371
19093TIP3   OH278693   4.950   0.162   5.387  0.0561  0.1400 -0.4871
19093TIP3    H178694   4.875   0.212   5.416 -1.4049 -2.5697  0.8386
19093TIP3    H278695   5.026   0.209   5.421 -1.2165  1.3990  0.7053
19094TIP3   OH278696   0.750   3.592  12.431  0.4138 -0.0813 -0.1165
19094TIP3    H178697   0.836   3.590  12.389  0.0150  0.2017 -0.9746
19094TIP3    H278698   0.688   3.596  12.358 -0.2783  1.1691  0.4947
19095TIP3   OH278699   4.808   5.404  14.844  0.3690  0.1544  0.0894
19095TIP3    H178700   4.773   5.315  14.856 -1.2585  0.8450  0.8044
19095TIP3    H278701   4.792   5.423  14.752  1.3135 -0.4982 -0.2327
19096TIP3   OH278702   1.310   0.453   0.496  0.3904  0.1192  0.2952
19096TIP3    H178703   1.216   0.435   0.495  0.7262 -1.9047  0.3221
19096TIP3    H278704   1.319   0.538   0.453 -1.5747  1.2025  1.8921
19097TIP3   OH278705   4.215   3.667   2.944  0.5065  0.6686  0.3495
19097TIP3    H178706   4.158   3.612   2.999 -1.7283  0.5309 -1.9293
19097TIP3    H278707   4.196   3.757   2.973 -0.5585  0.5892 -0.0575
19098TIP3   OH278708   1.880   0.625   5.347  0.5345  0.7605 -0.5878
19098TIP3    H178709   1.860   0.662   5.262 -1.6833  0.6152 -0.1962
19098TIP3    H278710   1.831   0.679   5.409  0.7570 -0.1636  0.4304
19099TIP3   OH278711   1.793   5.433  15.721  0.6271  0.2809  0.1124
19099TIP3    H178712   1.751   5.460  15.803  1.1827  2.8803 -0.3709
19099TIP3    H278713   1.785   5.510  15.664  3.8250  0.0356 -0.8464
19100TIP3   OH278714   1.384   5.034  14.678  0.1930  0.2903  0.3451
19100TIP3    H178715   1.290   5.016  14.677  0.3971 -0.8729 -0.7821
19100TIP3    H278716   1.423   4.958  14.721  0.5827  1.0230  1.3029
19101TIP3   OH278717   3.428   6.100   2.135 -0.0377 -0.1357 -0.1982
19101TIP3    H178718   3.444   6.194   2.139  0.5894 -0.2440  0.0160
19101TIP3    H278719   3.497   6.066   2.078  2.1267 -0.9293  2.6177
19102TIP3   OH278720   1.574   2.476  15.517  0.2956  0.3550 -0.8807
19102TIP3    H178721   1.479   2.478  15.521  0.2214 -1.1514 -1.1274
19102TIP3    H278722   1.601   2.568  15.517 -0.9812  0.8544  2.5671
19103TIP3   OH278723   1.609   6.770   2.059  0.3474  0.8097  0.2505
19103TIP3    H178724   1.645   6.859   2.051 -0.6497  1.2134  0.0264
19103TIP3    H278725   1.620   6.732   1.972  0.2188  0.9424  0.1754
19104TIP3   OH278726   4.304   0.793  15.995 -0.6233 -0.2961  0.4869
19104TIP3    H178727   4.307   0.700  15.971 -2.8930 -0.6291  1.2202
19104TIP3    H278728   4.298   0.793  16.090  2.5266  0.8003  0.7893
19105TIP3   OH278729   3.740   5.972  14.414 -0.0917 -0.3598  0.0816
19105TIP3    H178730   3.833   5.995  14.412 -0.0639 -0.4903 -1.8859
19105TIP3    H278731   3.736   5.886  14.374 -1.1567  0.0259 -0.6848
19106TIP3   OH278732   4.963   6.331   1.062 -0.2255 -0.3287 -0.6029
19106TIP3    H178733   4.973   6.279   1.141  0.0877 -0.7053 -0.8862
19106TIP3    H278734   5.044   6.383   1.056 -0.4099 -0.0247 -0.4768
19107TIP3   OH278735   5.418   2.342   3.319 -0.1681 -0.3253  0.2808
19107TIP3    H178736   5.360   2.401   3.271 -0.5726 -1.7065 -1.0176
19107TIP3    H278737   5.501   2.389   3.324 -1.6799  2.4250  3.6133
19108TIP3   OH278738   0.389   0.808  16.670  0.3383  0.2415  0.1909
19108TIP3    H178739   0.482   0.803  16.644 -0.6868 -1.4978 -4.1164
19108TIP3    H278740   0.371   0.901  16.675  2.1835  0.6288  0.4296
19109TIP3   OH278741   4.351   3.225   1.016 -0.0583  0.3083 -0.3803
19109TIP3    H178742   4.355   3.197   0.925  1.6632  1.2647 -0.6360
19109TIP3    H278743   4.424   3.286   1.026 -1.5899  2.0434  1.0294
19110TIP3   OH278744   6.364   4.225   5.747 -0.2797 -0.0650  0.0159
19110TIP3    H178745   6.416   4.148   5.723 -0.5173  0.1439 -1.2724
19110TIP3    H278746   6.394   4.249   5.835 -0.1876 -1.6007  0.4225
19111TIP3   OH278747   5.653   1.181  13.499  0.5993 -0.2315 -0.0888
19111TIP3    H178748   5.696   1.266  13.487 -0.3098  0.2991  0.2828
19111TIP3    H278749   5.711   1.134  13.559  0.8107  0.3629  0.1892
19112TIP3   OH278750   6.540   4.970   2.484  0.0490  0.0381 -0.5034
19112TIP3    H178751   6.589   4.901   2.529 -0.9613 -1.8477 -2.1474
19112TIP3    H278752   6.448   4.950   2.500 -0.2772  1.3756 -0.5376
19113TIP3   OH278753   1.276   2.581  16.906 -0.3783 -0.8280 -0.5890
19113TIP3    H178754   1.331   2.507  16.931  1.1351 -0.3013 -2.1571
19113TIP3    H278755   1.223   2.549  16.834 -1.0092 -0.8778 -0.1101
19114TIP3   OH278756   5.888   2.122  14.851  0.4082  0.1971 -0.0418
19114TIP3    H178757   5.830   2.188  14.815  0.4587 -0.4382 -1.3522
19114TIP3    H278758   5.867   2.042  14.802  1.6223 -0.2989  0.1994
19115TIP3   OH278759   0.730   1.614  13.884 -0.1098 -0.1837  0.0390
19115TIP3    H178760   0.669   1.593  13.813 -0.7097 -0.1934  0.5403
19115TIP3    H278761   0.701   1.700  13.915 -0.8570 -0.8463  1.2788
19116TIP3   OH278762   3.914   4.179   3.799 -0.5909 -0.3276 -0.4177
19116TIP3    H178763   3.824   4.196   3.824 -0.1237  2.4454 -0.2868
19116TIP3    H278764   3.908   4.146   3.709 -1.8101 -3.2166  0.5779
19117TIP3   OH278765   4.070   3.356  14.958  1.3354  0.2745 -0.1792
19117TIP3    H178766   4.143   3.294  14.965 -0.1689 -1.5291  0.7148
19117TIP3    H278767   3.995   3.301  14.934  0.0886  1.9131 -0.1969
19118TIP3   OH278768   1.690   5.534  15.978  0.8058  0.0478  0.2519
19118TIP3    H178769   1.645   5.618  15.970  0.1150 -0.3863 -0.4923
19118TIP3    H278770   1.715   5.529  16.070 -1.4889 -0.0963  0.9323
19119TIP3   OH278771   5.872   3.497   1.812 -0.3655  0.4003 -0.0188
19119TIP3    H178772   5.802   3.560   1.829 -0.7155  0.4872 -1.5693
19119TIP3    H278773   5.935   3.545   1.759  0.3128 -0.0069  0.4074
19120TIP3   OH278774   5.292   4.232   1.817 -0.0200 -0.3736  0.4070
19120TIP3    H178775   5.217   4.291   1.818  0.2876  0.0766  2.3483
19120TIP3    H278776   5.321   4.229   1.909  1.8365 -1.1560 -0.1530
19121TIP3   OH278777   4.045   6.747   5.754 -0.2244  0.0304 -0.7101
19121TIP3    H178778   4.141   6.746   5.754 -0.2182 -0.0844  0.3093
19121TIP3    H278779   4.021   6.839   5.764 -0.2191 -0.0074 -0.3569
19122TIP3   OH278780   3.785   1.499   4.941  0.2016  0.1575  0.2663
19122TIP3    H178781   3.707   1.485   4.888  0.6758  0.1501 -0.4396
19122TIP3    H278782   3.854   1.452   4.895  1.1934  2.2486 -0.5334
19123TIP3   OH278783   3.856   2.628  16.167  0.0540  0.0165 -0.3289
19123TIP3    H178784   3.798   2.633  16.243  0.3980  1.0556 -0.1127
19123TIP3    H278785   3.908   2.708  16.172  0.9650 -0.5181 -0.9536
19124TIP3   OH278786   2.972   3.718  14.315 -0.1456 -0.4232  0.7202
19124TIP3    H178787   2.959   3.740  14.223 -2.3373  1.1308  1.3376
19124TIP3    H278788   2.935   3.630  14.324 -0.3294 -0.4014  0.2042
19125TIP3   OH278789   0.042   4.244  13.500 -0.1855  0.4432 -0.0730
19125TIP3    H178790   0.061   4.204  13.415 -1.0696  1.6475 -0.8666
19125TIP3    H278791   0.100   4.320  13.503 -0.1743  0.4158  0.3964
19126TIP3   OH278792   4.412   6.091   1.221  0.7907  0.3702 -0.1497
19126TIP3    H178793   4.421   6.070   1.314 -0.3454  1.9805  0.3698
19126TIP3    H278794   4.350   6.026   1.188  1.3137 -0.3044  0.1592
19127TIP3   OH278795   2.755   1.861   5.858 -0.5021 -0.7108 -0.8275
19127TIP3    H178796   2.789   1.844   5.945 -1.2660 -1.5207 -0.6866
19127TIP3    H278797   2.721   1.951   5.863 -1.5033 -1.1292  0.0097
19128TIP3   OH278798   4.340   0.220  11.465 -0.2609 -0.2763 -0.3450
19128TIP3    H178799   4.274   0.151  11.471 -2.2107  1.3252 -1.6587
19128TIP3    H278800   4.373   0.214  11.375 -0.7609  0.6897 -0.6179
19129TIP3   OH278801   1.570   6.535   1.110 -0.0252  0.1703  0.0930
19129TIP3    H178802   1.521   6.495   1.038 -0.2984  1.3180 -0.3873
19129TIP3    H278803   1.525   6.618   1.125  1.0058  0.6591  0.5271
19130TIP3   OH278804   0.698   1.209   0.488  0.1724  0.0033 -0.1117
19130TIP3    H178805   0.763   1.263   0.534  0.1814 -1.7800  2.1516
19130TIP3    H278806   0.739   1.123   0.482 -0.6084 -0.2925 -1.9294
19131TIP3   OH278807   0.204   6.387   3.281 -0.1245 -0.4023  0.2357
19131TIP3    H178808   0.133   6.447   3.258 -0.5193 -0.9941 -0.1042
19131TIP3    H278809   0.224   6.408   3.372 -0.1594  0.3424  0.0822
19132TIP3   OH278810   3.278   1.817  12.157  0.4133  0.2785 -0.4728
19132TIP3    H178811   3.217   1.791  12.088 -1.0158  0.6094  0.6129
19132TIP3    H278812   3.280   1.912  12.154 -0.7217  0.3728  0.7758
19133TIP3   OH278813   0.202   4.330   5.584 -0.6633 -0.2071  0.2627
19133TIP3    H178814   0.292   4.307   5.560 -0.1941  1.6458  0.0944
19133TIP3    H278815   0.178   4.399   5.522 -1.6236  0.4272  1.3024
19134TIP3   OH278816   1.049   1.371   1.459 -0.1361  0.5219  0.4154
19134TIP3    H178817   1.098   1.294   1.429  0.6290  1.2118 -0.1221
19134TIP3    H278818   1.084   1.444   1.409 -0.4176  1.3378  1.3634
19135TIP3   OH278819   1.195   5.004   5.969  0.0931  0.0946 -0.9748
19135TIP3    H178820   1.169   4.917   6.001  0.0967 -0.0278 -1.3013
19135TIP3    H278821   1.288   4.996   5.949  0.7191  0.8674  1.3298
19136TIP3   OH278822   4.166   1.773  16.787  0.2421  0.2243 -0.2434
19136TIP3    H178823   4.118   1.774  16.704 -2.0863 -0.2385  1.0060
19136TIP3    H278824   4.134   1.849  16.835  1.0732  0.1233  0.5075
19137TIP3   OH278825   2.182   3.049   1.281  0.6382  0.1113  0.3764
19137TIP3    H178826   2.147   3.095   1.357  0.6558  1.9916 -0.6905
19137TIP3    H278827   2.178   3.113   1.210  0.7827 -1.5257 -1.1815
19138TIP3   OH278828   3.019   4.237  14.614 -0.2266  0.1617  0.0491
19138TIP3    H178829   2.941   4.206  14.570  1.7253 -2.4567 -1.9103
19138TIP3    H278830   3.041   4.319  14.569 -1.5736  0.7057  0.3471
19139TIP3   OH278831   3.548   2.940   2.269  0.3910 -0.0044  0.2686
19139TIP3    H178832   3.615   2.997   2.230  0.3763 -0.4787 -0.4796
19139TIP3    H278833   3.466   2.968   2.227  0.1489  0.4207  1.0100
19140TIP3   OH278834   0.095   2.586   2.570  0.6499  0.5755  0.1459
19140TIP3    H178835   0.109   2.623   2.657 -0.1311  1.6490 -0.1636
19140TIP3    H278836   0.090   2.662   2.512  0.9410 -0.1155 -0.8158
19141TIP3   OH278837   5.031   5.071  13.567  0.5647 -0.4485  0.3923
19141TIP3    H178838   5.034   5.165  13.581 -0.3100 -0.6282  1.9553
19141TIP3    H278839   5.106   5.036  13.616 -0.4486 -0.7537  1.7786
19142TIP3   OH278840   0.175   6.748  13.323 -0.3693  0.7715 -0.1385
19142TIP3    H178841   0.257   6.745  13.275  0.3537 -0.9632  1.1009
19142TIP3    H278842   0.165   6.840  13.347  1.4836  0.9371  0.1351
19143TIP3   OH278843   2.084   4.327   4.839  1.0271 -0.0680  0.1492
19143TIP3    H178844   2.112   4.242   4.806 -0.8663 -1.8284  2.6699
19143TIP3    H278845   2.071   4.380   4.760  1.2861 -2.4148 -1.5894
19144TIP3   OH278846   1.139   3.371   2.968 -0.0522 -0.0661  0.0445
19144TIP3    H178847   1.086   3.399   3.043 -0.8533 -0.1497 -0.4686
19144TIP3    H278848   1.089   3.297   2.931 -0.1481  0.5514 -1.1031
19145TIP3   OH278849   5.618   6.581  14.347  0.5289  0.3917 -0.4077
19145TIP3    H178850   5.645   6.577  14.439 -0.6366 -0.5665 -0.0913
19145TIP3    H278851   5.685   6.532  14.300 -0.1733 -1.2818  0.2721
19146TIP3   OH278852   4.113   4.443  12.153  0.4120  0.0227 -0.3197
19146TIP3    H178853   4.088   4.532  12.178  1.8340  0.7226 -1.2169
19146TIP3    H278854   4.031   4.394  12.154 -0.6108  1.6233 -0.9829
19147TIP3   OH278855   4.590   2.690  13.892 -0.2607  0.0171  0.4069
19147TIP3    H178856   4.679   2.655  13.884  0.0134  0.4655  1.3313
19147TIP3    H278857   4.563   2.707  13.802  0.3115 -0.8081  0.0727
19148TIP3   OH278858   4.586   4.208  14.906  0.4197 -0.0976 -0.5152
19148TIP3    H178859   4.536   4.207  14.824 -0.6863 -1.0881  0.1450
19148TIP3    H278860   4.648   4.136  14.897 -0.8029 -1.2712  0.1461
19149TIP3   OH278861   2.052   0.969   5.282  0.4125 -0.3699  0.4618
19149TIP3    H178862   2.034   0.937   5.370 -0.9293 -0.4365  0.1812
19149TIP3    H278863   1.992   0.920   5.226  0.3242  0.6089 -0.3287
19150TIP3   OH278864   0.753   3.247  11.524 -0.1078 -0.5331  0.1190
19150TIP3    H178865   0.821   3.314  11.529  0.4056 -1.1194  1.7241
19150TIP3    H278866   0.695   3.277  11.454  1.0416  0.6863 -0.3630
19151TIP3   OH278867   1.259   0.591  14.401 -0.1561 -0.9847 -0.3889
19151TIP3    H178868   1.350   0.590  14.429 -0.0450 -1.0204 -0.7442
19151TIP3    H278869   1.256   0.656  14.331 -0.6988  0.0412  0.5694
19152TIP3   OH278870   1.488   1.808   4.122  0.1881 -0.1716 -0.8605
19152TIP3    H178871   1.581   1.807   4.099  0.3435 -0.9528 -0.2569
19152TIP3    H278872   1.464   1.715   4.127 -0.1731 -0.0312  0.6846
19153TIP3   OH278873   5.689   3.620  17.124  0.1619 -1.1483 -0.2427
19153TIP3    H178874   5.729   3.617  17.211  0.8690  0.0050 -0.5013
19153TIP3    H278875   5.596   3.606  17.139  0.1089  0.1578  0.8466
19154TIP3   OH278876   5.438   1.563   4.672  0.0941 -0.3938 -0.1394
19154TIP3    H178877   5.358   1.564   4.619 -1.1343  0.0245  1.6290
19154TIP3    H278878   5.408   1.538   4.760  1.8924 -0.0946  0.5992
19155TIP3   OH278879   4.607   5.205   4.640  0.0363 -0.2935  0.2606
19155TIP3    H178880   4.609   5.148   4.563 -0.2085 -1.0044  0.7694
19155TIP3    H278881   4.637   5.149   4.712  2.1362  0.8741  0.3773
19156TIP3   OH278882   3.152   2.551   3.529 -0.1837 -0.0085  0.3497
19156TIP3    H178883   3.198   2.547   3.613 -0.2549  0.8098  0.4323
19156TIP3    H278884   3.215   2.592   3.469 -0.1025 -0.6651 -0.0242
19157TIP3   OH278885   6.020   5.473   2.950 -0.1564 -0.1674  0.0646
19157TIP3    H178886   6.104   5.466   2.905  0.6163  2.7350  0.7875
19157TIP3    H278887   6.043   5.506   3.037 -2.0305  2.5015 -0.3094
19158TIP3   OH278888   5.953   4.544  14.017  0.5842 -0.3931  0.1495
19158TIP3    H178889   5.858   4.557  14.011  0.8243  3.2079  1.5176
19158TIP3    H278890   5.963   4.463  14.066 -1.8240 -0.3866  0.7702
19159TIP3   OH278891   6.682   4.500  16.982 -0.8594  0.4978  0.6209
19159TIP3    H178892   6.635   4.449  17.047 -0.7120  0.6869  0.8789
19159TIP3    H278893   6.635   4.583  16.978 -0.3396  0.8222  1.1436
19160TIP3   OH278894   4.179   3.379   0.306 -0.2111 -0.2619  0.0241
19160TIP3    H178895   4.239   3.382   0.381 -1.7762 -1.4421  1.3981
19160TIP3    H278896   4.236   3.363   0.231  1.3222  0.0358  1.0636
19161TIP3   OH278897   0.477   1.121   3.958 -0.1620 -0.6750 -0.0126
19161TIP3    H178898   0.536   1.046   3.966 -2.4426 -2.5050  0.8129
19161TIP3    H278899   0.393   1.090   3.993 -0.8760  2.7268  1.7375
19162TIP3   OH278900   2.973   1.948  15.564 -0.3533  0.0531 -0.6184
19162TIP3    H178901   3.049   1.894  15.583 -0.3137  0.7466  1.4855
19162TIP3    H278902   2.970   2.012  15.636 -1.8850  1.1888 -1.6106
19163TIP3   OH278903   2.225   4.167  16.103  0.1503 -0.5708  0.2499
19163TIP3    H178904   2.297   4.230  16.098  0.6598 -1.2421 -1.7614
19163TIP3    H278905   2.245   4.112  16.178  0.7590  0.3788  0.7997
19164TIP3   OH278906   0.520   2.490   3.376  0.4374 -0.2713 -0.0387
19164TIP3    H178907   0.479   2.406   3.400 -0.8132  0.5977  1.0440
19164TIP3    H278908   0.583   2.507   3.446  0.1894  0.0147  0.1179
19165TIP3   OH278909   2.344   4.462   4.347  0.6810  0.0331  0.4268
19165TIP3    H178910   2.282   4.513   4.295 -0.8090 -0.2922  1.8068
19165TIP3    H278911   2.401   4.420   4.281  0.5951  1.7376 -0.7959
19166TIP3   OH278912   5.257   6.441  15.259  0.2696  0.3606  0.4173
19166TIP3    H178913   5.326   6.488  15.306  0.1811 -0.8333  1.7983
19166TIP3    H278914   5.180   6.499  15.267  0.8117  1.1859 -0.1866
19167TIP3   OH278915   5.992   4.704  13.135  0.3040  0.4964 -0.2754
19167TIP3    H178916   5.966   4.612  13.127  1.6761  0.0671 -0.1451
19167TIP3    H278917   6.083   4.705  13.104  0.7988  1.5330  1.1368
19168TIP3   OH278918   4.722   1.283   0.613 -0.0682 -0.3430  0.2510
19168TIP3    H178919   4.723   1.376   0.590 -1.2332 -0.4495 -0.3327
19168TIP3    H278920   4.812   1.262   0.637  0.1626  0.9858  0.6000
19169TIP3   OH278921   2.985   0.133  15.687  0.4588 -0.1810 -0.1922
19169TIP3    H178922   3.042   0.089  15.750  0.5571 -0.0120 -0.1624
19169TIP3    H278923   2.901   0.138  15.732  0.3412 -0.6898 -0.3492
19170TIP3   OH278924   2.225   4.613   3.316 -1.2958 -0.5442 -0.3042
19170TIP3    H178925   2.227   4.518   3.324 -2.5245 -0.7027 -1.5056
19170TIP3    H278926   2.192   4.629   3.227 -1.8652  0.9905  0.1489
19171TIP3   OH278927   2.323   0.963  13.425 -0.2180  0.1808 -0.3200
19171TIP3    H178928   2.416   0.955  13.447 -0.1878  2.7472  0.8063
19171TIP3    H278929   2.309   1.057  13.414 -2.2812 -0.2943 -2.4746
19172TIP3   OH278930   0.986   3.785  11.280 -0.3795  0.3003  0.0358
19172TIP3    H178931   1.069   3.740  11.264 -0.0968  0.8196 -0.0049
19172TIP3    H278932   0.994   3.818  11.370  0.1487  1.7467 -0.5016
19173TIP3   OH278933   0.845   0.219   5.812  0.2295 -0.3336  0.0608
19173TIP3    H178934   0.797   0.286   5.861 -1.1340 -0.1784 -1.4063
19173TIP3    H278935   0.916   0.193   5.871 -1.2264 -0.0721  2.0442
19174TIP3   OH278936   0.319   3.984   3.550  0.5314  0.3338 -0.1877
19174TIP3    H178937   0.374   3.909   3.529  0.0099 -0.2241  0.3950
19174TIP3    H278938   0.232   3.946   3.567  0.1937  1.0949 -0.1771
19175TIP3   OH278939   1.957   2.374  14.694 -0.3944  0.6771 -0.3696
19175TIP3    H178940   1.919   2.351  14.609 -0.1212 -2.0512  0.1515
19175TIP3    H278941   1.982   2.465  14.685 -0.5992  0.5463 -3.1351
19176TIP3   OH278942   1.807   5.687  14.842  0.0446 -0.2072 -0.1287
19176TIP3    H178943   1.735   5.697  14.780  0.3780 -1.0887 -0.6719
19176TIP3    H278944   1.881   5.731  14.800 -0.1518  0.6754  0.4180
19177TIP3   OH278945   0.659   2.401  16.041 -0.3050 -0.4242  0.2013
19177TIP3    H178946   0.730   2.398  16.106 -0.0016  0.9809 -0.0281
19177TIP3    H278947   0.584   2.433  16.091  0.3435  2.2944 -0.4155
19178TIP3   OH278948   1.514   4.633   0.414  0.2402 -0.2503  0.1889
19178TIP3    H178949   1.573   4.679   0.354  0.9123 -2.2427 -0.7617
19178TIP3    H278950   1.430   4.679   0.404  0.8782  0.7809 -0.6803
19179TIP3   OH278951   1.262   1.584  12.166  0.1285 -0.0854 -0.2155
19179TIP3    H178952   1.171   1.572  12.138  0.0024  2.5379 -1.2336
19179TIP3    H278953   1.314   1.536  12.102 -0.4502  0.8087 -1.3861
19180TIP3   OH278954   1.958   0.385   4.511  0.2088  0.3499 -0.1607
19180TIP3    H178955   1.943   0.381   4.417  3.7627  0.9332 -0.8997
19180TIP3    H278956   1.928   0.472   4.537  1.1364  1.0128 -1.2275
19181TIP3   OH278957   0.803   1.648  13.250  0.1495  0.5051  0.4147
19181TIP3    H178958   0.810   1.607  13.336  1.3610  1.2189  0.6738
19181TIP3    H278959   0.745   1.590  13.201  0.9597 -0.9562  1.1093
19182TIP3   OH278960   6.106   0.719   5.592 -0.0659  0.4093 -0.0626
19182TIP3    H178961   6.053   0.677   5.660 -1.3649  0.3175 -1.0787
19182TIP3    H278962   6.046   0.729   5.518  0.7088  2.4325 -0.4812
19183TIP3   OH278963   0.915   0.317  17.160  0.4331  0.0168  0.0569
19183TIP3    H178964   0.953   0.229  17.161 -0.5980 -0.6308 -3.3847
19183TIP3    H278965   0.833   0.308  17.209  0.7811 -0.6838  0.5260
19184TIP3   OH278966   0.034   3.915   4.166  0.1187 -0.1198 -0.7748
19184TIP3    H178967   0.105   3.977   4.179 -0.0806  0.1603 -1.0205
19184TIP3    H278968  -0.045   3.963   4.189 -0.0138 -0.3557 -0.7354
19185TIP3   OH278969   0.683   6.668   3.235 -0.3369  0.2886  0.1310
19185TIP3    H178970   0.742   6.686   3.162 -1.0074  1.3399 -0.1720
19185TIP3    H278971   0.720   6.591   3.278  0.0827 -0.3341 -1.3027
19186TIP3   OH278972   3.221   2.698   1.134  0.2916  0.2587 -0.1264
19186TIP3    H178973   3.282   2.735   1.198  0.0297 -0.4944  0.5775
19186TIP3    H278974   3.144   2.674   1.185  0.9596 -2.5190 -0.2645
19187TIP3   OH278975   5.471   6.143   0.864 -0.1142  0.6542 -0.6133
19187TIP3    H178976   5.472   6.047   0.856  2.6406  0.4956  0.5460
19187TIP3    H278977   5.500   6.174   0.778  2.8747  0.1822  0.1170
19188TIP3   OH278978   3.451   5.251   1.304  0.1254 -0.2498  0.6346
19188TIP3    H178979   3.458   5.209   1.219 -1.2067  0.2939  0.2279
19188TIP3    H278980   3.473   5.182   1.367  0.7314 -0.7594 -0.1229
19189TIP3   OH278981   6.317   1.913   3.487 -0.1952 -0.0567  0.4400
19189TIP3    H178982   6.255   1.860   3.537 -0.7739 -0.2864 -0.4985
19189TIP3    H278983   6.397   1.911   3.539 -0.9325  0.1683  1.6270
19190TIP3   OH278984   1.149   5.789  17.227  0.5634 -0.0562 -0.7054
19190TIP3    H178985   1.064   5.803  17.185 -0.3023 -1.0253  0.6326
19190TIP3    H278986   1.170   5.697  17.209  0.4198 -0.3453  0.4613
19191TIP3   OH278987   3.854   1.913  12.979 -0.6656 -0.2176 -0.1372
19191TIP3    H178988   3.844   2.009  12.983 -1.1240 -0.1787 -1.5672
19191TIP3    H278989   3.874   1.887  13.069  0.4841  1.3315  0.0947
19192TIP3   OH278990   0.047   6.295   5.049 -0.1368  0.5062  0.4947
19192TIP3    H178991   0.034   6.216   4.997  1.6779 -0.8832  2.0034
19192TIP3    H278992  -0.037   6.312   5.090 -0.8660  0.0771 -0.7892
19193TIP3   OH278993   0.575   1.025  16.800  0.3187 -0.2458 -0.0723
19193TIP3    H178994   0.485   1.039  16.773 -0.0948 -0.2051  1.2593
19193TIP3    H278995   0.627   1.083  16.744 -0.6070  0.7643  0.0929
19194TIP3   OH278996   3.837   1.085   1.657  0.0402  0.1682  0.2370
19194TIP3    H178997   3.890   1.124   1.588 -1.7153 -0.8020 -1.7558
19194TIP3    H278998   3.868   0.995   1.665 -1.0928 -0.3316 -0.7684
19195TIP3   OH278999   6.367   2.394  12.179  0.8194 -0.1913  0.0459
19195TIP3    H179000   6.433   2.364  12.242  0.7075  0.5950  0.5499
19195TIP3    H279001   6.346   2.483  12.207 -1.4861 -0.8985  0.7315
19196TIP3   OH279002   3.789   3.945   5.520  0.0775 -0.0393  0.5936
19196TIP3    H179003   3.716   3.911   5.469 -0.8819  0.0472  1.8701
19196TIP3    H279004   3.765   3.928   5.611  1.1170  1.0375  1.0933
19197TIP3   OH279005   1.148   3.176  14.038  0.2056 -0.0995 -0.0404
19197TIP3    H179006   1.147   3.100  14.096 -1.8899 -0.8114 -0.9250
19197TIP3    H279007   1.068   3.224  14.060 -0.2773 -0.0156 -1.8226
19198TIP3   OH279008   2.241   3.445  12.550  0.1132 -0.0156  0.3254
19198TIP3    H179009   2.191   3.513  12.596  0.9109  1.5061 -0.9626
19198TIP3    H279010   2.182   3.414  12.482  0.8264  1.7942 -1.2083
19199TIP3   OH279011   2.339   4.695   2.320  0.2210 -0.8054  0.0279
19199TIP3    H179012   2.351   4.758   2.248 -0.1204  0.3622  0.9458
19199TIP3    H279013   2.403   4.627   2.304  1.3083  0.2931 -0.4816
19200TIP3   OH279014   5.996   2.573   3.591 -0.0550  0.0715  0.0851
19200TIP3    H179015   5.974   2.558   3.500  0.7368 -1.6749  0.1428
19200TIP3    H279016   6.091   2.558   3.596 -0.2351 -0.8230  1.3541
19201TIP3   OH279017   3.219   1.983   2.735 -0.6517 -0.1679  0.5834
19201TIP3    H179018   3.313   1.966   2.726 -0.6759  0.5222 -1.6377
19201TIP3    H279019   3.180   1.896   2.733 -0.0710 -0.5005  2.0603
19202TIP3   OH279020   5.384   6.142  13.348 -0.2231 -0.2500 -0.5910
19202TIP3    H179021   5.388   6.052  13.317 -0.2954  0.3788 -2.5788
19202TIP3    H279022   5.386   6.135  13.444  1.9381 -2.2273 -0.7071
19203TIP3   OH279023   0.520   1.250  16.185  0.1554  0.5437 -0.2504
19203TIP3    H179024   0.441   1.215  16.227  0.8057 -0.9453 -0.2169
19203TIP3    H279025   0.566   1.173  16.151  0.9910  1.4836 -1.3639
19204TIP3   OH279026   5.236   5.351   5.385  0.1984 -0.2628 -0.1594
19204TIP3    H179027   5.221   5.347   5.291  0.5756 -0.9120 -0.1993
19204TIP3    H279028   5.159   5.310   5.424 -1.4219  2.6326 -0.0050
19205TIP3   OH279029   5.017   6.018   2.589  0.4457 -0.5763 -0.4005
19205TIP3    H179030   4.922   6.018   2.599  0.4977 -0.5728  0.0728
19205TIP3    H279031   5.030   6.017   2.494 -0.0289 -1.2300 -0.4676
19206TIP3   OH279032   0.733   5.871  12.729 -0.2300  0.1437 -0.2962
19206TIP3    H179033   0.654   5.921  12.750  0.7322  0.7590  2.1565
19206TIP3    H279034   0.789   5.932  12.682 -1.7601 -0.7771 -3.6204
19207TIP3   OH279035   4.188   3.770   1.367  0.3828  0.5080 -0.2652
19207TIP3    H179036   4.217   3.726   1.447 -1.0946  0.3397  0.2009
19207TIP3    H279037   4.169   3.699   1.306 -1.5731  0.4551  0.3390
19208TIP3   OH279038   3.851   4.480  11.481  0.4583 -0.3086 -0.1804
19208TIP3    H179039   3.840   4.526  11.564  1.5696  0.3912 -0.3860
19208TIP3    H279040   3.786   4.521  11.423 -0.0308 -0.5060  0.2178
19209TIP3   OH279041   0.388   2.020  15.963  0.3891 -0.0833  0.3783
19209TIP3    H179042   0.457   1.964  15.927 -0.9055 -1.2601 -0.3610
19209TIP3    H279043   0.375   2.087  15.895  0.3327 -0.2550  0.2200
19210TIP3   OH279044   0.720   5.177   6.248 -0.2919  0.6646 -0.8074
19210TIP3    H179045   0.674   5.103   6.290  0.4599  0.5669 -0.1229
19210TIP3    H279046   0.652   5.222   6.198 -0.5922 -1.0136 -1.9958
19211TIP3   OH279047   5.582   5.476   5.018 -0.0535 -0.0267 -0.4097
19211TIP3    H179048   5.529   5.399   5.036  0.1198  0.2820  1.6203
19211TIP3    H279049   5.642   5.449   4.949 -1.5980 -0.9391 -1.4506
19212TIP3   OH279050   3.391   6.670  13.127 -0.2808 -0.2139 -0.6100
19212TIP3    H179051   3.458   6.690  13.062 -2.2011  0.0005 -2.6788
19212TIP3    H279052   3.390   6.574  13.133  0.7412 -0.2000  0.1082
19213TIP3   OH279053   0.598   4.302   5.246  0.4070  0.0046 -1.0646
19213TIP3    H179054   0.665   4.370   5.237  0.1587  0.3590 -0.3428
19213TIP3    H279055   0.614   4.242   5.173 -0.4209  1.7244 -2.7397
19214TIP3   OH279056   1.207   6.582  16.778 -0.2918 -0.1307 -0.2993
19214TIP3    H179057   1.263   6.557  16.851 -0.9989  1.8066  0.9826
19214TIP3    H279058   1.266   6.582  16.702  1.3880  1.4231  0.9301
19215TIP3   OH279059   3.178   6.219  15.333  0.0906 -0.5382 -0.3077
19215TIP3    H179060   3.217   6.132  15.342  0.7595 -0.1017  1.2278
19215TIP3    H279061   3.158   6.247  15.422  0.5717  1.1895 -0.6990
19216TIP3   OH279062   5.858   4.204  12.475 -0.0126 -0.0589  0.5529
19216TIP3    H179063   5.869   4.296  12.452  1.7382 -0.6595 -1.3334
19216TIP3    H279064   5.918   4.191  12.549 -1.1393  0.5339  1.6053
19217TIP3   OH279065   5.542   4.734   2.759 -0.2606 -0.3789  0.0161
19217TIP3    H179066   5.494   4.727   2.842  1.5822 -1.8614  1.0568
19217TIP3    H279067   5.504   4.665   2.704  0.4704 -1.4219  0.7656
19218TIP3   OH279068   6.626   5.747   0.122 -0.2287  0.8095  0.2543
19218TIP3    H179069   6.568   5.678   0.089  0.2561  0.8313 -0.6892
19218TIP3    H279070   6.631   5.731   0.216 -0.7228  0.0161  0.1597
19219TIP3   OH279071   0.336   6.266  11.728 -0.0578  0.0170 -0.2811
19219TIP3    H179072   0.397   6.298  11.794  0.3452 -1.7540  0.2694
19219TIP3    H279073   0.306   6.345  11.682  0.3016  1.2133  1.4370
19220TIP3   OH279074   4.713   3.040   2.436 -0.1213  0.2166 -0.0034
19220TIP3    H179075   4.660   2.978   2.485  0.7716 -0.7547 -0.2248
19220TIP3    H279076   4.651   3.088   2.382 -0.8798 -0.1332  0.5386
19221TIP3   OH279077   3.253   3.259   4.600 -0.3322 -0.6666  0.2155
19221TIP3    H179078   3.228   3.330   4.659 -0.7296 -0.1959 -0.5038
19221TIP3    H279079   3.229   3.291   4.513  0.3224 -1.3131 -0.2128
19222TIP3   OH279080   0.880   6.750  13.234  0.4671 -0.2913  0.1851
19222TIP3    H179081   0.919   6.684  13.292  0.1151 -0.6310  0.0454
19222TIP3    H279082   0.902   6.720  13.146  0.4256 -0.1490  0.1261
19223TIP3   OH279083   2.627   6.395   6.272  0.2428  0.1404  0.3689
19223TIP3    H179084   2.711   6.439   6.284 -1.2105  2.6873  2.3162
19223TIP3    H279085   2.572   6.461   6.230 -1.2981 -0.8217  0.8000
19224TIP3   OH279086   6.048   1.339   1.504  0.2857  0.3229 -0.1769
19224TIP3    H179087   5.972   1.315   1.558  1.8790  0.2721  2.1860
19224TIP3    H279088   6.064   1.431   1.526  1.9971 -0.1775  0.8439
19225TIP3   OH279089   0.210   2.919  12.015  0.2261  0.0105  0.1273
19225TIP3    H179090   0.267   2.995  12.008 -0.0714  0.2816  0.6182
19225TIP3    H279091   0.124   2.955  12.034 -0.5569 -0.2649 -2.5454
19226TIP3   OH279092   1.152   2.286  11.670  0.5301  0.2481 -0.0312
19226TIP3    H179093   1.096   2.209  11.661 -2.4433  2.4324 -1.8780
19226TIP3    H279094   1.187   2.301  11.583  2.6701 -0.0175  0.7210
19227TIP3   OH279095   2.843   2.614   0.250 -0.2462 -0.4904 -0.4845
19227TIP3    H179096   2.874   2.700   0.276 -1.8035 -0.5393  1.8400
19227TIP3    H279097   2.883   2.599   0.165  1.2203  1.8911 -0.3094
19228TIP3   OH279098   2.312   3.536  17.145 -0.0820 -0.5849 -0.1774
19228TIP3    H179099   2.346   3.579  17.224 -1.6037  0.3358  0.0146
19228TIP3    H279100   2.325   3.600  17.075  0.5933 -1.1135 -0.5484
19229TIP3   OH279101   3.248   6.210   3.748 -0.5732  0.1991 -0.0629
19229TIP3    H179102   3.268   6.221   3.841 -0.7151  0.8877 -0.1116
19229TIP3    H279103   3.267   6.118   3.730  0.5315  0.3234  0.3884
19230TIP3   OH279104   5.843   6.046  10.821  0.1743 -0.1712  0.4908
19230TIP3    H179105   5.792   5.992  10.760  1.2574  1.6707 -2.2386
19230TIP3    H279106   5.932   6.010  10.815  0.6187  1.0053 -0.3076
19231TIP3   OH279107   0.663   5.263   5.597  0.2094  0.1737 -0.4725
19231TIP3    H179108   0.740   5.228   5.552  0.1562  0.1106 -0.5137
19231TIP3    H279109   0.685   5.258   5.690 -0.0905 -0.6551 -0.4350
19232TIP3   OH279110   2.430   5.918   3.254  0.4460  0.6133 -0.3996
19232TIP3    H179111   2.379   5.848   3.212  0.6809  0.1247  0.1194
19232TIP3    H279112   2.515   5.878   3.271  0.5608  1.0090 -0.0386
19233TIP3   OH279113   0.410   1.916  17.057 -0.2731  0.3994  0.5335
19233TIP3    H179114   0.457   1.926  16.974 -0.2326  3.1275  0.7720
19233TIP3    H279115   0.322   1.949  17.039 -0.0963  1.5987  1.6585
19234TIP3   OH279116   5.119   2.977  13.217 -0.1079  0.1913 -0.0770
19234TIP3    H179117   5.170   2.903  13.250 -0.8797 -0.6521 -0.7246
19234TIP3    H279118   5.148   2.987  13.127 -0.8159 -0.0600 -0.3370
19235TIP3   OH279119   4.937   1.110  11.876  0.1074  0.2735 -0.5252
19235TIP3    H179120   5.016   1.159  11.854 -0.0720 -0.2094 -2.3614
19235TIP3    H279121   4.967   1.022  11.895  0.1337  0.4131  0.1201
19236TIP3   OH279122   5.705   1.505  12.961 -0.4404 -0.2954  0.0199
19236TIP3    H179123   5.775   1.562  12.994 -0.8888 -0.1460  0.7346
19236TIP3    H279124   5.698   1.435  13.026 -1.9838  0.5239  0.7847
19237TIP3   OH279125   1.917   6.547  11.242  0.2271  0.0500  0.7939
19237TIP3    H179126   1.872   6.482  11.188 -2.6488  0.3798  2.5859
19237TIP3    H279127   1.964   6.495  11.308  2.1477 -0.2688 -0.7115
19238TIP3   OH279128   6.714   2.886   6.021 -0.3293 -0.3657  0.4403
19238TIP3    H179129   6.771   2.811   6.005 -0.0777 -0.0623 -0.1391
19238TIP3    H279130   6.626   2.849   6.025 -0.1782 -0.7262  0.4393
19239TIP3   OH279131   2.716   1.729   0.515  0.4199  0.0683  0.3656
19239TIP3    H179132   2.682   1.646   0.547  1.5762 -0.4962  0.1651
19239TIP3    H279133   2.811   1.723   0.527  0.7016  0.6532 -1.2376
19240TIP3   OH279134   6.390   4.331  16.038  0.7111  0.0362  0.1451
19240TIP3    H179135   6.385   4.354  16.130 -2.8340 -1.8960  0.6042
19240TIP3    H279136   6.345   4.401  15.992  0.1873 -0.2486  0.2132
19241TIP3   OH279137   4.453   3.429   4.203 -0.3855 -0.2437  0.2677
19241TIP3    H179138   4.409   3.349   4.174 -1.1321 -0.3412  1.5941
19241TIP3    H279139   4.388   3.474   4.256  0.9061 -0.1146  1.8259
19242TIP3   OH279140   0.257   1.450  12.610  0.3283  0.2011 -0.7643
19242TIP3    H179141   0.281   1.499  12.689  1.1161  0.6355 -1.2588
19242TIP3    H279142   0.218   1.515  12.552  0.9851  0.1702 -1.2538
19243TIP3   OH279143   3.105   2.420  11.340  0.1368  0.2957 -0.1148
19243TIP3    H179144   3.157   2.451  11.265 -0.6774  0.1192 -0.7629
19243TIP3    H279145   3.036   2.485  11.350  1.5484  1.6041  1.9855
19244TIP3   OH279146   0.273   5.816   2.597  0.4218 -0.2233 -0.3039
19244TIP3    H179147   0.251   5.734   2.552 -0.9182 -0.0588  0.0093
19244TIP3    H279148   0.322   5.867   2.532  0.1964 -0.7657 -0.9098
19245TIP3   OH279149   5.220   2.147   1.960 -0.5048 -0.2832 -0.2604
19245TIP3    H179150   5.139   2.169   1.915 -0.0844  0.1995 -0.8077
19245TIP3    H279151   5.272   2.102   1.893 -1.0935 -2.4177  0.6518
19246TIP3   OH279152   1.941   5.281  13.465  0.1223 -0.1354  0.2717
19246TIP3    H179153   1.872   5.242  13.411 -0.9190  2.7929 -0.7208
19246TIP3    H279154   1.940   5.230  13.546 -1.8629 -1.3889 -0.4679
19247TIP3   OH279155   3.189   2.475  16.161 -0.0217  0.0732 -0.2470
19247TIP3    H179156   3.142   2.503  16.083  0.6332  2.4642  0.1576
19247TIP3    H279157   3.166   2.539  16.228  0.7846 -0.9428  1.0539
19248TIP3   OH279158   2.637   6.601  13.419  0.0616 -0.2652  0.5857
19248TIP3    H179159   2.602   6.590  13.507 -0.7909 -0.6514  0.2101
19248TIP3    H279160   2.561   6.623  13.365  0.7554  1.1382  0.1439
19249TIP3   OH279161   1.224   1.556  11.638  0.2391  0.4343 -0.2592
19249TIP3    H179162   1.203   1.463  11.647  0.1346  0.4895  0.0431
19249TIP3    H279163   1.184   1.598  11.713 -0.9468  0.9367 -1.1366
19250TIP3   OH279164   1.213   1.798   5.523 -0.0347  0.0828 -0.1587
19250TIP3    H179165   1.208   1.850   5.442  2.2309 -0.0676 -0.4551
19250TIP3    H279166   1.154   1.843   5.583  0.9017  2.3407 -0.8072
19251TIP3   OH279167   5.789   4.986   2.177  0.2300  0.5380  0.2669
19251TIP3    H179168   5.849   4.926   2.222 -0.9393 -0.4881  0.5202
19251TIP3    H279169   5.807   4.970   2.084 -0.3848 -0.5717  0.3216
19252TIP3   OH279170   4.526   2.446  12.699 -0.1724  0.5594  0.0455
19252TIP3    H179171   4.580   2.473  12.624  1.0772  0.0120  0.7234
19252TIP3    H279172   4.451   2.505  12.696 -0.1591  0.5560 -1.6380
19253TIP3   OH279173   2.494   1.273  17.005  0.1436 -0.0573 -0.2887
19253TIP3    H179174   2.401   1.252  17.019 -0.0540  1.1742  0.3971
19253TIP3    H279175   2.541   1.203  17.052 -0.4919  0.7682  1.7087
19254TIP3   OH279176   4.202   2.692   6.124  0.1990 -0.0614  0.7604
19254TIP3    H179177   4.245   2.613   6.157  0.4696 -0.5747 -0.7306
19254TIP3    H279178   4.113   2.687   6.157 -0.0708 -1.5216 -0.0855
19255TIP3   OH279179   6.709   5.891   5.629  0.6223  0.4229 -0.3461
19255TIP3    H179180   6.683   5.813   5.679  0.6438  0.4015 -0.3685
19255TIP3    H279181   6.626   5.928   5.598  0.6456  0.1461 -0.7321
19256TIP3   OH279182   6.637   6.523   4.218 -0.0434  0.4439 -0.3896
19256TIP3    H179183   6.716   6.575   4.237  0.3032 -0.2743  0.2018
19256TIP3    H279184   6.656   6.481   4.134 -0.0812  0.8116 -0.5835
19257TIP3   OH279185   3.720   2.580   2.874  0.5203 -0.3598 -0.5423
19257TIP3    H179186   3.689   2.517   2.808 -1.0552 -1.3137  1.0131
19257TIP3    H279187   3.694   2.665   2.839 -2.9075 -1.0226  0.0373
19258TIP3   OH279188   4.685   1.881  12.063 -0.1015  0.4818 -0.3384
19258TIP3    H179189   4.738   1.953  12.030  0.3040  0.9740  1.3007
19258TIP3    H279190   4.697   1.811  11.999  1.2100  1.1450 -0.8534
19259TIP3   OH279191   3.521   5.697  15.646  0.5427  0.2041 -0.2728
19259TIP3    H179192   3.578   5.745  15.705 -0.7931  1.5049  0.0290
19259TIP3    H279193   3.470   5.640  15.703  0.6306  0.0030 -0.3952
19260TIP3   OH279194   4.910   2.409   1.444 -0.3226  0.4840 -0.0565
19260TIP3    H179195   4.958   2.367   1.515 -0.5023 -0.4672 -0.4750
19260TIP3    H279196   4.977   2.430   1.379 -0.3795 -0.3079 -0.3849
19261TIP3   OH279197   2.094   3.284   5.334 -0.1909  0.7166  0.1565
19261TIP3    H179198   2.122   3.376   5.330 -1.9440  1.2449 -1.0292
19261TIP3    H279199   2.015   3.286   5.388 -1.1982  0.1942 -1.2610
19262TIP3   OH279200   0.070   4.633  10.855 -0.3099  0.1337 -0.6415
19262TIP3    H179201   0.106   4.551  10.889  1.4324  1.6933  1.5341
19262TIP3    H279202   0.137   4.665  10.795 -0.4606  0.5267 -0.6013
19263TIP3   OH279203   0.297   0.714   4.823  0.4987 -0.2390  0.1025
19263TIP3    H179204   0.359   0.712   4.750 -1.2706 -1.5002 -1.4454
19263TIP3    H279205   0.326   0.642   4.880  0.8768 -0.3579 -0.2327
19264TIP3   OH279206   3.362   2.603  11.110 -0.0851  0.1171 -0.4435
19264TIP3    H179207   3.304   2.679  11.110  0.7919  0.8062  0.6069
19264TIP3    H279208   3.409   2.608  11.193  0.8123 -0.9460 -0.8612
19265TIP3   OH279209   1.230   1.293  16.675  0.0783 -0.1047 -0.0669
19265TIP3    H179210   1.208   1.341  16.595  0.7062 -1.2785 -0.9728
19265TIP3    H279211   1.186   1.342  16.745  0.1105  1.3599 -1.0272
19266TIP3   OH279212   6.586   4.393   5.021 -0.0646  0.8739  0.1042
19266TIP3    H179213   6.550   4.481   5.034  1.2908  1.4253  0.2960
19266TIP3    H279214   6.607   4.363   5.110  0.7372  0.9175 -0.0655
19267TIP3   OH279215   6.730   4.303  16.258 -0.5687 -0.6681 -0.1966
19267TIP3    H179216   6.824   4.293  16.272 -0.8557 -2.5932  0.7367
19267TIP3    H279217   6.718   4.395  16.236  1.4257 -0.1779  0.5829
19268TIP3   OH279218   5.337   0.571  15.116 -0.5267  0.0442  0.0173
19268TIP3    H179219   5.333   0.581  15.211  0.0352  0.4740 -0.0034
19268TIP3    H279220   5.414   0.621  15.089  0.8274 -2.1074 -0.3916
19269TIP3   OH279221   4.008   3.644   0.574  0.2330 -0.3159 -0.3692
19269TIP3    H179222   4.024   3.730   0.614  1.2814 -0.1721 -1.0368
19269TIP3    H279223   4.075   3.638   0.505 -1.0465 -0.8545 -1.6033
19270TIP3   OH279224   2.378   4.770   4.321 -0.2373 -0.1963  0.5463
19270TIP3    H179225   2.334   4.734   4.244  0.8600 -0.6035  0.0871
19270TIP3    H279226   2.347   4.860   4.326  2.4646  1.1575 -2.7020
19271TIP3   OH279227   4.063   0.690   3.935  0.1416  0.1590  0.0408
19271TIP3    H179228   3.998   0.739   3.985 -0.8607 -2.4470  1.5202
19271TIP3    H279229   4.032   0.695   3.844  0.0978  2.1696  0.1295
19272TIP3   OH279230   6.704   5.901   0.918 -0.4627 -0.0882  0.2657
19272TIP3    H179231   6.633   5.962   0.938 -0.4956  0.0876 -0.3789
19272TIP3    H279232   6.783   5.946   0.948 -0.5542 -0.0017  0.3781
19273TIP3   OH279233   1.346   2.524  14.196 -0.1259  0.1570 -0.2548
19273TIP3    H179234   1.418   2.587  14.197  2.1295 -2.2374 -1.1973
19273TIP3    H279235   1.335   2.501  14.104 -2.0993  0.3787 -0.1237
19274TIP3   OH279236   5.536   3.993  13.316  0.3173  0.0303 -0.1341
19274TIP3    H179237   5.569   4.001  13.405  0.7765 -0.6986 -0.2309
19274TIP3    H279238   5.599   4.042  13.262  0.3370  0.0154 -0.1246
19275TIP3   OH279239   0.914   4.744  12.255 -0.4946 -0.0343  0.0673
19275TIP3    H179240   0.957   4.760  12.171  1.3853 -2.3363  0.5095
19275TIP3    H279241   0.833   4.795  12.250 -0.1968  0.3174 -2.9127
19276TIP3   OH279242   0.394   2.271  15.036 -0.2440  0.0818  0.0811
19276TIP3    H179243   0.343   2.240  15.111 -0.7450  0.8802  0.0817
19276TIP3    H279244   0.408   2.364  15.054 -0.2127  0.2394 -0.7311
19277TIP3   OH279245   5.621   5.317  13.586  0.8555  0.1417  0.4835
19277TIP3    H179246   5.632   5.400  13.539  0.8655  0.0856  0.3861
19277TIP3    H279247   5.698   5.310  13.642  0.8609  0.1908  0.4824
19278TIP3   OH279248   2.734   0.108   6.308 -0.0070  0.5652 -0.2089
19278TIP3    H179249   2.649   0.080   6.340  0.0342 -0.0716 -0.6390
19278TIP3    H279250   2.753   0.049   6.235  1.1048  0.2456  0.3088
19279TIP3   OH279251   4.111   5.994   4.930  0.4615 -0.2732 -0.2060
19279TIP3    H179252   4.107   5.930   5.002 -1.8001 -1.7594 -1.5161
19279TIP3    H279253   4.196   6.038   4.941  0.1616 -0.3166  3.4065
19280TIP3   OH279254   5.488   0.888   0.191  0.2679 -0.0070 -0.4049
19280TIP3    H179255   5.481   0.867   0.284 -0.1578 -1.4299 -0.7412
19280TIP3    H279256   5.566   0.943   0.185  2.0701 -2.2940  0.4235
19281TIP3   OH279257   2.262   5.246   0.865 -0.5894 -0.6258  0.1870
19281TIP3    H179258   2.229   5.307   0.931  0.6555 -0.5999  0.8091
19281TIP3    H279259   2.209   5.167   0.877 -1.7891  0.0910 -0.2082
19282TIP3   OH279260   3.746   2.822  15.204 -0.8826  1.2744  0.1850
19282TIP3    H179261   3.670   2.830  15.146 -1.3978 -0.5340  0.5226
19282TIP3    H279262   3.722   2.751  15.264  2.0794 -1.2469 -1.3355
19283TIP3   OH279263   0.650   5.003   3.548  0.0828 -0.2316  0.0004
19283TIP3    H179264   0.572   5.011   3.493  0.5670  0.2442 -0.6386
19283TIP3    H279265   0.715   4.962   3.490  0.5438  0.1112  0.2698
19284TIP3   OH279266   0.114   5.146  14.041  0.2765  0.6316  0.1709
19284TIP3    H179267   0.162   5.070  14.009  0.8621  1.1956 -0.3217
19284TIP3    H279268   0.030   5.144  13.994  0.4548  0.5199 -0.1406
19285TIP3   OH279269   6.268   4.706  11.904  0.4370 -0.6905  0.0824
19285TIP3    H179270   6.301   4.706  11.993 -0.7960 -1.9216  0.5767
19285TIP3    H279271   6.179   4.740  11.911  0.7560  0.3853 -0.8689
19286TIP3   OH279272   6.001   1.734   3.747 -0.1767  0.6849 -0.3982
19286TIP3    H179273   6.006   1.717   3.653  0.0383  1.3403 -0.5096
19286TIP3    H279274   5.912   1.709   3.772  0.2705 -1.0725 -0.4528
19287TIP3   OH279275   4.582   6.337   3.480  0.5407 -0.1684 -0.4338
19287TIP3    H179276   4.646   6.279   3.440  0.4042  0.8722 -2.2744
19287TIP3    H279277   4.510   6.341   3.417  0.3510  1.6082 -0.1573
19288TIP3   OH279278   3.827   5.303  13.609 -0.4707  0.4236 -0.7309
19288TIP3    H179279   3.916   5.337  13.608 -0.1270 -0.3523 -3.1617
19288TIP3    H279280   3.837   5.209  13.595 -1.6305  0.1853 -0.0875
19289TIP3   OH279281   0.416   3.727   3.525  0.5136  0.1977  0.5827
19289TIP3    H179282   0.385   3.702   3.612  0.8916 -0.2162  0.6040
19289TIP3    H279283   0.395   3.651   3.470  0.7096  0.2613  0.4183
19290TIP3   OH279284   6.703   3.878  15.653  0.4297  0.0913 -0.1888
19290TIP3    H179285   6.766   3.836  15.594  0.8892 -1.0037  0.9933
19290TIP3    H279286   6.726   3.843  15.740 -1.0366  0.6239  0.4505
19291TIP3   OH279287   5.274   0.467   3.375 -0.4372  0.2400  0.1764
19291TIP3    H179288   5.303   0.391   3.424  0.5201 -0.3913 -1.2870
19291TIP3    H279289   5.229   0.431   3.298 -2.1672  1.1855  0.6767
19292TIP3   OH279290   4.620   4.685   6.716  0.5918 -0.2507  0.7757
19292TIP3    H179291   4.535   4.730   6.712  0.8114  0.4066  2.5846
19292TIP3    H279292   4.677   4.737   6.660  0.1813  0.1800  0.7486
19293TIP3   OH279293   5.386   0.037   0.268 -0.2231 -0.2240  0.0753
19293TIP3    H179294   5.443   0.060   0.341 -0.0907 -1.1306  0.2652
19293TIP3    H279295   5.325   0.112   0.261  0.4190  0.3423  0.4286
19294TIP3   OH279296   6.580   0.131  11.548  0.5941  0.2347 -0.5899
19294TIP3    H179297   6.532   0.080  11.483 -2.7053  0.7247  1.2576
19294TIP3    H279298   6.531   0.119  11.630  2.4866  2.4522  1.0208
19295TIP3   OH279299   6.172   2.048  11.853 -0.1270 -0.1166 -0.2009
19295TIP3    H179300   6.206   2.053  11.942  1.0140  0.0206 -0.6339
19295TIP3    H279301   6.186   2.136  11.816 -2.0178  0.2972 -0.0289
19296TIP3   OH279302   5.229   5.951  16.726 -0.1194 -0.3754  0.7872
19296TIP3    H179303   5.139   5.935  16.757 -0.3357 -1.3900 -0.2982
19296TIP3    H279304   5.231   5.913  16.639  1.4826 -0.6926  0.9422
19297TIP3   OH279305   0.232   5.803  16.659  0.3423  0.2010  0.0605
19297TIP3    H179306   0.149   5.767  16.689  0.3140 -0.2374 -0.5264
19297TIP3    H279307   0.272   5.732  16.609  1.1357  0.3583  0.4519
19298TIP3   OH279308   6.444   2.210   0.297  0.4834  0.0288 -0.0063
19298TIP3    H179309   6.467   2.222   0.205 -0.9413  0.2385 -0.3484
19298TIP3    H279310   6.392   2.288   0.319 -0.2343 -0.6163  0.6156
19299TIP3   OH279311   5.466   3.398  17.058 -0.0990 -0.1114 -0.2377
19299TIP3    H179312   5.438   3.316  17.018 -1.5250  1.1574 -2.0505
19299TIP3    H279313   5.385   3.449  17.068  0.7215  1.0167  0.9559
19300TIP3   OH279314   5.318   1.316  13.290  0.5934 -0.3773  0.2412
19300TIP3    H179315   5.346   1.338  13.378  3.0869 -0.5837 -0.4256
19300TIP3    H279316   5.361   1.381  13.234 -1.8564  0.4753 -0.8000
19301TIP3   OH279317   3.341   1.948   0.269  0.0329 -0.0311  0.0866
19301TIP3    H179318   3.357   1.961   0.362  0.6893 -1.3550  0.1842
19301TIP3    H279319   3.256   1.905   0.264  1.1736 -2.4934  0.3190
19302TIP3   OH279320   3.003   6.444  16.926  0.2603  0.1356 -0.0892
19302TIP3    H179321   2.911   6.457  16.904 -0.0183 -0.4478  0.6771
19302TIP3    H279322   3.006   6.448  17.021  0.5318 -2.6120  0.1052
19303TIP3   OH279323   5.335   3.794  12.582  0.2080  0.1257 -0.1997
19303TIP3    H179324   5.292   3.751  12.656 -1.1744  1.3780 -0.2275
19303TIP3    H279325   5.423   3.812  12.614 -0.9568  2.6180  2.0721
19304TIP3   OH279326   0.658   5.614  16.215  0.2801  0.0980 -0.0620
19304TIP3    H179327   0.572   5.583  16.189  0.2425 -0.2092  0.4267
19304TIP3    H279328   0.709   5.535  16.230  0.5404  0.2767  0.0082
19305TIP3   OH279329   4.779   5.823  11.107  0.0716  0.0196  0.7185
19305TIP3    H179330   4.782   5.867  11.192 -1.2155  0.8072  0.3747
19305TIP3    H279331   4.769   5.893  11.043 -2.4040 -0.7329  0.1832
19306TIP3   OH279332   2.381   6.683  15.730 -0.0936  0.2448  0.2932
19306TIP3    H179333   2.448   6.749  15.715 -0.4591  0.2365 -1.6535
19306TIP3    H279334   2.304   6.717  15.684 -0.9350 -0.5484  1.0660
19307TIP3   OH279335   0.611   2.082  15.043  0.0121 -0.4137 -0.5259
19307TIP3    H179336   0.533   2.134  15.025 -1.1789 -1.3382  1.4998
19307TIP3    H279337   0.668   2.140  15.092  1.3957  0.7627 -3.3121
19308TIP3   OH279338   4.877   1.943  13.098 -0.6981 -0.1308 -0.6542
19308TIP3    H179339   4.873   1.970  13.006 -0.0199  0.2954 -0.5691
19308TIP3    H279340   4.788   1.916  13.120 -0.8532 -0.2662 -1.4480
19309TIP3   OH279341   0.654   1.503  11.824  0.1732 -0.0858 -0.3083
19309TIP3    H179342   0.740   1.464  11.842  0.3316 -0.2845 -1.4463
19309TIP3    H279343   0.593   1.448  11.872  0.6765  0.0638  0.5240
19310TIP3   OH279344   0.384   2.172  15.721  1.0455  0.8310 -0.1968
19310TIP3    H179345   0.309   2.225  15.746  0.6090 -0.3513  1.0910
19310TIP3    H279346   0.446   2.235  15.683  0.1514  2.0963  0.3753
19311TIP3   OH279347   0.575   2.952  13.626  0.1107  0.0447  0.6651
19311TIP3    H179348   0.605   2.983  13.541 -0.3972  0.0263  0.4765
19311TIP3    H279349   0.647   2.898  13.658 -0.6243 -1.9099 -0.8030
19312TIP3   OH279350   5.884   0.831  16.876 -0.2320  0.6933  0.1870
19312TIP3    H179351   5.920   0.853  16.790  0.1122  1.6483  0.5580
19312TIP3    H279352   5.789   0.837  16.864 -0.1985  0.4175 -0.2280
19313TIP3   OH279353   1.780   2.833  11.401 -0.3577 -0.0290  0.0545
19313TIP3    H179354   1.846   2.895  11.368  0.3065 -0.7243  0.0413
19313TIP3    H279355   1.793   2.833  11.496 -1.7587  1.3954  0.2902
19314TIP3   OH279356   3.524   2.922  13.883 -0.4196 -0.1622 -0.1696
19314TIP3    H179357   3.529   3.017  13.895  2.4337 -0.1452 -0.6291
19314TIP3    H279358   3.431   2.902  13.884 -1.1571  2.7504 -0.8393
19315TIP3   OH279359   6.097   4.593  13.644 -0.0801 -0.4033 -0.0893
19315TIP3    H179360   6.118   4.500  13.651 -0.0583 -0.3358  0.8003
19315TIP3    H279361   6.158   4.626  13.577 -0.4276 -1.1205 -0.7832
19316TIP3   OH279362   2.736   5.765  11.850 -0.0505 -0.2499  0.1294
19316TIP3    H179363   2.760   5.744  11.760  2.5064 -0.3115  0.7441
19316TIP3    H279364   2.757   5.858  11.860  1.5231 -0.6861  1.1632
19317TIP3   OH279365   6.071   5.302  15.433 -0.0797 -0.6131  0.2265
19317TIP3    H179366   6.001   5.362  15.457 -2.6938 -1.7737 -3.6247
19317TIP3    H279367   6.041   5.216  15.462  1.1337 -0.7851  1.0327
19318TIP3   OH279368   2.019   5.183  15.282  0.4060  0.2886 -0.0959
19318TIP3    H179369   2.024   5.193  15.187 -0.1176 -0.3379 -0.1953
19318TIP3    H279370   1.926   5.166  15.300  0.8032 -1.6994  0.3039
19319TIP3   OH279371   2.756   3.138   2.557 -0.1819 -0.2212  0.9025
19319TIP3    H179372   2.770   3.118   2.464 -0.5620 -0.2689  0.8548
19319TIP3    H279373   2.672   3.098   2.578 -0.0699 -0.2592  1.2857
19320TIP3   OH279374   0.634   6.607  11.713 -0.0040 -0.0524  0.0594
19320TIP3    H179375   0.569   6.599  11.643 -0.6702 -1.5272  0.7858
19320TIP3    H279376   0.646   6.701  11.724 -1.2423  0.2360 -0.8181
19321TIP3   OH279377   1.768   5.931   5.840  0.7682 -0.1236  0.0740
19321TIP3    H179378   1.855   5.908   5.807 -0.3454 -1.5205 -2.1040
19321TIP3    H279379   1.770   5.905   5.932  2.5576 -0.3667  0.0109
19322TIP3   OH279380   1.632   4.934   2.885  0.6088  0.2286  0.1809
19322TIP3    H179381   1.708   4.895   2.841 -0.7031 -2.4882  0.0775
19322TIP3    H279382   1.565   4.865   2.882 -1.1996  1.7753  2.0444
19323TIP3   OH279383   2.779   4.404  10.800 -0.2818 -0.2045 -0.1335
19323TIP3    H179384   2.771   4.393  10.894 -1.0069 -0.6758 -0.2441
19323TIP3    H279385   2.729   4.331  10.763 -0.4861  0.3047 -0.8814
19324TIP3   OH279386   1.115   2.669   4.194  0.1338  0.2498  0.4355
19324TIP3    H179387   1.073   2.656   4.279 -0.7123 -0.0406 -0.0104
19324TIP3    H279388   1.132   2.581   4.161  0.9373  0.3641  0.5181
19325TIP3   OH279389   1.960   6.120  10.712  0.1951 -0.4616 -0.4885
19325TIP3    H179390   1.901   6.045  10.706 -0.6770  0.1764 -0.2182
19325TIP3    H279391   2.048   6.083  10.711 -0.2003 -1.4065 -1.4029
19326TIP3   OH279392   4.752   0.892   4.821  0.2127 -0.0564 -0.4905
19326TIP3    H179393   4.749   0.797   4.816 -1.4227  0.0491 -3.0222
19326TIP3    H279394   4.664   0.921   4.798  0.5273  2.0949  0.6760
19327TIP3   OH279395   6.138   2.654   5.146 -0.9397  0.0955 -0.2046
19327TIP3    H179396   6.100   2.644   5.233 -0.2360 -1.2432 -0.0267
19327TIP3    H279397   6.131   2.567   5.106  3.3264 -0.8066  0.4747
19328TIP3   OH279398   2.195   4.638  15.990 -0.1490  0.0348  0.3315
19328TIP3    H179399   2.108   4.679  15.989 -0.4183 -0.5283 -0.3084
19328TIP3    H279400   2.184   4.558  15.937  0.9653  0.3968 -0.4820
19329TIP3   OH279401   0.691   0.297   1.223  0.1091  0.1294 -0.1856
19329TIP3    H179402   0.666   0.305   1.131 -2.1681 -2.3373  0.0960
19329TIP3    H279403   0.640   0.222   1.255  2.0333 -0.1034  2.6866
19330TIP3   OH279404   6.726   1.349  12.324 -0.2410  0.0353 -0.1937
19330TIP3    H179405   6.781   1.408  12.375 -1.2388  0.7979  0.0155
19330TIP3    H279406   6.746   1.262  12.358  0.8085  0.3005 -0.1085
19331TIP3   OH279407   1.727   3.740   2.468 -0.0395 -0.0338  0.0336
19331TIP3    H179408   1.660   3.685   2.508 -0.8881  1.0908  0.1932
19331TIP3    H279409   1.775   3.777   2.541  0.3501 -0.3315 -0.0684
19332TIP3   OH279410   3.293   3.915  17.123  0.3882  0.3041  0.1285
19332TIP3    H179411   3.355   3.891  17.192 -0.3191  0.2763  0.7683
19332TIP3    H279412   3.248   3.834  17.101 -0.6156  0.6225  0.8920
19333TIP3   OH279413   0.713   4.044  10.784  0.0716  0.2017 -0.2615
19333TIP3    H179414   0.653   4.119  10.784  0.2858  0.4330  2.1824
19333TIP3    H279415   0.787   4.073  10.730  0.3604  1.9631  0.9956
19334TIP3   OH279416   5.423   0.278  13.867  0.4314 -0.5414  0.2234
19334TIP3    H179417   5.338   0.318  13.845  0.3737 -0.1035  1.1923
19334TIP3    H279418   5.418   0.190  13.829  0.2199  0.0563 -1.2046
19335TIP3   OH279419   4.221   5.545   0.119 -0.7734  1.2074  0.1129
19335TIP3    H179420   4.316   5.546   0.108 -0.3880 -2.5291  1.6055
19335TIP3    H279421   4.207   5.554   0.213 -1.8703  1.2586 -0.0395
19336TIP3   OH279422   5.337   1.863   5.904  0.3988  0.6772  0.5835
19336TIP3    H179423   5.242   1.853   5.916  0.8654 -0.8820  3.8612
19336TIP3    H279424   5.364   1.782   5.862  0.3186  1.1654 -0.4462
19337TIP3   OH279425   0.868   1.312  12.693 -0.1436 -0.0335 -0.3442
19337TIP3    H179426   0.788   1.343  12.734  0.3631 -1.4716  1.9027
19337TIP3    H279427   0.842   1.233  12.645 -0.4184  0.6891 -1.4224
19338TIP3   OH279428   3.169   6.304   0.273  0.1818  0.3548  0.3382
19338TIP3    H179429   3.188   6.265   0.188  0.8064 -0.2685  0.7545
19338TIP3    H279430   3.219   6.386   0.273  0.4006  0.2229  0.2146
19339TIP3   OH279431   5.141   5.391  13.819  0.0308  0.9034 -0.3333
19339TIP3    H179432   5.214   5.384  13.758  0.5092 -0.9071  0.3705
19339TIP3    H279433   5.180   5.370  13.905 -1.6854 -2.7308 -0.2612
19340TIP3   OH279434   4.425   1.157  11.760 -0.2255  0.2709 -0.1528
19340TIP3    H179435   4.515   1.134  11.784 -0.3617 -0.3045 -0.1794
19340TIP3    H279436   4.420   1.138  11.667 -0.1137  1.1680 -0.3486
19341TIP3   OH279437   0.077   6.636  14.803  0.3379 -0.0437 -0.0931
19341TIP3    H179438   0.105   6.653  14.713  1.2636 -0.1092  0.1694
19341TIP3    H279439   0.001   6.693  14.815  0.6803  0.5597 -0.6657
19342TIP3   OH279440   2.100   0.302   2.217 -0.4340  0.1464 -0.6731
19342TIP3    H179441   2.099   0.207   2.204 -0.9716  0.0720 -0.1212
19342TIP3    H279442   2.008   0.327   2.222 -0.3593  0.9336 -2.4119
19343TIP3   OH279443   2.565   5.716  16.349 -0.2784  0.0330  0.2106
19343TIP3    H179444   2.582   5.809  16.364 -0.3947 -0.2635  2.5675
19343TIP3    H279445   2.537   5.711  16.258  2.4593  1.9028 -0.8820
19344TIP3   OH279446   2.520   1.260  12.931 -0.1904 -0.4496 -0.4798
19344TIP3    H179447   2.471   1.303  12.861 -0.8253  1.2706  0.9595
19344TIP3    H279448   2.611   1.285  12.915  0.1489 -2.5622 -2.3823
19345TIP3   OH279449   1.929   4.463   2.325 -0.3628  0.2585  0.7072
19345TIP3    H179450   2.001   4.455   2.387 -1.3323  0.1271  1.8579
19345TIP3    H279451   1.966   4.511   2.251  0.7562  0.6696  1.5101
19346TIP3   OH279452   0.400   1.384  11.090  0.0350  0.3775 -0.0468
19346TIP3    H179453   0.487   1.424  11.086  0.3515 -0.0956  1.4908
19346TIP3    H279454   0.413   1.295  11.058 -0.0103  0.4992 -0.4039
19347TIP3   OH279455   0.230   2.092   0.123 -0.1246  0.6960  0.4332
19347TIP3    H179456   0.178   2.018   0.091  2.0802 -0.7494 -0.0953
19347TIP3    H279457   0.167   2.150   0.165 -1.8416 -2.0550  1.9605
19348TIP3   OH279458   6.082   0.270   1.871 -0.0106 -0.3235 -0.2738
19348TIP3    H179459   6.128   0.287   1.789  0.9483 -0.8882  0.1297
19348TIP3    H279460   6.110   0.341   1.929  0.1174 -0.4946 -0.1241
19349TIP3   OH279461   0.954   1.833   3.370  0.3407  0.4598  0.2945
19349TIP3    H179462   1.008   1.902   3.410  1.2687 -0.6242  0.9832
19349TIP3    H279463   0.991   1.821   3.283  0.6412  0.3703  0.4287
19350TIP3   OH279464   6.738   0.548   3.322 -0.6502 -0.4074  0.4065
19350TIP3    H179465   6.662   0.601   3.347  1.0188  2.3305 -0.0202
19350TIP3    H279466   6.746   0.561   3.228  0.9196  0.1392  0.6018
19351TIP3   OH279467   0.192   1.424   6.019 -0.3212 -0.2029  0.4322
19351TIP3    H179468   0.141   1.363   6.072  1.5542  0.5633  3.3453
19351TIP3    H279469   0.274   1.377   6.001  0.6201  0.9161  1.6239
19352TIP3   OH279470   2.428   0.557  15.019  0.4397  0.1142 -0.9617
19352TIP3    H179471   2.419   0.652  15.020  0.2628  0.1034 -0.0644
19352TIP3    H279472   2.508   0.541  14.970 -0.1959  0.6474 -2.2042
19353TIP3   OH279473   0.258   2.716  12.399 -0.0449 -0.0502  0.8779
19353TIP3    H179474   0.271   2.759  12.483  0.5179 -0.8865  1.2340
19353TIP3    H279475   0.268   2.623  12.418 -1.2252 -0.3495  0.1246
19354TIP3   OH279476   4.006   1.872   2.451 -0.0713  0.0855 -0.0138
19354TIP3    H179477   3.997   1.878   2.356 -0.3321 -0.5091 -0.0313
19354TIP3    H279478   4.101   1.880   2.467 -0.1103  1.2112 -0.2331
19355TIP3   OH279479   3.821   4.337   0.374  0.0923 -0.6475  0.2641
19355TIP3    H179480   3.877   4.404   0.414 -1.6824  0.5218  0.9204
19355TIP3    H279481   3.880   4.288   0.317  1.2651  2.2906 -1.2876
19356TIP3   OH279482   1.370   1.408  11.075 -0.1844  0.2380  0.0179
19356TIP3    H179483   1.385   1.430  10.983  2.1767  0.7822  0.4777
19356TIP3    H279484   1.340   1.490  11.115  1.1185  0.6584  0.1789
19357TIP3   OH279485   3.131   2.874   2.566 -0.1243 -0.2988  0.3068
19357TIP3    H179486   3.185   2.806   2.527 -1.2851 -1.8605  1.2978
19357TIP3    H279487   3.154   2.873   2.659  1.3467  2.1506  0.0343
19358TIP3   OH279488   2.622   2.328  14.282 -0.3504 -0.3975 -0.4424
19358TIP3    H179489   2.556   2.294  14.344 -1.7966  1.3043 -0.9793
19358TIP3    H279490   2.572   2.379  14.220  1.3592 -0.2474 -1.7549
19359TIP3   OH279491   1.067   4.620  12.907 -0.0574  0.8097  0.2679
19359TIP3    H179492   1.036   4.564  12.835 -0.6060  1.9139 -0.3903
19359TIP3    H279493   1.152   4.652  12.878  1.8910 -2.2720  2.1063
19360TIP3   OH279494   1.726   3.918  16.476 -1.1407 -0.2159 -0.5135
19360TIP3    H179495   1.638   3.918  16.514 -0.7639  1.1246  0.4372
19360TIP3    H279496   1.776   3.861  16.534 -1.1098 -0.0066 -0.3300
19361TIP3   OH279497   0.348   4.157  11.096 -0.3135  0.0105 -0.1276
19361TIP3    H179498   0.364   4.097  11.023  0.6474  0.1783 -0.0760
19361TIP3    H279499   0.263   4.131  11.131  0.0831 -1.3452 -0.0903
19362TIP3   OH279500   3.336   2.006  15.052  0.0360  0.4644  0.1948
19362TIP3    H179501   3.413   1.960  15.084  0.7033  0.4459 -1.3502
19362TIP3    H279502   3.284   2.023  15.130  1.0470 -0.5485  1.1233
19363TIP3   OH279503   3.825   1.093  12.656  0.1573 -0.0435  0.1350
19363TIP3    H179504   3.773   1.029  12.704  1.0459  0.0856  1.3049
19363TIP3    H279505   3.893   1.041  12.612  1.3122  0.1184  1.6545
19364TIP3   OH279506   0.943   0.765   4.969  0.2882 -0.5170  0.2211
19364TIP3    H179507   0.902   0.850   4.984  0.0473 -0.2959 -1.4383
19364TIP3    H279508   0.873   0.712   4.931  0.5101 -1.3887  1.0086
19365TIP3   OH279509   4.023   1.752   3.742  0.0301  0.1847 -0.4677
19365TIP3    H179510   4.045   1.841   3.770  2.1405 -0.5800  0.5276
19365TIP3    H279511   3.935   1.737   3.777 -0.6132  2.0612 -1.1778
19366TIP3   OH279512   6.113   0.036   1.541 -0.3454 -0.1736 -0.4171
19366TIP3    H179513   6.055  -0.009   1.479  0.1915 -1.5309  0.0360
19366TIP3    H279514   6.192  -0.019   1.545  0.3396  0.8161  0.1550
19367TIP3   OH279515   5.485   1.791   5.515 -0.0143  0.1398 -0.0114
19367TIP3    H179516   5.559   1.730   5.518  0.4315  0.4278 -2.6350
19367TIP3    H279517   5.525   1.877   5.527 -0.0968  0.2164 -0.2995
19368TIP3   OH279518   6.137   0.322  11.681 -0.2275  0.1336  0.4793
19368TIP3    H179519   6.143   0.259  11.752  0.3064  0.7562  1.0060
19368TIP3    H279520   6.177   0.278  11.606  0.5690  0.0123  0.9615
19369TIP3   OH279521   0.816   2.426   3.949  0.1239  0.3841  0.5896
19369TIP3    H179522   0.738   2.393   3.903 -0.3222  1.8168  0.2834
19369TIP3    H279523   0.783   2.496   4.004  1.0566  0.3216  1.2425
19370TIP3   OH279524   0.344   3.836  11.337  0.6860 -0.2041 -0.4466
19370TIP3    H179525   0.344   3.741  11.338  0.9016 -0.2025 -0.2042
19370TIP3    H279526   0.331   3.859  11.245 -1.1806 -0.4510 -0.2833
19371TIP3   OH279527   5.105   1.687  10.445 -0.2094  0.1541  0.7987
19371TIP3    H179528   5.118   1.757  10.509 -0.2791 -0.4178  1.4543
19371TIP3    H279529   5.013   1.661  10.456 -0.3717  0.4196  0.0834
19372TIP3   OH279530   3.550   6.719  13.740  0.7750  0.5635 -0.5296
19372TIP3    H179531   3.513   6.721  13.829  1.1661  1.8863 -0.3760
19372TIP3    H279532   3.515   6.639  13.701  0.6372 -0.0638  0.8352
19373TIP3   OH279533   3.381   5.910   4.816  0.0550 -0.2694  0.3870
19373TIP3    H179534   3.371   5.822   4.779 -1.1914 -0.3429  0.8728
19373TIP3    H279535   3.307   5.920   4.875 -0.5495  1.5965 -0.6284
19374TIP3   OH279536   4.158   1.032  13.782  0.6773 -0.1848  0.3865
19374TIP3    H179537   4.107   1.105  13.818 -0.2830 -0.1377 -0.9876
19374TIP3    H279538   4.226   1.074  13.729  0.5217 -0.2744  0.1136
19375TIP3   OH279539   5.279   5.695  11.742 -0.2304  0.1845 -0.0134
19375TIP3    H179540   5.200   5.658  11.702 -1.2214  2.0571  0.1306
19375TIP3    H279541   5.336   5.717  11.668  0.2371 -1.2196 -0.1162
19376TIP3   OH279542   0.890   2.924  11.890 -0.1864 -0.5418 -0.4959
19376TIP3    H179543   0.977   2.892  11.913  1.2126  2.4684 -1.2155
19376TIP3    H279544   0.896   3.019  11.896 -3.5301 -0.2032 -0.3328
19377TIP3   OH279545   6.334   5.729   3.254  0.4118  0.8234  0.0134
19377TIP3    H179546   6.363   5.792   3.188 -0.1665  0.3535 -0.7024
19377TIP3    H279547   6.362   5.768   3.337  1.4803  1.2354 -0.5232
19378TIP3   OH279548   3.002   5.281  13.674 -0.1643  0.2518  0.4904
19378TIP3    H179549   3.023   5.354  13.615  0.3961  0.3077  0.7517
19378TIP3    H279550   3.040   5.204  13.631  0.9356  0.4035  1.1321
19379TIP3   OH279551   6.356   6.524  12.388 -0.5309 -0.0625 -0.3780
19379TIP3    H179552   6.330   6.549  12.477 -2.8219 -0.2518 -0.9253
19379TIP3    H279553   6.449   6.507  12.394 -0.4120  1.0121  1.7423
19380TIP3   OH279554   1.475   1.186  16.734  0.3687 -0.1293 -0.6426
19380TIP3    H179555   1.382   1.207  16.733  0.5582  0.8712  0.4940
19380TIP3    H279556   1.499   1.178  16.642 -1.1003 -1.7604 -0.9478
19381TIP3   OH279557   5.993   5.739   4.065  0.5174 -0.0823 -0.0860
19381TIP3    H179558   5.899   5.750   4.052  0.4951 -0.4476 -0.2484
19381TIP3    H279559   6.012   5.789   4.144  0.0851 -0.4941  0.2839
19382TIP3   OH279560   4.916   3.298   2.329  0.0585  1.2092 -0.1827
19382TIP3    H179561   4.946   3.208   2.321 -0.6222  1.0564 -1.2818
19382TIP3    H279562   4.881   3.319   2.242 -2.7865  1.4433  0.8979
19383TIP3   OH279563   1.143   6.670   5.311 -0.4727 -0.4441 -0.4543
19383TIP3    H179564   1.166   6.629   5.228  0.7072 -0.0934 -0.3229
19383TIP3    H279565   1.181   6.612   5.377  0.2357  0.2498 -0.2339
19384TIP3   OH279566   3.265   1.024   2.318 -0.1855 -0.9077  0.3961
19384TIP3    H179567   3.255   1.120   2.322  0.3222 -0.8439  0.1316
19384TIP3    H279568   3.357   1.010   2.297 -0.3242 -1.4529  0.1396
19385TIP3   OH279569   0.496   3.454  14.437 -0.0021  0.3809  0.4855
19385TIP3    H179570   0.430   3.396  14.401  0.6722  0.5980 -1.1968
19385TIP3    H279571   0.550   3.398  14.493  0.0029 -0.3708 -0.2686
19386TIP3   OH279572   3.465   3.710   3.228 -0.0959 -0.3599 -0.0387
19386TIP3    H179573   3.477   3.718   3.323 -1.0793 -1.5861  0.2231
19386TIP3    H279574   3.374   3.679   3.219 -0.7310  1.7065 -1.4829
19387TIP3   OH279575   5.826   2.616  15.126 -0.3457 -0.6773 -0.0738
19387TIP3    H179576   5.832   2.531  15.171  0.4505 -0.0166  1.1311
19387TIP3    H279577   5.823   2.680  15.197  1.3903  0.4399 -0.9335
19388TIP3   OH279578   2.528   5.039  13.393 -0.1027  0.1847  0.2856
19388TIP3    H179579   2.514   4.945  13.403 -4.6964  0.6324  0.0017
19388TIP3    H279580   2.605   5.046  13.336  1.7638 -3.2275  2.0972
19389TIP3   OH279581   2.470   6.440  15.642 -0.1361  0.2728 -0.8283
19389TIP3    H179582   2.465   6.533  15.661  1.7931  0.2685 -0.0951
19389TIP3    H279583   2.562   6.417  15.655 -0.6243 -1.8112 -0.6306
19390TIP3   OH279584   1.492   4.967   0.121  0.6322 -0.2599  0.3533
19390TIP3    H179585   1.583   4.996   0.126  0.9658 -1.0525 -0.7214
19390TIP3    H279586   1.445   5.042   0.084  1.1528 -0.3849 -0.6202
19391TIP3   OH279587   1.776   0.917   2.702 -0.0535 -0.0923 -0.4140
19391TIP3    H179588   1.732   0.949   2.781 -1.9606  1.1499 -1.8821
19391TIP3    H279589   1.867   0.941   2.714 -0.5857  1.4926  0.7528
19392TIP3   OH279590   2.737   5.340  11.993 -0.6592  0.4924 -0.5478
19392TIP3    H179591   2.769   5.325  11.904 -1.1211 -0.6934 -0.5313
19392TIP3    H279592   2.697   5.257  12.018 -1.0306  0.9925  0.5628
19393TIP3   OH279593   6.494   3.470  16.877 -0.3693 -0.0064 -0.3088
19393TIP3    H179594   6.400   3.462  16.893 -0.4452 -0.6302 -0.9824
19393TIP3    H279595   6.532   3.392  16.919  0.0215  0.9386  1.1494
19394TIP3   OH279596   1.202   1.629  14.918 -0.4981  0.8384  0.5672
19394TIP3    H179597   1.143   1.679  14.861  0.9027 -0.8532 -2.5972
19394TIP3    H279598   1.143   1.578  14.974 -2.0948  0.3548 -1.4198
19395TIP3   OH279599   4.801   1.966  11.698  0.1156 -0.3690  0.7295
19395TIP3    H179600   4.809   2.005  11.611 -1.3005 -3.8219 -1.1795
19395TIP3    H279601   4.869   1.898  11.700 -0.0250 -0.4999  2.2602
19396TIP3   OH279602   3.937   3.420   5.470 -0.3168 -0.1766  0.1743
19396TIP3    H179603   3.984   3.358   5.413 -0.5291 -0.6366  0.4963
19396TIP3    H279604   3.881   3.469   5.411  0.1205 -0.0390 -0.1343
19397TIP3   OH279605   5.393   4.965   4.473 -0.3064  0.4044  0.5545
19397TIP3    H179606   5.388   4.870   4.482 -2.0401  0.4896  0.8023
19397TIP3    H279607   5.386   4.980   4.379 -0.1962  0.3009  0.5293
19398TIP3   OH279608   3.108   4.169  17.053  0.2474 -0.3610 -0.2045
19398TIP3    H179609   3.077   4.163  17.143  2.0525  0.9096  0.5418
19398TIP3    H279610   3.049   4.232  17.012  0.0166 -0.2142  0.3431
19399TIP3   OH279611   3.767   1.908   4.770 -0.3173  0.2709 -0.7751
19399TIP3    H179612   3.834   1.865   4.717 -0.2439 -1.0398  0.3295
19399TIP3    H279613   3.812   1.984   4.808  0.6308 -0.6742  0.0671
19400TIP3   OH279614   0.955   1.413  17.189  0.4069  0.4829  0.4199
19400TIP3    H179615   0.918   1.347  17.248  1.6136  0.2527  0.9332
19400TIP3    H279616   0.979   1.486  17.246  1.5434  0.2786  0.2104
19401TIP3   OH279617   5.756   1.640   3.232  0.1959  0.0305  0.4016
19401TIP3    H179618   5.849   1.659   3.226  0.7616 -2.6474 -1.1070
19401TIP3    H279619   5.752   1.560   3.286 -1.1633 -0.1905  0.0040
19402TIP3   OH279620   4.658   2.430   2.104  0.3328 -0.2536  0.6109
19402TIP3    H179621   4.640   2.420   2.198 -0.7411 -0.0374  0.4502
19402TIP3    H279622   4.741   2.476   2.100  0.2661 -0.0331  1.4693
19403TIP3   OH279623   1.242   1.584   3.937 -0.2720  0.0046 -0.1153
19403TIP3    H179624   1.333   1.577   3.908 -0.8225  2.3718 -2.7537
19403TIP3    H279625   1.210   1.493   3.938  2.1954 -0.9569  1.5278
19404TIP3   OH279626   4.391   4.677  16.064  0.3533 -0.8794  0.1241
19404TIP3    H179627   4.348   4.691  16.148  1.2299 -2.1093  0.8243
19404TIP3    H279628   4.473   4.726  16.071  0.3761 -0.8896 -0.0625
19405TIP3   OH279629   1.587   5.429  16.796  0.0297  0.6449  0.7764
19405TIP3    H179630   1.611   5.339  16.776 -0.8377  0.5352  0.1607
19405TIP3    H279631   1.640   5.483  16.738 -0.0869  0.4803  0.5153
19406TIP3   OH279632   4.271   1.722  10.345 -0.3838  0.1845 -0.3906
19406TIP3    H179633   4.309   1.640  10.376  0.3446  1.3848  2.1335
19406TIP3    H279634   4.333   1.790  10.373 -0.6165  1.5954 -2.9802
19407TIP3   OH279635   1.558   2.090   4.192  0.2525 -0.0548  0.1968
19407TIP3    H179636   1.497   2.054   4.126  1.2380 -1.6687  0.1104
19407TIP3    H279637   1.550   2.030   4.266 -0.4265  1.4272  1.3625
19408TIP3   OH279638   5.073   1.466  11.402 -0.4267 -0.2896  0.2578
19408TIP3    H179639   4.990   1.501  11.434  0.2717  0.2996  1.5329
19408TIP3    H279640   5.128   1.543  11.387  0.1652 -0.6984  0.2536
19409TIP3   OH279641   3.410   0.883  13.748 -0.0726 -0.3362 -0.3195
19409TIP3    H179642   3.371   0.877  13.835 -1.2554 -0.0482 -0.8150
19409TIP3    H279643   3.484   0.822  13.750 -0.1352 -0.3857  0.8534
19410TIP3   OH279644   0.909   5.808  17.111 -0.2616  0.2233  0.0074
19410TIP3    H179645   0.861   5.728  17.091 -1.4429  0.7208  0.6908
19410TIP3    H279646   0.889   5.867  17.038  0.7765 -0.1692 -0.5982
19411TIP3   OH279647   2.985   1.783   4.306  0.8922  0.3752  0.2728
19411TIP3    H179648   2.947   1.837   4.237  1.9644  1.1159  0.2223
19411TIP3    H279649   2.925   1.710   4.316  0.6785  0.2815 -1.4085
19412TIP3   OH279650   2.652   1.272   3.086  0.4386 -0.6036 -0.4124
19412TIP3    H179651   2.607   1.245   3.005 -0.8679  0.1352  0.0291
19412TIP3    H279652   2.721   1.331   3.056  0.0191 -0.4043 -1.0096
19413TIP3   OH279653   3.542   3.326   4.010 -0.8491  0.0888 -0.6921
19413TIP3    H179654   3.494   3.404   4.037 -1.1012  0.1986 -1.4502
19413TIP3    H279655   3.634   3.350   4.018 -0.8993 -0.0630  0.5892
19414TIP3   OH279656   5.947   3.813   3.096 -0.2937  0.4795  0.6920
19414TIP3    H179657   5.876   3.752   3.116  1.1501 -2.3939 -2.1000
19414TIP3    H279658   5.903   3.887   3.054 -1.7593 -0.6631  0.1199
19415TIP3   OH279659   2.123   1.294   3.777  0.2917 -0.0460  0.1936
19415TIP3    H179660   2.055   1.302   3.711  0.0028  1.4092  0.6253
19415TIP3    H279661   2.083   1.242   3.847 -0.5778  1.1986  0.6545
19416TIP3   OH279662   6.519   1.263  13.747  0.4437  0.4946  0.2530
19416TIP3    H179663   6.598   1.305  13.713  1.2352 -1.0197  0.1028
19416TIP3    H279664   6.447   1.317  13.715  1.3844  1.4678 -0.2714
19417TIP3   OH279665   0.260   6.707   3.988  0.2228  0.0247 -0.1794
19417TIP3    H179666   0.291   6.752   3.909 -0.2554 -1.8074 -1.4875
19417TIP3    H279667   0.326   6.639   4.004 -0.8311 -1.1052 -0.4241
19418TIP3   OH279668   3.398   0.656   0.105  0.6704 -0.3021  0.3754
19418TIP3    H179669   3.328   0.698   0.056  0.3886 -0.0488  0.9799
19418TIP3    H279670   3.411   0.713   0.181  2.7177  0.6315 -0.5822
19419TIP3   OH279671   2.852   3.171  16.438  0.5854  0.3380  0.3362
19419TIP3    H179672   2.784   3.128  16.386  1.2961  0.2615 -0.5688
19419TIP3    H279673   2.907   3.099  16.469 -0.6868  0.2442  2.5113
19420TIP3   OH279674   1.313   1.956   4.847  0.1673 -0.2225  0.1760
19420TIP3    H179675   1.233   1.942   4.796  0.0898  0.7290  0.0211
19420TIP3    H279676   1.282   1.992   4.931  0.1583 -3.1401  1.5561
19421TIP3   OH279677   2.566   2.448   2.463 -0.0353 -0.0237 -0.4720
19421TIP3    H179678   2.513   2.523   2.489 -2.5767 -1.6442 -0.5577
19421TIP3    H279679   2.623   2.432   2.538  0.9005  2.2146 -0.6532
19422TIP3   OH279680   3.853   4.414  11.103 -0.2147  0.2455  0.0628
19422TIP3    H179681   3.870   4.329  11.063  0.1636  0.9415 -1.3319
19422TIP3    H279682   3.927   4.428  11.162  1.0445  0.6296 -1.5190
19423TIP3   OH279683   5.849   2.885  13.327  0.6620  0.5137  0.1226
19423TIP3    H179684   5.887   2.842  13.250 -0.1828  0.8607 -0.5054
19423TIP3    H279685   5.883   2.836  13.401  0.8084 -0.3761 -0.5169
19424TIP3   OH279686   6.210   6.106   5.788 -0.4762  0.3059 -0.7800
19424TIP3    H179687   6.123   6.104   5.827  0.1155 -0.2261  0.5808
19424TIP3    H279688   6.194   6.121   5.695 -2.0836 -1.1365 -0.7785
19425TIP3   OH279689   3.369   3.986   0.886  0.1463 -0.6335  0.3603
19425TIP3    H179690   3.367   4.042   0.809  0.6448 -0.5805  0.3814
19425TIP3    H279691   3.278   3.978   0.912  0.1124  0.5904  0.6690
19426TIP3   OH279692   1.806   2.296  14.203 -0.1914 -0.0703  0.5567
19426TIP3    H179693   1.789   2.234  14.132 -1.8131 -0.1467  0.9548
19426TIP3    H279694   1.718   2.319  14.235  0.3797  2.3349  0.5242
19427TIP3   OH279695   1.221   0.519  16.862  0.7342  0.2637  0.4482
19427TIP3    H179696   1.193   0.486  16.948 -2.2207  1.2720 -0.0080
19427TIP3    H279697   1.197   0.612  16.864  0.2752  0.2276 -1.5677
19428TIP3   OH279698   0.398   2.517   5.175  0.2016 -0.1332  0.1147
19428TIP3    H179699   0.383   2.494   5.084 -0.9752  0.6235  0.1020
19428TIP3    H279700   0.437   2.605   5.172  1.4019 -0.6388  0.3014
19429TIP3   OH279701   1.485   1.251  11.665  0.2062  0.4013 -0.2310
19429TIP3    H179702   1.415   1.228  11.726 -0.1828  2.0389 -0.0053
19429TIP3    H279703   1.560   1.199  11.693 -0.3454  0.1430  0.8093
19430TIP3   OH279704   2.736   0.709   5.701 -0.4915  0.1120  0.0914
19430TIP3    H179705   2.797   0.635   5.709  0.6509  1.1622  1.4678
19430TIP3    H279706   2.704   0.703   5.610  1.8987 -0.2854 -0.7960
19431TIP3   OH279707   2.377   1.692   0.909 -0.5778  0.1316  0.3544
19431TIP3    H179708   2.369   1.759   0.842 -2.1033  2.6132  2.8295
19431TIP3    H279709   2.433   1.731   0.976 -2.0710 -0.7039  2.1883
19432TIP3   OH279710   0.249   1.572  11.257 -0.2178 -0.1105 -0.1357
19432TIP3    H179711   0.327   1.536  11.215  0.2577  0.9060 -0.1627
19432TIP3    H279712   0.187   1.585  11.185 -0.8341 -1.8888  0.0212
19433TIP3   OH279713   4.673   3.956  11.505 -0.0191  0.1102  0.1321
19433TIP3    H179714   4.670   4.006  11.423  1.0536 -0.7477 -0.4656
19433TIP3    H279715   4.753   3.986  11.548 -1.9132  2.5579  2.2683
19434TIP3   OH279716   0.601   3.030   4.256 -0.4700 -0.2019  0.3148
19434TIP3    H179717   0.621   3.081   4.177 -1.2995  0.0982  0.2862
19434TIP3    H279718   0.528   2.973   4.229 -1.4242  0.6055  1.1262
19435TIP3   OH279719   0.640   5.886  12.272 -0.4463 -0.0005  0.3416
19435TIP3    H179720   0.589   5.967  12.276  0.0713  0.4564 -1.2254
19435TIP3    H279721   0.582   5.823  12.230 -0.3822 -0.0460  0.3211
19436TIP3   OH279722   1.291   3.652  13.738  0.2957 -0.3941 -0.4485
19436TIP3    H179723   1.276   3.713  13.810 -1.7504  0.8418 -1.7960
19436TIP3    H279724   1.380   3.670  13.709  0.2041  0.9784  0.0679
19437TIP3   OH279725   0.871   6.394   1.032 -0.2156 -0.0063  0.6923
19437TIP3    H179726   0.932   6.322   1.046  0.2934  0.2651 -0.0671
19437TIP3    H279727   0.902   6.464   1.088 -0.2802 -0.1249  0.8780
19438TIP3   OH279728   2.516   0.613  12.709 -0.6208 -0.8870 -0.6673
19438TIP3    H179729   2.450   0.544  12.721 -1.9913  0.6667  1.7481
19438TIP3    H279730   2.529   0.618  12.615 -1.1108 -3.7978 -0.9914
19439TIP3   OH279731   1.277   5.444   3.158  0.5269  0.4994  0.0069
19439TIP3    H179732   1.366   5.475   3.140  0.6716  0.8593  1.2313
19439TIP3    H279733   1.222   5.521   3.145 -0.0554 -0.3324 -3.5053
19440TIP3   OH279734   5.425   4.729  17.125  0.1070 -0.8416 -0.1681
19440TIP3    H179735   5.492   4.773  17.179 -0.0681 -2.0719  1.0980
19440TIP3    H279736   5.400   4.653  17.176 -2.7804 -0.0694 -0.2809
19441TIP3   OH279737   5.906   0.098   5.945 -0.2948  0.1239 -0.3877
19441TIP3    H179738   5.820   0.084   5.905 -0.9101  0.5196  0.7459
19441TIP3    H279739   5.911   0.033   6.015 -0.1298  0.8031  0.2398
19442TIP3   OH279740   1.074   4.189   6.197 -0.3838  0.5698 -0.3344
19442TIP3    H179741   1.017   4.260   6.167  1.9678  3.0010  0.4597
19442TIP3    H279742   1.143   4.234   6.247  0.7592 -2.4153  0.9924
19443TIP3   OH279743   3.098   1.266   6.241  0.0939 -0.1057  0.4892
19443TIP3    H179744   3.072   1.211   6.167 -2.2047  2.4605 -0.8433
19443TIP3    H279745   3.192   1.279   6.230  0.3821 -2.3769 -0.0653
19444TIP3   OH279746   3.743   0.766   2.262 -0.4643 -0.0633 -0.1204
19444TIP3    H179747   3.685   0.842   2.254 -2.1378 -1.0043  2.2512
19444TIP3    H279748   3.820   0.790   2.210 -1.3981  2.7892 -0.3541
19445TIP3   OH279749   4.494   6.231   0.984  0.0298 -0.2434 -0.3782
19445TIP3    H179750   4.490   6.234   1.080  1.1598 -0.1224 -0.3280
19445TIP3    H279751   4.496   6.138   0.963  0.2940 -0.2627 -0.2646
19446TIP3   OH279752   4.304   6.679   2.471 -0.5112 -0.6572  0.6507
19446TIP3    H179753   4.297   6.769   2.440  1.7070 -1.1765 -1.6970
19446TIP3    H279754   4.217   6.659   2.506 -1.5715  1.8299 -0.3251
19447TIP3   OH279755   2.116   3.087   0.620  0.1091  0.0403 -0.0499
19447TIP3    H179756   2.120   3.153   0.689  1.6736  1.5371 -1.4622
19447TIP3    H279757   2.058   3.020   0.654  0.0466  1.1873  2.2923
19448TIP3   OH279758   6.298   1.005   3.469  0.1807  0.3554 -0.4190
19448TIP3    H179759   6.392   0.989   3.464  0.1524 -0.7844  1.8230
19448TIP3    H279760   6.287   1.060   3.546 -1.1232 -0.7728  0.2324
19449TIP3   OH279761   5.442   0.416   5.297  0.2945  0.5970  0.0979
19449TIP3    H179762   5.402   0.497   5.329  0.8909  1.3092 -0.9108
19449TIP3    H279763   5.508   0.445   5.233 -0.5952 -0.7421 -1.5002
19450TIP3   OH279764   2.964   4.975   5.925  0.0877  0.3720 -0.2507
19450TIP3    H179765   2.913   4.960   5.845  0.4596 -0.0772 -0.4098
19450TIP3    H279766   2.930   4.911   5.988 -0.0224  0.5465 -0.1322
19451TIP3   OH279767   3.105   5.844  12.999  0.1991 -0.3071  1.0740
19451TIP3    H179768   3.046   5.769  12.993 -1.3954  0.9765 -0.2492
19451TIP3    H279769   3.152   5.846  12.915 -1.2455  1.2623  0.2312
19452TIP3   OH279770   3.984   2.226   2.645 -0.0629 -0.4326  0.8182
19452TIP3    H179771   3.975   2.322   2.650  1.3279 -0.3306  2.4324
19452TIP3    H279772   4.076   2.212   2.623 -0.2419 -1.3989  0.6597
19453TIP3   OH279773   3.064   6.236  10.859  0.3849 -0.4419  0.1523
19453TIP3    H179774   3.033   6.228  10.769  0.8525  0.4843 -0.1088
19453TIP3    H279775   3.135   6.172  10.865  0.7855 -0.0579 -0.3493
19454TIP3   OH279776   5.126   3.427  12.413 -0.0487 -0.0232  0.4651
19454TIP3    H179777   5.091   3.488  12.478 -1.8069  2.4795 -2.5810
19454TIP3    H279778   5.064   3.354  12.413 -0.9724  0.7467  0.4606
19455TIP3   OH279779   3.838   5.692   3.342  0.2475 -0.0603 -0.9062
19455TIP3    H179780   3.815   5.599   3.334  1.5873 -0.8095  2.5435
19455TIP3    H279781   3.895   5.708   3.267  2.2680 -2.8554 -0.1440
19456TIP3   OH279782   0.914   3.269   2.155 -0.1636  0.2450 -0.2427
19456TIP3    H179783   0.864   3.188   2.166  0.1351  0.2222  1.2007
19456TIP3    H279784   1.004   3.244   2.176  0.3011  0.5102 -1.8338
19457TIP3   OH279785   2.796   6.260  14.775 -0.1099  0.1486  0.2616
19457TIP3    H179786   2.816   6.167  14.783 -1.7807 -0.3286 -0.5644
19457TIP3    H279787   2.733   6.265  14.703  0.6779  2.0392 -0.3630
19458TIP3   OH279788   5.486   3.236  16.229 -0.5785  0.3336  0.3429
19458TIP3    H179789   5.499   3.253  16.322 -1.7985 -1.8243  0.9744
19458TIP3    H279790   5.501   3.142  16.219  0.2655  0.6346 -1.7993
19459TIP3   OH279791   5.220   3.938   3.678 -0.4974 -0.0831  0.1727
19459TIP3    H179792   5.239   3.891   3.597 -0.3551  0.8046 -0.3297
19459TIP3    H279793   5.166   3.879   3.729  0.3534 -1.1067 -0.0763
19460TIP3   OH279794   6.076   1.674   3.450  0.1108 -0.3418 -0.6075
19460TIP3    H179795   6.095   1.712   3.364 -0.5247  0.0884 -0.5607
19460TIP3    H279796   6.071   1.580   3.433 -0.6131 -0.2147 -1.1632
19461TIP3   OH279797   3.512   1.870  13.722 -0.0904  0.7973  0.1378
19461TIP3    H179798   3.430   1.864  13.672 -0.1327  1.5254  0.1020
19461TIP3    H279799   3.570   1.808  13.680 -0.0266  1.6170 -1.0419
19462TIP3   OH279800   1.083   2.123   0.146  0.4860  0.0944  0.1560
19462TIP3    H179801   1.003   2.150   0.101 -0.1146 -1.4857  0.2223
19462TIP3    H279802   1.067   2.144   0.239 -1.4714 -3.5266  0.8102
19463TIP3   OH279803   6.529   0.341  14.049 -0.1746  0.5826  0.2700
19463TIP3    H179804   6.605   0.328  14.106 -0.0159  0.9069  0.1386
19463TIP3    H279805   6.505   0.253  14.021 -0.5035  0.3779  1.1507
19464TIP3   OH279806   2.326   5.342  11.862 -0.0730 -0.1108  0.3945
19464TIP3    H179807   2.324   5.386  11.947 -1.2007  0.8838 -0.1230
19464TIP3    H279808   2.235   5.344  11.832  0.3937  0.0033 -1.0677
19465TIP3   OH279809   2.636   0.546  14.390 -0.2093  0.0181  0.0866
19465TIP3    H179810   2.718   0.501  14.412  1.1006  3.0988  2.0906
19465TIP3    H279811   2.656   0.593  14.309  0.7826  2.3129  1.5724
19466TIP3   OH279812   6.182   2.170   3.370  0.3284 -0.6021  0.2443
19466TIP3    H179813   6.217   2.090   3.410  0.0659 -0.9809 -0.2671
19466TIP3    H279814   6.214   2.241   3.425  1.2463 -0.9997  0.2384
19467TIP3   OH279815   0.210   0.862   4.236  0.0902 -0.3293  0.0403
19467TIP3    H179816   0.211   0.858   4.140 -1.0418 -1.4685  0.0535
19467TIP3    H279817   0.288   0.811   4.262  0.3197 -0.1435 -0.2686
19468TIP3   OH279818   6.336   1.222  14.940  0.2006  0.0339 -0.0582
19468TIP3    H179819   6.344   1.246  15.032 -0.0187 -1.3682  0.3453
19468TIP3    H279820   6.286   1.294  14.901 -2.1981 -0.6537  1.5174
19469TIP3   OH279821   5.561   4.437   4.806 -0.2309  0.4918  0.6339
19469TIP3    H179822   5.611   4.392   4.873 -0.8391  1.7223  1.9702
19469TIP3    H279823   5.488   4.477   4.853 -1.5679  0.1105 -1.0063
19470TIP3   OH279824   5.222   0.395   5.107  0.1390  0.4989 -0.5823
19470TIP3    H179825   5.302   0.396   5.160 -0.4244  1.5060  0.2795
19470TIP3    H279826   5.218   0.306   5.072 -0.7630 -1.0965  3.1092
19471TIP3   OH279827   2.423   1.171  11.100  0.0406  0.5554 -0.4927
19471TIP3    H179828   2.344   1.209  11.061  0.2847  1.8570  0.2083
19471TIP3    H279829   2.417   1.078  11.080 -1.9148  0.5384 -0.0691
19472TIP3   OH279830   5.782   0.289  13.509  0.3033  0.0207 -0.0214
19472TIP3    H179831   5.797   0.383  13.524 -2.1458  1.0905 -3.0183
19472TIP3    H279832   5.866   0.256  13.477  0.6339  1.8089 -1.1489
19473TIP3   OH279833   3.978   5.567  12.077 -0.1813  0.1539  0.0861
19473TIP3    H179834   3.975   5.564  12.173 -1.7637 -1.0813  0.0376
19473TIP3    H279835   4.036   5.495  12.053  1.7058  1.5737  0.0987
19474TIP3   OH279836   3.723   3.032  14.234  0.1158 -0.4336 -0.3628
19474TIP3    H179837   3.670   2.957  14.261  0.4489  0.0195  1.6804
19474TIP3    H279838   3.769   3.058  14.313  0.8845  1.2327 -1.3229
19475TIP3   OH279839   5.908   4.719  11.373  0.0972  0.0107 -0.3897
19475TIP3    H179840   5.841   4.745  11.310 -1.1630  4.6810  2.3376
19475TIP3    H279841   5.991   4.728  11.325 -0.9231 -0.6788 -2.3986
19476TIP3   OH279842   2.678   2.313   0.270  0.4102 -0.0264 -0.1759
19476TIP3    H179843   2.752   2.258   0.245  0.1414 -0.2736 -0.4272
19476TIP3    H279844   2.673   2.303   0.365  1.9103  1.5128  0.1186
19477TIP3   OH279845   6.429   6.329  13.788  0.2168  0.7456  0.2636
19477TIP3    H179846   6.493   6.387  13.747 -0.3643  1.5619  0.4788
19477TIP3    H279847   6.364   6.313  13.719 -1.2262  2.8298  1.0701
19478TIP3   OH279848   3.167   0.548  12.168  0.1546 -0.9204  0.1318
19478TIP3    H179849   3.091   0.492  12.151 -0.1365 -0.4247 -0.2294
19478TIP3    H279850   3.242   0.491  12.151 -0.1391 -1.1372 -0.4984
19479TIP3   OH279851   4.909   6.327  11.583 -0.3301  0.2986 -0.1536
19479TIP3    H179852   4.859   6.309  11.503 -1.2451 -1.9845  0.8390
19479TIP3    H279853   4.882   6.258  11.644  1.5310  1.0199  1.5970
19480TIP3   OH279854   0.100   3.866  13.411  0.4367 -0.0415 -0.0092
19480TIP3    H179855   0.098   3.930  13.340 -0.8647  1.3024  1.1779
19480TIP3    H279856   0.179   3.887  13.461 -0.8960  1.8963  1.4128
19481TIP3   OH279857   2.869   3.812  15.689 -0.1433  0.5083 -0.1924
19481TIP3    H179858   2.860   3.905  15.711  0.0081  0.5012 -0.0929
19481TIP3    H279859   2.898   3.771  15.771 -1.0117  0.2367 -0.0115
19482TIP3   OH279860   1.820   1.120  16.158 -0.0887 -0.0963 -0.0734
19482TIP3    H179861   1.888   1.060  16.126  0.4836  0.5164 -0.0171
19482TIP3    H279862   1.834   1.124  16.252 -1.4565 -1.5038  0.2372
19483TIP3   OH279863   1.152   3.024   5.946  0.1210 -0.6982 -0.4046
19483TIP3    H179864   1.212   2.992   6.013 -1.5728 -0.5788  1.2353
19483TIP3    H279865   1.202   3.015   5.864  2.5831  0.0058  0.9047
19484TIP3   OH279866   2.399   2.039  13.969 -0.2323 -0.2869  0.3553
19484TIP3    H179867   2.475   2.039  13.911  0.5623  2.6724  1.2535
19484TIP3    H279868   2.435   2.028  14.057 -0.8807  0.6839  0.7527
19485TIP3   OH279869   4.866   4.252  17.091 -0.2576 -0.4857 -0.1995
19485TIP3    H179870   4.884   4.248  17.185 -1.6509  2.0160  0.2742
19485TIP3    H279871   4.789   4.196  17.079 -1.5462  0.9956  0.6671
19486TIP3   OH279872   4.804   2.607   6.124  0.0822  0.0092  0.4593
19486TIP3    H179873   4.866   2.660   6.074 -0.1348  0.7114  0.9321
19486TIP3    H279874   4.857   2.566   6.192  0.7822 -2.5200 -1.4484
19487TIP3   OH279875   3.096   4.348   2.712 -0.2939 -0.3522 -0.5330
19487TIP3    H179876   3.027   4.381   2.769 -2.4473  0.5962 -3.4606
19487TIP3    H279877   3.063   4.263   2.681  0.8328 -0.8569 -0.3882
19488TIP3   OH279878   0.114   4.547   5.442 -0.3580 -1.1678  0.0156
19488TIP3    H179879   0.181   4.547   5.374  0.8001  0.4741  1.0993
19488TIP3    H279880   0.109   4.637   5.472 -1.4972 -1.6769  1.4951
19489TIP3   OH279881   5.711   1.302  11.324  0.2720 -0.4578  0.1370
19489TIP3    H179882   5.705   1.206  11.327 -0.5893 -0.3945  1.3481
19489TIP3    H279883   5.689   1.325  11.234  1.7939 -1.4533 -0.5456
19490TIP3   OH279884   1.029   5.415   6.374 -0.3338  0.5288  0.4487
19490TIP3    H179885   1.004   5.439   6.463 -1.2210  2.5839 -0.2968
19490TIP3    H279886   0.973   5.469   6.318  1.5084  0.6958 -1.3429
19491TIP3   OH279887   6.388   3.031   2.335 -0.1597  0.1695  0.0852
19491TIP3    H179888   6.417   3.121   2.321 -2.2877  0.7992 -0.8542
19491TIP3    H279889   6.345   3.033   2.420 -0.7928  0.2466 -0.2250
19492TIP3   OH279890   0.309   6.053  11.399 -0.8129  0.6455  0.3726
19492TIP3    H179891   0.280   6.023  11.486 -0.4348 -2.6868 -0.5046
19492TIP3    H279892   0.391   6.100  11.416 -1.5971  1.5262  1.9292
19493TIP3   OH279893   6.175   4.232   2.798 -0.0028 -0.5408  0.7665
19493TIP3    H179894   6.111   4.269   2.860  0.5849 -3.9249  3.7671
19493TIP3    H279895   6.130   4.157   2.760  1.0641 -0.9114  0.2173
19494TIP3   OH279896   3.539   3.675   2.843 -0.2637  0.3943 -0.2171
19494TIP3    H179897   3.477   3.691   2.771  0.9100  1.7466 -0.9792
19494TIP3    H279898   3.546   3.759   2.888 -2.3912 -0.8428  2.7574
19495TIP3   OH279899   6.196   4.429  16.277 -0.1402  0.3823 -0.8925
19495TIP3    H179900   6.154   4.492  16.335 -1.5111  0.3318 -1.7956
19495TIP3    H279901   6.172   4.344  16.313  1.6257  0.3223  0.2674
19496TIP3   OH279902   0.417   5.399  15.844 -0.1594 -0.0496 -0.0203
19496TIP3    H179903   0.340   5.406  15.902 -0.7320 -0.3611 -0.7247
19496TIP3    H279904   0.478   5.345  15.893 -0.0218  0.9215  0.9222
19497TIP3   OH279905   2.228   5.718   6.525  0.4251 -0.1078  0.4191
19497TIP3    H179906   2.212   5.806   6.491  2.2383 -0.5553 -1.8770
19497TIP3    H279907   2.272   5.673   6.453  1.1783 -2.3397  2.1777
19498TIP3   OH279908   4.276   1.184  10.424  0.0904  0.5767 -0.3025
19498TIP3    H179909   4.191   1.180  10.467  1.4901  1.4992  2.8472
19498TIP3    H279910   4.306   1.093  10.422 -0.3460  0.4232 -0.0348
19499TIP3   OH279911   5.660   1.317  13.196 -0.0294 -0.2044 -0.3179
19499TIP3    H179912   5.629   1.227  13.184 -0.3704 -0.1211 -0.0882
19499TIP3    H279913   5.603   1.352  13.264 -1.4173  0.9143 -1.9782
19500TIP3   OH279914   1.354   2.052   0.786  0.1432 -0.4596 -0.2749
19500TIP3    H179915   1.424   2.004   0.740 -0.1691 -0.8064 -0.3941
19500TIP3    H279916   1.315   2.107   0.719 -2.0259 -2.8424 -1.1405
19501TIP3   OH279917   4.246   0.571  13.784 -0.0324  0.2514 -0.1304
19501TIP3    H179918   4.315   0.636  13.774 -1.1935  1.3756 -1.1765
19501TIP3    H279919   4.170   0.622  13.813 -0.2989 -1.0452  1.6337
19502TIP3   OH279920   1.170   3.305  13.131  0.4846 -0.2508  0.6440
19502TIP3    H179921   1.260   3.290  13.103  0.0614 -0.0882 -0.8948
19502TIP3    H279922   1.176   3.316  13.226  1.8994 -1.5799  0.7513
19503TIP3   OH279923   2.753   2.295  11.005  0.4718  0.6899  0.6271
19503TIP3    H179924   2.665   2.258  11.001  0.8947 -0.4682  1.3683
19503TIP3    H279925   2.778   2.308  10.914 -0.4204  0.9463  0.4095
19504TIP3   OH279926   6.441   2.361   0.949  0.0457  0.3700 -0.3498
19504TIP3    H179927   6.395   2.349   1.032  1.9817 -1.3660  0.5525
19504TIP3    H279928   6.402   2.296   0.891  0.6358 -0.3789  0.0880
19505TIP3   OH279929   2.274   0.551   2.863  0.3177 -0.0502 -0.0040
19505TIP3    H179930   2.311   0.630   2.902 -0.9701  0.3535  0.4304
19505TIP3    H279931   2.234   0.581   2.782  2.3006 -0.7601 -1.3296
19506TIP3   OH279932   4.248   3.219  12.719 -0.0476 -0.0512  0.1065
19506TIP3    H179933   4.159   3.217  12.683  0.1256 -1.2772 -0.2984
19506TIP3    H279934   4.302   3.179  12.651  0.8384  0.8102  0.2971
19507TIP3   OH279935   5.352   1.961   0.137 -0.6422 -0.1693 -0.7758
19507TIP3    H179936   5.388   2.044   0.169 -2.1131  0.5512 -0.9168
19507TIP3    H279937   5.288   1.987   0.070 -1.2242 -1.4105 -0.7210
19508TIP3   OH279938   4.212   6.061   2.837 -0.2888  0.4407  0.2790
19508TIP3    H179939   4.267   6.053   2.759  0.7589  0.8993  0.9475
19508TIP3    H279940   4.159   5.981   2.838 -0.7824  0.7126 -1.2287
19509TIP3   OH279941   5.863   2.998   4.202  0.0207 -0.4452 -0.2731
19509TIP3    H179942   5.772   3.023   4.216  0.2041 -0.6206  1.3904
19509TIP3    H279943   5.899   3.067   4.146 -0.4326  1.1314  1.2730
19510TIP3   OH279944   3.315   3.254   1.865 -0.0993 -0.2385 -0.0286
19510TIP3    H179945   3.350   3.318   1.926 -0.4223  0.4085 -0.5111
19510TIP3    H279946   3.223   3.244   1.890  0.6573 -3.0340  2.1918
19511TIP3   OH279947   0.402   3.485   1.321  0.2106  0.5026 -0.5566
19511TIP3    H179948   0.484   3.500   1.368  0.2258 -0.4347 -0.2430
19511TIP3    H279949   0.360   3.413   1.370 -1.4390  1.8508  0.0953
19512TIP3   OH279950   6.074   2.823  12.163  0.6960 -0.1948  0.1786
19512TIP3    H179951   5.981   2.800  12.171 -0.4590  3.1025 -1.5459
19512TIP3    H279952   6.092   2.877  12.240  0.5871  0.6379 -0.3580
19513TIP3   OH279953   6.354   0.232  15.351 -0.6204  1.0462 -0.4512
19513TIP3    H179954   6.312   0.181  15.421 -1.7039  2.5233  0.0101
19513TIP3    H279955   6.445   0.239  15.379 -0.6443  0.1190 -0.0876
19514TIP3   OH279956   1.054   0.107   3.677  0.1474  0.2523 -0.4639
19514TIP3    H179957   1.076   0.169   3.607  2.3630 -0.2459 -0.2652
19514TIP3    H279958   0.998   0.158   3.736  2.5771  2.4598  0.1531
19515TIP3   OH279959   6.374   5.281   1.986 -0.3276  0.5458  0.1968
19515TIP3    H179960   6.367   5.373   2.013  0.6995  0.6677  0.0987
19515TIP3    H279961   6.285   5.255   1.963 -0.6632  1.4481  0.4585
19516TIP3   OH279962   5.644   2.252   0.006 -0.2087 -0.0251  0.1924
19516TIP3    H179963   5.732   2.218   0.021 -0.6956 -1.5381 -0.2512
19516TIP3    H279964   5.635   2.324   0.069  0.4903 -1.3673  1.8930
19517TIP3   OH279965   6.399   5.717   1.217  0.1487 -0.1404 -0.2086
19517TIP3    H179966   6.306   5.728   1.201 -0.1755 -1.8630  0.3245
19517TIP3    H279967   6.432   5.670   1.140  1.0859  2.3751 -1.4767
19518TIP3   OH279968   4.274   2.018   0.087 -0.0723 -0.0940  0.0169
19518TIP3    H179969   4.219   1.959   0.035 -0.9374  0.5011  0.2354
19518TIP3    H279970   4.212   2.070   0.138  0.7012  0.5618  0.3142
19519TIP3   OH279971   5.712   0.931  11.951  0.3228 -0.3058  0.1411
19519TIP3    H179972   5.793   0.935  12.002 -1.0375 -1.5454  2.5776
19519TIP3    H279973   5.718   0.848  11.903  0.2819 -0.6719  0.7559
19520TIP3   OH279974   6.590   4.593   3.251  0.1808  0.4326  0.3906
19520TIP3    H179975   6.681   4.572   3.273 -0.1625 -0.8323  0.6488
19520TIP3    H279976   6.581   4.570   3.159  0.2466  1.0517  0.2200
19521TIP3   OH279977   2.956   0.248  14.232 -0.3801  0.2572 -0.5366
19521TIP3    H179978   2.994   0.192  14.299  0.4013  0.8179 -0.4927
19521TIP3    H279979   2.953   0.194  14.153 -0.2593 -0.0538 -0.3263
19522TIP3   OH279980   1.648   5.782  14.637  0.2173  0.0343 -0.5012
19522TIP3    H179981   1.558   5.809  14.656  0.5279  0.7626 -0.0068
19522TIP3    H279982   1.685   5.855  14.588  1.1933  0.7530  1.2043
19523TIP3   OH279983   6.504   1.117  11.485  0.0438  0.9105 -0.4723
19523TIP3    H179984   6.577   1.156  11.533 -1.0276  0.7721  1.3721
19523TIP3    H279985   6.457   1.066  11.551 -0.2306 -1.2026 -2.1824
19524TIP3   OH279986   6.230   3.758  13.979 -0.2941 -0.6381 -0.5146
19524TIP3    H179987   6.306   3.816  13.986 -0.9249  0.6897 -3.1980
19524TIP3    H279988   6.264   3.678  13.938  0.0014 -0.8866  0.2045
19525TIP3   OH279989   6.625   3.064   1.393 -0.6296  0.1164 -0.2408
19525TIP3    H179990   6.635   3.146   1.345 -0.7544  1.8510  2.4691
19525TIP3    H279991   6.710   3.020   1.383 -0.0447  1.2779 -0.5627
19526TIP3   OH279992   5.472   5.590   2.844 -0.1651  0.1530  0.2957
19526TIP3    H179993   5.494   5.642   2.767  0.3328 -0.7939 -0.2186
19526TIP3    H279994   5.485   5.649   2.918  2.0430  0.2842 -0.1507
19527TIP3   OH279995   2.721   4.186   0.857 -0.1921  0.2074 -0.1723
19527TIP3    H179996   2.755   4.271   0.885  1.4626 -0.3301 -0.4104
19527TIP3    H279997   2.708   4.137   0.938  0.2750  0.1893 -0.1068
19528TIP3   OH279998   0.385   1.409   3.823 -0.1911 -0.0974  0.3013
19528TIP3    H179999   0.388   1.324   3.867 -2.4608 -0.2569  0.2410
19528TIP3    H280000   0.412   1.390   3.733  0.2109 -0.5762  0.5175
19529TIP3   OH280001   3.025   3.297  14.335 -0.6267  0.0311 -0.3767
19529TIP3    H180002   3.078   3.241  14.278 -0.3612  2.7693 -3.0787
19529TIP3    H280003   2.936   3.292  14.298 -0.9194  0.2867  0.2684
19530TIP3   OH280004   0.413   2.019  11.001 -0.3542 -0.1052  0.3482
19530TIP3    H180005   0.331   2.065  10.989 -0.4158 -0.5438 -1.1564
19530TIP3    H280006   0.389   1.926  10.997  0.2871 -0.2389 -0.9014
19531TIP3   OH280007   1.858   2.019   1.130 -0.2430  0.1064 -0.4379
19531TIP3    H180008   1.877   1.927   1.109 -0.1080  0.2615 -0.9934
19531TIP3    H280009   1.773   2.015   1.175 -0.7413 -0.1942 -1.3681
19532TIP3   OH280010   3.567   2.563   1.146 -0.4081 -0.2071  0.3198
19532TIP3    H180011   3.482   2.519   1.148 -1.5210  1.8080  0.5652
19532TIP3    H280012   3.553   2.645   1.194  1.9236 -0.1781  1.0801
19533TIP3   OH280013   1.779   2.995  14.670 -0.1190  0.1334  0.1570
19533TIP3    H180014   1.688   2.971  14.689  0.8453 -1.5207  3.6030
19533TIP3    H280015   1.816   2.918  14.626  0.4610 -0.8102  2.1704
19534TIP3   OH280016   3.366   2.502  15.430 -0.2562  0.6641  1.0659
19534TIP3    H180017   3.354   2.542  15.516 -2.0096  1.3486  0.5424
19534TIP3    H280018   3.315   2.557  15.370 -1.4451 -1.4146  0.0561
19535TIP3   OH280019   5.096   6.734   5.140 -0.6159  0.4738  0.0758
19535TIP3    H180020   5.094   6.752   5.234  2.9711  1.4019  0.1430
19535TIP3    H280021   5.077   6.641   5.133 -1.9644  0.5849  1.5654
19536TIP3   OH280022   2.192   3.129  16.334 -0.1912  0.4186  0.3299
19536TIP3    H180023   2.099   3.112  16.343 -0.3694 -1.1888 -3.0277
19536TIP3    H280024   2.197   3.218  16.300 -0.5942  0.1281 -0.5057
19537TIP3   OH280025   4.614   6.384   1.929  0.5805  0.5051 -0.6821
19537TIP3    H180026   4.686   6.412   1.986 -0.2247  0.7669  0.2447
19537TIP3    H280027   4.537   6.426   1.967  0.0499  0.9018 -2.1358
19538TIP3   OH280028   0.088   5.934   3.220  0.1198  0.1001  0.2771
19538TIP3    H180029   0.133   6.010   3.256 -2.9193  1.7381  0.9794
19538TIP3    H280030   0.076   5.955   3.127 -1.0873  0.7576  0.5555
19539TIP3   OH280031   3.681   4.545  10.964 -0.0740  0.1928  0.1441
19539TIP3    H180032   3.659   4.599  11.040 -1.9939  0.4212 -0.5146
19539TIP3    H280033   3.750   4.486  10.995 -0.4731  0.6112  1.9114
19540TIP3   OH280034   3.366   5.237  12.789 -0.1053  0.7352 -0.5758
19540TIP3    H180035   3.273   5.256  12.785 -0.6187 -1.4196 -0.2125
19540TIP3    H280036   3.377   5.160  12.734  1.2351  0.2468  0.3121
19541TIP3   OH280037   1.370   6.374  16.655 -0.1869 -0.8153  0.1741
19541TIP3    H180038   1.380   6.341  16.744 -0.2623 -0.1718  0.4270
19541TIP3    H280039   1.276   6.375  16.640 -0.4614  2.2869  1.3634
19542TIP3   OH280040   5.320   2.869   0.730  0.6102 -0.5338 -0.2002
19542TIP3    H180041   5.291   2.788   0.772 -0.0760  0.5125  1.4765
19542TIP3    H280042   5.353   2.923   0.802 -1.0949  1.5619 -0.8527
19543TIP3   OH280043   1.409   6.534   5.756  0.0754  0.1109  0.0975
19543TIP3    H180044   1.402   6.621   5.795 -0.9882 -0.8849  2.3097
19543TIP3    H280045   1.486   6.495   5.796  1.4612  0.5004 -2.0322
19544TIP3   OH280046   4.300   5.619   2.975  0.0456  0.1418 -0.1536
19544TIP3    H180047   4.308   5.537   2.926  0.0059  0.0300  0.0248
19544TIP3    H280048   4.225   5.664   2.936 -1.4814 -1.0037  1.3159
19545TIP3   OH280049   0.138   6.012  13.241  0.4607 -0.1966  0.2460
19545TIP3    H180050   0.137   6.055  13.155 -0.2133 -3.2567 -1.4162
19545TIP3    H280051   0.184   5.930  13.226  0.9496 -0.5479  3.0488
19546TIP3   OH280052   4.522   5.964   5.328 -0.3612 -0.7302  0.5036
19546TIP3    H180053   4.557   5.958   5.417 -2.8121  0.5333  1.6349
19546TIP3    H280054   4.582   6.023   5.283  1.5807 -2.2845  0.8821
19547TIP3   OH280055   5.552   1.352   0.021 -0.2356 -0.6086  0.4958
19547TIP3    H180056   5.477   1.403   0.050  0.5284  0.9315 -0.1018
19547TIP3    H280057   5.554   1.363  -0.074  1.5063  0.5730  0.6074
19548TIP3   OH280058   2.652   5.412   3.818  0.1475 -0.6183 -0.0761
19548TIP3    H180059   2.677   5.497   3.781  0.4212 -0.3954  0.6047
19548TIP3    H280060   2.696   5.347   3.763 -0.9378 -0.3767 -1.2856
19549TIP3   OH280061   0.585   0.585  13.292 -0.3978  0.1109  0.1447
19549TIP3    H180062   0.657   0.533  13.327 -0.1979  1.0149  1.1241
19549TIP3    H280063   0.506   0.547  13.331 -0.2463  0.5654  0.9110
19550TIP3   OH280064   2.360   1.984   0.481 -0.5446 -0.1460 -0.7217
19550TIP3    H180065   2.381   1.959   0.391 -1.8629 -5.3950  0.1403
19550TIP3    H280066   2.271   2.018   0.476 -1.3456 -2.2233 -1.2441
19551TIP3   OH280067   0.135   2.531  13.150  0.6382 -0.4282 -0.7543
19551TIP3    H180068   0.183   2.467  13.203 -1.2989 -0.2020  1.4544
19551TIP3    H280069   0.090   2.479  13.084  1.5513 -0.9513 -0.9893
19552TIP3   OH280070   6.557   6.389  14.413  0.5106 -0.2547 -0.0716
19552TIP3    H180071   6.501   6.312  14.425 -1.4146  1.2379  1.1498
19552TIP3    H280072   6.646   6.353  14.412 -0.2657 -2.4375  1.0041
19553TIP3   OH280073   3.748   3.251  13.439 -0.4885 -0.0006 -0.3711
19553TIP3    H180074   3.708   3.334  13.414 -0.5595  0.1000  0.0679
19553TIP3    H280075   3.761   3.205  13.357  0.3353  0.7857 -0.6973
19554TIP3   OH280076   4.372   3.528   1.212 -0.1374 -0.1741 -0.5219
19554TIP3    H180077   4.426   3.564   1.282 -0.6683 -0.1881 -0.0923
19554TIP3    H280078   4.434   3.491   1.150  0.3969  0.9797 -0.6946
19555TIP3   OH280079   5.728   4.909  12.107  0.1215  0.2602  0.1301
19555TIP3    H180080   5.786   4.852  12.159  1.7655  1.4781 -0.2711
19555TIP3    H280081   5.641   4.873  12.121  0.8925 -1.3398  1.2158
19556TIP3   OH280082   5.917   1.986  14.515 -0.2187  0.2976 -0.0131
19556TIP3    H180083   5.884   2.068  14.478  1.1058  0.8745  0.0143
19556TIP3    H280084   5.972   1.949  14.446  1.2087  0.7206  0.8326
19557TIP3   OH280085   3.821   0.365  16.746 -0.2421 -0.2474  0.6941
19557TIP3    H180086   3.915   0.347  16.744 -0.5025 -1.7165 -0.9621
19557TIP3    H280087   3.814   0.460  16.737  1.0682 -0.2718 -0.8641
19558TIP3   OH280088   4.410   4.204  15.804  0.1404  0.0890 -0.4473
19558TIP3    H180089   4.356   4.144  15.856  1.2423 -0.3816  0.1853
19558TIP3    H280090   4.494   4.207  15.850  1.4963 -1.0713 -2.6512
19559TIP3   OH280091   2.851   0.666   1.583  0.3095 -0.5545  0.3206
19559TIP3    H180092   2.870   0.585   1.535 -0.2222 -0.9601  0.7820
19559TIP3    H280093   2.875   0.647   1.673 -0.0325 -0.2764  0.4719
19560TIP3   OH280094   5.855   3.537   5.652  0.2057 -0.0069  0.4711
19560TIP3    H180095   5.789   3.469   5.660  1.1772 -0.8987  1.1680
19560TIP3    H280096   5.928   3.495   5.607 -0.0403  1.2297 -1.1655
19561TIP3   OH280097   1.241   6.241  10.866  0.2473 -0.8590  0.5450
19561TIP3    H180098   1.319   6.201  10.828  1.0220 -0.3115  1.4950
19561TIP3    H280099   1.273   6.323  10.905 -1.1756  0.4358 -0.8485
19562TIP3   OH280100   1.546   1.706   4.892 -0.3886  0.0211  0.2920
19562TIP3    H180101   1.629   1.738   4.858 -0.6706 -0.5707 -1.0067
19562TIP3    H280102   1.480   1.743   4.834 -0.9005 -0.8296  0.3027
19563TIP3   OH280103   0.458   0.601   3.324 -0.0870  0.3135  0.0610
19563TIP3    H180104   0.435   0.577   3.413  0.6707  1.2207  0.5131
19563TIP3    H280105   0.552   0.620   3.327  0.0505 -0.0916 -1.0330
19564TIP3   OH280106   3.674   4.150   0.803  0.1330 -0.2773  0.3762
19564TIP3    H180107   3.600   4.202   0.834 -0.3995  0.5708 -2.0438
19564TIP3    H280108   3.658   4.063   0.839 -1.0939  0.3125  1.3438
19565TIP3   OH280109   3.233   2.218   2.934 -0.2976  0.3369 -0.0022
19565TIP3    H180110   3.228   2.191   3.025 -1.0217  0.0569 -0.1237
19565TIP3    H280111   3.307   2.168   2.898  0.7132  1.2672  0.6925
19566TIP3   OH280112   3.423   0.823   0.320 -0.3710  0.4889  0.2146
19566TIP3    H180113   3.403   0.868   0.402 -0.9680  0.3477  0.1507
19566TIP3    H280114   3.444   0.894   0.259  0.4851  0.5728  0.5919
19567TIP3   OH280115   1.594   2.819   2.656 -0.2865  0.4624 -0.0596
19567TIP3    H180116   1.510   2.802   2.613 -0.7589 -1.2872  1.4033
19567TIP3    H280117   1.590   2.767   2.737  2.1037  0.5506  0.1820
19568TIP3   OH280118   6.754   5.458  13.175 -0.3658  0.1381  0.0563
19568TIP3    H180119   6.803   5.386  13.215  0.7689  1.0602  0.3815
19568TIP3    H280120   6.768   5.447  13.081  0.0511  0.0926  0.1190
19569TIP3   OH280121   2.610   1.013  12.869 -0.0443  0.1732  0.0983
19569TIP3    H180122   2.593   1.098  12.907  0.6896  0.1293  0.5454
19569TIP3    H280123   2.595   1.025  12.775  1.0023  1.0567  0.0296
19570TIP3   OH280124   4.360   3.265  10.868 -0.0584  0.5573  0.1302
19570TIP3    H180125   4.353   3.313  10.951  1.5785  0.0761  0.5701
19570TIP3    H280126   4.438   3.301  10.827 -0.2285 -0.0126 -0.6980
19571TIP3   OH280127   1.571   4.085   4.067  0.1932  0.2060  0.9500
19571TIP3    H180128   1.640   4.029   4.030 -0.6777 -0.5328  0.3779
19571TIP3    H280129   1.496   4.070   4.009 -0.5403  0.7385  1.7538
19572TIP3   OH280130   2.333   0.512  17.165 -0.8662 -0.7138 -0.2775
19572TIP3    H180131   2.267   0.446  17.143 -0.1210 -1.4164 -0.4331
19572TIP3    H280132   2.347   0.560  17.083 -0.7375 -0.9684 -0.4063
19573TIP3   OH280133   0.069   0.287   4.999 -0.8429  0.4011  0.1596
19573TIP3    H180134   0.027   0.276   5.084 -1.2434 -0.4440 -0.1339
19573TIP3    H280135   0.132   0.215   4.994 -1.6892 -0.3108 -0.7484
19574TIP3   OH280136   0.298   2.352   2.165  0.0882 -0.3388 -0.5250
19574TIP3    H180137   0.254   2.352   2.250 -0.6313  0.2670 -0.8860
19574TIP3    H280138   0.376   2.299   2.179 -1.5906 -2.9334 -0.3263
19575TIP3   OH280139   1.105   5.159   4.032 -0.1903  0.6879  0.4856
19575TIP3    H180140   1.112   5.079   4.085 -0.5176 -1.0235 -1.8921
19575TIP3    H280141   1.112   5.230   4.095 -0.8664 -1.2109  2.8507
19576TIP3   OH280142   2.723   0.475  12.791 -0.7897  0.4612 -0.0792
19576TIP3    H180143   2.661   0.532  12.747 -0.6732  0.9085  0.3352
19576TIP3    H280144   2.669   0.409  12.835 -0.9028 -0.1243 -1.0510
19577TIP3   OH280145   2.567   5.312  13.576 -0.3731  0.0787  0.2854
19577TIP3    H180146   2.599   5.270  13.656  0.9162 -0.5986 -0.5496
19577TIP3    H280147   2.486   5.266  13.555  0.1306 -0.8479  0.3300
19578TIP3   OH280148   1.603   5.374   5.040  0.2162 -0.0668 -0.6483
19578TIP3    H180149   1.510   5.388   5.022  0.5283  0.9886 -1.5576
19578TIP3    H280150   1.629   5.304   4.981 -0.5338 -2.1688  1.3783
19579TIP3   OH280151   4.851   5.543   1.976 -0.3688  0.0434 -0.5487
19579TIP3    H180152   4.928   5.488   1.962 -0.2107  0.6436 -2.2356
19579TIP3    H280153   4.872   5.596   2.053  0.5086 -0.4550 -0.4378
19580TIP3   OH280154   1.850   0.698   3.549 -0.4890 -0.1172  0.6123
19580TIP3    H180155   1.918   0.766   3.553 -1.4052  0.7755  1.5281
19580TIP3    H280156   1.877   0.642   3.476  1.0416  0.4121  0.7256
19581TIP3   OH280157   3.922   4.605  13.318 -0.1070 -0.4504 -0.7841
19581TIP3    H180158   3.939   4.698  13.308  1.9815 -0.4649  1.6328
19581TIP3    H280159   3.833   4.600  13.354 -0.1623  0.5988 -0.7576
19582TIP3   OH280160   4.802   1.459   3.023 -0.1771 -0.9258 -0.6076
19582TIP3    H180161   4.892   1.483   3.044 -0.2986 -1.9864  1.3908
19582TIP3    H280162   4.811   1.379   2.971  0.0405 -0.8337 -0.7142
19583TIP3   OH280163   6.749   1.413   5.516  0.0792 -0.4219  0.5480
19583TIP3    H180164   6.778   1.436   5.604 -0.1228 -1.0438  0.7815
19583TIP3    H280165   6.821   1.362   5.480  1.1459  1.7079 -0.4928
19584TIP3   OH280166   0.004   5.527   3.397  0.1859  0.7498 -0.3627
19584TIP3    H180167  -0.058   5.598   3.385  0.9416  1.4098 -0.4867
19584TIP3    H280168   0.070   5.542   3.329  0.9125  0.5518  0.2850
19585TIP3   OH280169   1.699   2.158   2.037  0.3541 -0.9549 -0.0384
19585TIP3    H180170   1.693   2.073   1.993 -0.3503 -0.4307 -0.9799
19585TIP3    H280171   1.751   2.140   2.116  0.2874 -2.2398 -0.2618
19586TIP3   OH280172   1.079   4.439   0.332  0.1115 -0.5360  0.0965
19586TIP3    H180173   1.157   4.482   0.297 -1.0085  1.0724 -0.5387
19586TIP3    H280174   1.064   4.365   0.273 -0.0464  0.3947 -1.0714
19587TIP3   OH280175   2.099   4.094  15.303 -0.4207  0.1731  0.9725
19587TIP3    H180176   2.160   4.147  15.251 -0.1111  0.8870  2.0300
19587TIP3    H280177   2.082   4.017  15.249  0.1300  0.7479 -0.0472
19588TIP3   OH280178   1.994   2.376   0.037 -0.3345 -0.2583  0.4076
19588TIP3    H180179   1.992   2.441   0.107 -0.0231 -1.7148  1.8395
19588TIP3    H280180   2.072   2.398  -0.014  0.7081 -0.4746  1.8626
19589TIP3   OH280181   3.765   2.392  16.064  0.2212 -0.0648  0.3591
19589TIP3    H180182   3.676   2.422  16.048  0.0851 -0.2658  0.7479
19589TIP3    H280183   3.811   2.468  16.098  0.0531 -0.1096  0.6877
19590TIP3   OH280184   0.542   6.655  16.128 -0.5283 -0.3625  0.0090
19590TIP3    H180185   0.462   6.686  16.085 -1.0691 -1.4267  0.2329
19590TIP3    H280186   0.513   6.585  16.186  0.4726 -0.2758  0.6413
19591TIP3   OH280187   2.441   3.548   2.156  0.0157 -0.1065  0.0543
19591TIP3    H180188   2.420   3.640   2.141  0.1789 -0.1383 -0.3694
19591TIP3    H280189   2.363   3.513   2.200 -0.3232  0.0673 -0.4062
19592TIP3   OH280190   1.336   5.721  13.696  0.4949 -0.1043  0.3306
19592TIP3    H180191   1.340   5.808  13.734  1.0373  0.2795 -0.5916
19592TIP3    H280192   1.333   5.662  13.772  0.8022  0.6723  0.9548
19593TIP3   OH280193   6.085   6.615  15.467 -0.4821 -0.1689  0.8821
19593TIP3    H180194   6.007   6.561  15.452  1.2600 -3.2441  1.9490
19593TIP3    H280195   6.119   6.633  15.379 -2.6833  1.8980  0.3475
19594TIP3   OH280196   6.173   1.707   4.669  0.0453 -0.0795 -0.0708
19594TIP3    H180197   6.150   1.707   4.762 -0.8559 -0.9625 -0.2701
19594TIP3    H280198   6.243   1.772   4.661  1.0341 -0.8944  1.4430
19595TIP3   OH280199   6.655   4.591   1.676 -0.6474  0.1891 -0.0991
19595TIP3    H180200   6.721   4.661   1.671 -0.2860 -0.1344  0.0726
19595TIP3    H280201   6.639   4.579   1.769 -1.4699  0.7389 -0.1585
19596TIP3   OH280202   3.151   5.891   5.477 -0.2428 -0.5900  0.1775
19596TIP3    H180203   3.181   5.958   5.415  0.6636 -0.8916  0.2829
19596TIP3    H280204   3.103   5.941   5.544  2.4747  0.3328  1.5982
19597TIP3   OH280205   5.239   3.544  17.050 -0.2369 -0.4120  0.0625
19597TIP3    H180206   5.159   3.496  17.073  0.0002 -1.4876 -1.2381
19597TIP3    H280207   5.207   3.630  17.022 -0.8397 -0.4675  0.5438
19598TIP3   OH280208   6.299   6.058  13.314 -0.1169 -0.1965  0.2043
19598TIP3    H180209   6.388   6.024  13.319  0.5373  1.2966 -0.5475
19598TIP3    H280210   6.262   6.017  13.236  0.3744  0.1320 -0.2115
19599TIP3   OH280211   1.139   6.600   2.735  0.1039  0.2965 -0.1073
19599TIP3    H180212   1.111   6.538   2.803  0.1812  0.5302  0.1420
19599TIP3    H280213   1.186   6.547   2.672  0.5209  0.1605  0.3110
19600TIP3   OH280214   3.169   0.012   1.467  0.6480 -0.4264  0.2457
19600TIP3    H180215   3.151   0.106   1.466  0.5573 -0.4343  0.6509
19600TIP3    H280216   3.088  -0.027   1.500  1.0208 -0.5553  1.0458
19601TIP3   OH280217   1.281   3.543   0.758  0.6055 -0.1081  0.2101
19601TIP3    H180218   1.282   3.451   0.733 -1.3090 -0.1105  0.0496
19601TIP3    H280219   1.299   3.591   0.677 -1.4549 -0.2613 -0.3790
19602TIP3   OH280220   2.429   2.543   1.968  0.0737 -0.1092  0.2721
19602TIP3    H180221   2.427   2.620   2.025 -0.5959  0.6157 -0.7052
19602TIP3    H280222   2.494   2.485   2.009  1.7564  1.6274  0.1953
19603TIP3   OH280223   1.169   3.923   5.218 -0.1227  0.3604  0.1252
19603TIP3    H180224   1.085   3.961   5.194 -0.1673 -0.3444 -0.9193
19603TIP3    H280225   1.175   3.844   5.164  1.2939  0.5056  0.0339
19604TIP3   OH280226   2.239   3.070   0.132  0.6069 -0.0660 -0.1635
19604TIP3    H180227   2.290   2.995   0.101  2.3086  1.7019 -1.9122
19604TIP3    H280228   2.213   3.116   0.053  0.1550  1.5711  0.8836
19605TIP3   OH280229   1.152   4.463  14.306  0.4346 -0.3353  0.1815
19605TIP3    H180230   1.244   4.487  14.318  0.1961  1.1768 -0.7870
19605TIP3    H280231   1.108   4.492  14.385  0.5899  0.0930  0.1117
19606TIP3   OH280232   3.114   6.185   0.020  0.3751 -0.2097 -0.3260
19606TIP3    H180233   3.032   6.234   0.028  2.0202  3.0051 -1.2438
19606TIP3    H280234   3.122   6.167  -0.074  1.4949  1.0866 -0.5060
19607TIP3   OH280235   4.345   4.941  15.763  0.5214  0.3929 -0.2536
19607TIP3    H180236   4.276   4.910  15.821 -0.1899  0.9101 -0.8034
19607TIP3    H280237   4.415   4.969  15.822 -0.4604  1.5615  0.4024
19608TIP3   OH280238   2.155   2.404   5.820 -0.7417  0.0517  0.4877
19608TIP3    H180239   2.126   2.314   5.804  0.1119 -0.1289 -0.1594
19608TIP3    H280240   2.214   2.398   5.895  0.5029 -0.1971 -0.4750
19609TIP3   OH280241   0.825   5.752  11.380  0.3585  0.0596 -0.4223
19609TIP3    H180242   0.864   5.803  11.309 -0.8537  2.7399  0.7041
19609TIP3    H280243   0.892   5.751  11.448  0.0219  1.0403 -0.0692
19610TIP3   OH280244   5.457   4.329  12.000 -0.6807 -0.2020  0.1083
19610TIP3    H180245   5.414   4.412  11.981  0.3963  0.4845  0.5600
19610TIP3    H280246   5.517   4.317  11.926  0.9649  0.7085  1.2212
19611TIP3   OH280247   3.749   6.012  16.268  0.2748 -0.4629  0.8482
19611TIP3    H180248   3.803   6.042  16.195 -1.4944 -2.7440 -1.6127
19611TIP3    H280249   3.706   6.091  16.301 -0.7939  0.4235 -2.3287
19612TIP3   OH280250   5.088   3.745  13.619  0.9574  1.0070  0.1568
19612TIP3    H180251   5.177   3.779  13.632  0.5847  1.4065  1.8623
19612TIP3    H280252   5.043   3.764  13.701 -0.2848 -0.5204 -0.1283
19613TIP3   OH280253   2.624   2.332  15.229  0.1568  0.2897  0.3129
19613TIP3    H180254   2.627   2.258  15.289 -1.7570  0.4023  0.6027
19613TIP3    H280255   2.564   2.304  15.159 -1.3693  1.8564  0.9091
19614TIP3   OH280256   1.166   2.676   5.352  0.5418  0.2743 -0.0923
19614TIP3    H180257   1.162   2.746   5.417 -2.2926 -2.6140  3.2412
19614TIP3    H280258   1.239   2.621   5.381  1.0278  0.3564 -1.1001
19615TIP3   OH280259   4.067   6.218  10.842  0.3617  1.0228  0.3368
19615TIP3    H180260   4.040   6.211  10.934 -1.5848 -1.3932 -0.2992
19615TIP3    H280261   4.007   6.282  10.804 -0.6686  0.0443  0.2355
19616TIP3   OH280262   0.288   1.864   3.988  0.0319  0.3015  0.1741
19616TIP3    H180263   0.271   1.786   3.935  0.4395  0.8022 -0.7064
19616TIP3    H280264   0.355   1.912   3.939 -0.2573  1.2331  0.6851
19617TIP3   OH280265   5.316   5.764   3.990  0.3375  0.0670  0.1840
19617TIP3    H180266   5.327   5.719   3.907  0.5170 -1.6902  1.1037
19617TIP3    H280267   5.250   5.713   4.036  2.5950 -1.1030  2.4239
19618TIP3   OH280268   6.399   0.442  11.089 -0.2931  0.2590  0.1603
19618TIP3    H180269   6.456   0.366  11.085 -0.4410  0.1850 -0.5884
19618TIP3    H280270   6.315   0.410  11.056 -0.7513  0.3931  1.1438
19619TIP3   OH280271   0.452   0.824   3.684 -0.0890 -0.4876  0.7084
19619TIP3    H180272   0.379   0.814   3.622  1.3183 -0.5269 -1.0363
19619TIP3    H280273   0.424   0.894   3.743 -1.4203 -0.3148 -0.0803
19620TIP3   OH280274   0.470   4.193   3.180  0.3298  0.5243 -0.5589
19620TIP3    H180275   0.423   4.172   3.099  0.2207  3.0861 -1.2435
19620TIP3    H280276   0.403   4.234   3.236  1.2638  2.5383 -0.8312
19621TIP3   OH280277   3.139   5.221  17.255  0.2774 -0.2733  0.0830
19621TIP3    H180278   3.098   5.283  17.316  0.0559 -1.2499  0.9523
19621TIP3    H280279   3.156   5.273  17.176 -3.4738 -0.0001 -0.7165
19622TIP3   OH280280   4.329   4.119  14.440  0.0462 -0.1063  0.1643
19622TIP3    H180281   4.393   4.116  14.369  0.0747 -1.3295  0.2128
19622TIP3    H280282   4.292   4.207  14.436  0.7066  0.1402 -0.7795
19623TIP3   OH280283   4.600   3.162  15.628  0.2654  0.0763  0.5258
19623TIP3    H180284   4.512   3.199  15.637  0.2086 -0.1218  0.8154
19623TIP3    H280285   4.611   3.108  15.706 -0.0111 -1.2742 -0.3442
19624TIP3   OH280286   6.540   3.267  16.438 -0.7930  0.8095 -0.2835
19624TIP3    H180287   6.464   3.311  16.476 -0.7841  0.2117  0.4750
19624TIP3    H280288   6.614   3.300  16.489 -0.5626  1.2386 -0.8878
19625TIP3   OH280289   1.952   4.162   2.135  0.3865  0.6906 -0.0652
19625TIP3    H180290   2.018   4.167   2.204  2.2342 -0.8520 -1.6183
19625TIP3    H280291   2.000   4.135   2.057 -1.9547  0.3741 -1.4969
19626TIP3   OH280292   0.199   5.094  12.121  0.0732 -0.5683  0.1921
19626TIP3    H180293   0.247   5.163  12.167 -0.0004 -1.6570  1.9787
19626TIP3    H280294   0.108   5.126  12.119  0.0601 -0.5405  0.9054
19627TIP3   OH280295   2.814   3.485   3.278 -0.1179  0.2799  0.1624
19627TIP3    H180296   2.850   3.450   3.196 -2.4201 -2.9356  0.3062
19627TIP3    H280297   2.741   3.541   3.250 -0.0629  0.2706 -0.0009
19628TIP3   OH280298   4.758   6.153   1.816 -0.1651 -0.0666  0.1165
19628TIP3    H180299   4.836   6.204   1.838 -0.3575  0.8167 -1.1439
19628TIP3    H280300   4.685   6.208   1.844 -0.3601 -0.0665 -0.3790
19629TIP3   OH280301   4.129   2.373   2.310  0.5539 -0.0848 -0.2858
19629TIP3    H180302   4.155   2.324   2.388 -1.3087 -0.6002  0.0565
19629TIP3    H280303   4.160   2.319   2.237  0.3045 -0.7587  0.0946
19630TIP3   OH280304   5.235   0.203  16.286  0.0639 -0.0252 -0.2105
19630TIP3    H180305   5.204   0.213  16.376  0.4866  2.1530 -0.2565
19630TIP3    H280306   5.323   0.166  16.295  0.2267  0.4792  0.2822
19631TIP3   OH280307   2.984   5.389  14.925  0.3091 -0.0845  0.4767
19631TIP3    H180308   2.907   5.438  14.894 -0.2529  0.0264  1.9631
19631TIP3    H280309   3.044   5.456  14.956  0.7522 -0.2052 -0.1077
19632TIP3   OH280310   6.234   4.564  16.019  0.2746 -0.2685  0.0105
19632TIP3    H180311   6.177   4.640  16.010 -0.6256 -1.0710 -1.4610
19632TIP3    H280312   6.203   4.520  16.098 -1.8070 -1.1606 -1.2087
19633TIP3   OH280313   0.880   3.399  16.319  0.7268  0.0214 -0.3725
19633TIP3    H180314   0.822   3.441  16.382 -0.5565  0.8904 -2.0328
19633TIP3    H280315   0.961   3.381  16.368  0.3383  1.9964  1.1182
19634TIP3   OH280316   1.799   6.747   3.738  0.1918  0.2788 -0.2157
19634TIP3    H180317   1.804   6.675   3.801  1.0374 -1.7214 -2.3816
19634TIP3    H280318   1.707   6.774   3.738  0.1721  0.3048  1.7753
19635TIP3   OH280319   3.936   0.019  11.137  0.6227  0.6469 -0.1213
19635TIP3    H180320   3.964   0.106  11.164 -2.5258  1.1552  2.1758
19635TIP3    H280321   3.881   0.034  11.059 -0.7402  0.9387  0.8551
19636TIP3   OH280322   6.681   6.306  13.996 -0.4439 -0.2302 -0.1334
19636TIP3    H180323   6.718   6.314  13.908  0.4266 -0.1530  0.2317
19636TIP3    H280324   6.625   6.382  14.005  2.2091  1.7889  0.6690
19637TIP3   OH280325   4.594   2.277   5.529 -0.0221  0.4156  0.0462
19637TIP3    H180326   4.680   2.236   5.528  0.9475  2.1553  2.4575
19637TIP3    H280327   4.600   2.348   5.465  0.3885  0.6402  0.3345
19638TIP3   OH280328   2.390   1.771   0.245  0.2088 -0.0061  0.3672
19638TIP3    H180329   2.305   1.744   0.212 -0.5977  2.8957 -0.2159
19638TIP3    H280330   2.425   1.693   0.288 -2.4448 -1.4646  0.0902
19639TIP3   OH280331   6.502   0.608  14.340 -0.0894  0.2996  0.2925
19639TIP3    H180332   6.577   0.667  14.336  0.3989 -0.3762 -2.1220
19639TIP3    H280333   6.464   0.611  14.252 -1.7810 -0.7994  0.9285
19640TIP3   OH280334   0.323   3.687  10.403  0.0830  0.0256 -0.3625
19640TIP3    H180335   0.231   3.696  10.377  0.9201  0.0883 -3.7555
19640TIP3    H280336   0.334   3.592  10.416 -0.6759  0.1227  1.3505
19641TIP3   OH280337   2.621   6.506  11.391 -0.1035 -0.4596  0.5145
19641TIP3    H180338   2.705   6.475  11.357 -0.4403 -1.1968  0.3299
19641TIP3    H280339   2.564   6.429  11.388 -0.8099  0.0522  0.5667
19642TIP3   OH280340   2.547   5.658  12.443 -0.1893 -0.2829  0.2686
19642TIP3    H180341   2.518   5.567  12.437 -0.7459 -0.1298  0.5480
19642TIP3    H280342   2.611   5.668  12.372 -0.6993 -0.6810 -0.2580
19643TIP3   OH280343   4.328   5.399   2.829 -0.4913 -0.0786 -0.1482
19643TIP3    H180344   4.346   5.312   2.863  0.6951  0.0037 -0.5150
19643TIP3    H280345   4.273   5.384   2.752 -1.1450 -0.4194  0.3754
19644TIP3   OH280346   4.718   1.292   5.884 -0.9038 -0.2585  0.5032
19644TIP3    H180347   4.797   1.239   5.890 -0.3652  0.4070 -0.4412
19644TIP3    H280348   4.663   1.262   5.957  0.1927 -0.7529  1.1474
19645TIP3   OH280349   2.170   6.389   2.624 -0.5378 -0.2221  0.6445
19645TIP3    H180350   2.099   6.335   2.590 -0.1653 -0.5695  0.3986
19645TIP3    H280351   2.192   6.349   2.708 -0.9562  0.1820  0.9512
19646TIP3   OH280352   6.533   2.142  16.891  0.3869  0.4232  0.0424
19646TIP3    H180353   6.582   2.066  16.859  2.3442  1.6936 -0.1292
19646TIP3    H280354   6.442   2.121  16.870  1.0985 -0.8400 -2.1860
19647TIP3   OH280355   3.541   2.634  14.468  0.1857  0.2277  0.0264
19647TIP3    H180356   3.463   2.579  14.466  0.4325 -0.1093 -0.3686
19647TIP3    H280357   3.611   2.576  14.497  0.3186  0.4923  0.2352
19648TIP3   OH280358   5.366   5.419  12.229 -0.0732  0.2096  0.2239
19648TIP3    H180359   5.298   5.353  12.220  2.8873 -3.0357 -0.7276
19648TIP3    H280360   5.379   5.452  12.140  0.7199 -0.4754  0.0756
19649TIP3   OH280361   0.638   1.343  13.232 -0.0181 -0.2360  0.0658
19649TIP3    H180362   0.640   1.388  13.316 -0.7568 -0.0287 -0.0183
19649TIP3    H280363   0.637   1.250  13.255 -1.9561 -0.1771  0.3676
19650TIP3   OH280364   3.859   0.298  13.520  0.0121 -0.3732  0.2316
19650TIP3    H180365   3.920   0.357  13.565  0.4409 -0.7008  0.0755
19650TIP3    H280366   3.876   0.212  13.558  0.3983 -0.6629 -0.5709
19651TIP3   OH280367   1.864   6.579   3.945  0.2348 -0.4857  0.1374
19651TIP3    H180368   1.849   6.627   4.027  0.0094 -0.0184 -0.1698
19651TIP3    H280369   1.949   6.610   3.915  0.3757 -0.7549  0.2641
19652TIP3   OH280370   1.787   6.574  15.787  0.5813 -0.6419 -0.1058
19652TIP3    H180371   1.737   6.502  15.825  0.1861 -0.4819 -0.3218
19652TIP3    H280372   1.875   6.564  15.824  0.4433 -1.0397  0.1193
19653TIP3   OH280373   3.750   6.450   0.931  0.1204  0.0179  0.1109
19653TIP3    H180374   3.763   6.488   0.844  0.4259  1.3056  0.7001
19653TIP3    H280375   3.666   6.487   0.960 -0.0628 -0.5400  0.3106
19654TIP3   OH280376   2.240   3.267   5.829  0.9521 -0.4312  0.0515
19654TIP3    H180377   2.270   3.318   5.754 -0.3253 -1.7502 -1.4153
19654TIP3    H280378   2.152   3.301   5.847  1.1758 -0.2524  0.8701
19655TIP3   OH280379   2.665   0.911  11.951  0.2457  0.1133 -0.5711
19655TIP3    H180380   2.690   1.003  11.950  2.8823 -0.5055  0.2870
19655TIP3    H280381   2.708   0.874  11.875 -1.7145 -0.2681 -1.5599
19656TIP3   OH280382   0.235   5.753   1.764 -0.0339 -0.0838  0.1661
19656TIP3    H180383   0.319   5.746   1.719 -0.2288 -1.4186 -0.0495
19656TIP3    H280384   0.241   5.832   1.817  1.5326 -0.3937  0.4815
19657TIP3   OH280385   0.490   3.390  15.109  0.0698 -0.4299 -0.4204
19657TIP3    H180386   0.453   3.447  15.177 -2.0252 -1.1702 -0.8706
19657TIP3    H280387   0.480   3.441  15.028 -0.7289 -0.9383 -0.6540
19658TIP3   OH280388   3.672   5.133  14.881  0.2113 -0.3047  0.7344
19658TIP3    H180389   3.579   5.139  14.857  0.7027  1.3400 -0.9498
19658TIP3    H280390   3.697   5.045  14.854 -0.4545 -0.1667 -0.3905
19659TIP3   OH280391   2.319   3.659  16.881 -0.0318  0.7498 -0.3801
19659TIP3    H180392   2.367   3.580  16.859 -2.3991 -0.4930 -1.3563
19659TIP3    H280393   2.319   3.710  16.800 -0.7876  0.5057 -0.5337
19660TIP3   OH280394   2.200   2.565  10.316 -0.1412  0.0159 -0.2107
19660TIP3    H180395   2.243   2.509  10.381 -0.4003  0.7247  0.5951
19660TIP3    H280396   2.107   2.549  10.329 -0.1714 -0.5685 -1.0889
19661TIP3   OH280397   5.347   3.890  16.006 -0.1151  0.7197  0.0883
19661TIP3    H180398   5.329   3.933  16.090  0.8907  0.8279  0.2602
19661TIP3    H280399   5.316   3.800  16.019 -0.7967  0.9695  0.2591
19662TIP3   OH280400   5.571   1.638  16.830 -0.2248  0.1064  0.5293
19662TIP3    H180401   5.480   1.607  16.836 -0.9254  1.3653 -2.2840
19662TIP3    H280402   5.618   1.564  16.791  0.2588 -0.9218  2.8942
19663TIP3   OH280403   4.759   4.202  15.784  0.3990 -0.5748 -0.5126
19663TIP3    H180404   4.838   4.231  15.831  0.4871  1.2173 -1.6656
19663TIP3    H280405   4.792   4.151  15.710  0.4607 -0.2602 -0.7042
19664TIP3   OH280406   6.225   2.652  14.965 -0.0936  0.6576 -0.4640
19664TIP3    H180407   6.230   2.557  14.956  1.3283  0.6973 -0.3087
19664TIP3    H280408   6.278   2.672  15.042 -0.7316  1.5468 -0.2322
19665TIP3   OH280409   1.634   5.613  15.535  0.6268  0.2574 -0.0506
19665TIP3    H180410   1.582   5.537  15.560  1.8125 -0.4941  0.2556
19665TIP3    H280411   1.627   5.616  15.440 -1.2171  1.1198  0.0912
19666TIP3   OH280412   5.561   6.095  16.199 -0.7220  0.1952 -0.8600
19666TIP3    H180413   5.506   6.151  16.145 -0.5217  1.0312 -0.2096
19666TIP3    H280414   5.546   6.125  16.288  2.2165  1.7995 -0.7645
19667TIP3   OH280415   6.760   0.539   0.126 -0.2869  0.2451 -0.2915
19667TIP3    H180416   6.841   0.511   0.169 -0.3903  0.1548 -0.1554
19667TIP3    H280417   6.749   0.477   0.054 -1.9015 -1.7292  1.5533
19668TIP3   OH280418   5.157   0.942   1.839  0.5040 -0.0792  0.1307
19668TIP3    H180419   5.153   0.867   1.779  0.8918 -0.5023  0.6234
19668TIP3    H280420   5.075   0.939   1.887 -0.9139  1.6619 -1.9896
19669TIP3   OH280421   0.493   2.545  10.700  0.0482  0.0418  0.2259
19669TIP3    H180422   0.551   2.607  10.743 -0.5386  0.1252  0.9219
19669TIP3    H280423   0.519   2.460  10.735 -1.3255  0.2377  1.8508
19670TIP3   OH280424   4.970   6.599   4.874  0.7700  0.0967  0.2722
19670TIP3    H180425   4.951   6.588   4.967  1.1105  0.5078  0.3963
19670TIP3    H280426   4.896   6.649   4.839  0.4556 -0.3904  0.2392
19671TIP3   OH280427   0.356   5.344   3.962  0.1676 -0.1903 -0.5547
19671TIP3    H180428   0.338   5.437   3.976 -2.6929 -0.4043 -2.0023
19671TIP3    H280429   0.369   5.336   3.867 -1.8514 -1.4742 -0.7968
19672TIP3   OH280430   6.563   1.692  13.722 -0.4790 -0.3619 -0.3341
19672TIP3    H180431   6.563   1.713  13.815  0.0171 -0.6735 -0.2654
19672TIP3    H280432   6.507   1.760  13.683  0.4611  0.6373 -0.0106
19673TIP3   OH280433   3.385   2.540   4.479  0.7116  0.1772  0.1358
19673TIP3    H180434   3.333   2.613   4.512  1.4793  0.0334  1.7737
19673TIP3    H280435   3.473   2.556   4.513  0.7870 -1.7696  1.0186
19674TIP3   OH280436   2.329   4.695  11.919 -0.0841 -0.2807  0.4987
19674TIP3    H180437   2.377   4.613  11.929 -1.1571 -1.2139 -1.5093
19674TIP3    H280438   2.349   4.724  11.830 -2.7840 -0.4499 -0.2513
19675TIP3   OH280439   4.368   3.828   0.689  0.0256  0.1601  0.4882
19675TIP3    H180440   4.318   3.838   0.608  1.4341 -0.2986 -0.4901
19675TIP3    H280441   4.317   3.767   0.741  0.8470 -2.6663 -1.7109
19676TIP3   OH280442   5.729   3.232   0.110  0.1040 -0.0676 -0.6396
19676TIP3    H180443   5.661   3.165   0.103  1.3800 -1.9992  2.9338
19676TIP3    H280444   5.705   3.282   0.188  1.9060  0.2200 -0.2326
19677TIP3   OH280445   1.697   1.539  10.407 -0.2810 -0.3105  0.2912
19677TIP3    H180446   1.632   1.470  10.419 -0.7344 -0.0271 -0.4513
19677TIP3    H280447   1.649   1.609  10.362  0.6720 -0.3108 -0.7605
19678TIP3   OH280448   6.423   4.922   0.289  0.0126  0.0113 -0.1592
19678TIP3    H180449   6.385   4.945   0.374  0.6133  1.6136 -0.3020
19678TIP3    H280450   6.510   4.887   0.311  0.0708  0.1950 -0.0914
19679TIP3   OH280451   5.519   4.831   4.065  0.1775 -0.5908  0.0749
19679TIP3    H180452   5.508   4.736   4.068 -1.4064 -0.4600 -0.4376
19679TIP3    H280453   5.573   4.846   3.987  0.0633 -1.0504 -0.0967
19680TIP3   OH280454   0.134   4.329  14.675 -0.3391  0.4657  0.0519
19680TIP3    H180455   0.127   4.257  14.739  2.2788  0.4378  0.4324
19680TIP3    H280456   0.191   4.294  14.606  1.9852  2.4478  0.8096
19681TIP3   OH280457   1.666   0.938  15.244  1.0136 -0.6614 -0.1020
19681TIP3    H180458   1.607   0.907  15.313  1.4837  1.7015  1.4866
19681TIP3    H280459   1.620   1.013  15.205  1.4591 -0.9817 -1.3092
19682TIP3   OH280460   5.716   4.327   5.486  0.2957  0.0763 -0.3242
19682TIP3    H180461   5.630   4.357   5.457  0.8984  2.0088 -0.2524
19682TIP3    H280462   5.733   4.376   5.567  1.1294 -0.8762  0.1052
19683TIP3   OH280463   6.317   4.124   4.285  0.3217  0.0725 -0.1266
19683TIP3    H180464   6.267   4.076   4.350 -1.6258  1.2384 -0.6728
19683TIP3    H280465   6.356   4.197   4.334 -0.9288  0.8026 -0.1993
19684TIP3   OH280466   0.392   1.036  15.841  0.4081  0.1465 -0.4868
19684TIP3    H180467   0.420   0.946  15.828  0.0333 -0.2760  1.2725
19684TIP3    H280468   0.297   1.030  15.853  0.3563  0.7866 -0.5526
19685TIP3   OH280469   1.528   3.817  14.510  0.4264 -0.0866  0.1785
19685TIP3    H180470   1.472   3.883  14.550 -0.3467  0.4199 -1.6455
19685TIP3    H280471   1.571   3.863  14.437  2.8456 -0.6013  1.1659
19686TIP3   OH280472   4.549   5.455   6.028 -0.1424 -0.2163  0.2510
19686TIP3    H180473   4.598   5.520   6.078 -0.6798 -0.8732  1.6921
19686TIP3    H280474   4.613   5.421   5.965  0.3469  1.1558 -0.0437
19687TIP3   OH280475   1.933   3.328   4.579  0.0010  0.2891  0.4047
19687TIP3    H180476   1.915   3.395   4.644  0.4209  1.0497 -0.2547
19687TIP3    H280477   1.866   3.340   4.512  2.2655  2.5921 -1.6425
19688TIP3   OH280478   3.615   6.457   0.082 -0.6334 -0.0948  1.0924
19688TIP3    H180479   3.526   6.435   0.054 -0.8355 -0.5083  2.0141
19688TIP3    H280480   3.671   6.398   0.031 -0.8230  0.5818  0.0603
19689TIP3   OH280481   5.455   2.094  14.459  0.4348 -0.1722 -0.0701
19689TIP3    H180482   5.541   2.128  14.434 -0.6072  1.5175 -1.5842
19689TIP3    H280483   5.430   2.144  14.537  1.9080 -2.5728  2.0957
19690TIP3   OH280484   5.026   6.603   0.479 -0.3626  0.0815 -0.5726
19690TIP3    H180485   5.121   6.608   0.487 -0.3523 -1.1879  0.5200
19690TIP3    H280486   5.000   6.690   0.448  0.9768  1.1979  1.1725
19691TIP3   OH280487   0.186   0.012   5.006  0.0743 -0.2516 -0.2626
19691TIP3    H180488   0.101  -0.030   5.012 -0.3550  0.6830  0.5967
19691TIP3    H280489   0.222  -0.017   4.922  0.2466 -3.0788  0.6903
19692TIP3   OH280490   5.207   4.184  14.610 -0.4428  0.4659  0.2772
19692TIP3    H180491   5.183   4.195  14.518  1.6122 -0.5493 -0.4634
19692TIP3    H280492   5.208   4.089  14.624 -2.0245  0.6153  1.7770
19693TIP3   OH280493   2.791   2.287   4.198  0.3045  0.0662  0.2787
19693TIP3    H180494   2.820   2.285   4.107  2.0558  0.8542  0.7704
19693TIP3    H280495   2.830   2.367   4.233 -0.5803 -0.0817  1.6516
19694TIP3   OH280496   5.952   4.043   1.206 -0.4738 -0.3713  0.4248
19694TIP3    H180497   5.887   3.990   1.160  0.2240 -0.6459 -0.2632
19694TIP3    H280498   5.900   4.102   1.261 -1.2736 -1.4802  0.9042
19695TIP3   OH280499   0.485   2.144  14.310  0.3736 -0.1253  0.5060
19695TIP3    H180500   0.447   2.171  14.394  0.4572 -2.1273  1.2383
19695TIP3    H280501   0.579   2.156  14.321  0.2975  0.6872  0.2842
19696TIP3   OH280502   5.032   2.384  14.997 -1.0251 -0.1266 -0.7499
19696TIP3    H180503   5.036   2.449  15.068 -1.9660 -1.0609  0.1929
19696TIP3    H280504   5.119   2.386  14.958 -0.4223  0.3016  0.5562
19697TIP3   OH280505   1.544   2.072   3.211  0.7700 -0.2553 -0.0477
19697TIP3    H180506   1.449   2.061   3.212  0.8648 -1.4821 -1.3782
19697TIP3    H280507   1.563   2.119   3.292 -1.0620  0.9228 -0.2347
19698TIP3   OH280508   4.390   3.393  13.253 -0.1065  0.0765  0.4509
19698TIP3    H180509   4.409   3.360  13.166 -1.7631  1.1487 -0.3743
19698TIP3    H280510   4.476   3.412  13.291  0.6278  0.5805 -1.3426
19699TIP3   OH280511   2.623   5.285   1.476 -0.4339 -0.2564 -0.4964
19699TIP3    H180512   2.547   5.251   1.523  0.6197 -2.1877 -0.0732
19699TIP3    H280513   2.632   5.227   1.400  0.2623  0.2928 -0.8468
19700TIP3   OH280514   4.390   1.862   5.715  0.0641  0.3367 -0.5724
19700TIP3    H180515   4.326   1.843   5.784  1.2787 -0.3097  0.4208
19700TIP3    H280516   4.435   1.940   5.745 -2.1879  2.6561 -2.7200
19701TIP3   OH280517   1.037   6.273  14.562 -0.3991 -0.2406  0.4273
19701TIP3    H180518   0.959   6.268  14.617 -1.3743 -1.2671 -0.9440
19701TIP3    H280519   1.009   6.236  14.478  1.7945 -1.4595  0.1502
19702TIP3   OH280520   0.738   1.701  12.897 -0.0516  0.0254 -0.5723
19702TIP3    H180521   0.670   1.710  12.963  0.7261 -0.1238  0.2739
19702TIP3    H280522   0.763   1.609  12.900  0.2557  0.0976 -0.8068
19703TIP3   OH280523   1.428   3.149  10.757 -0.2117 -0.1649  0.2704
19703TIP3    H180524   1.417   3.120  10.667 -1.4432  2.5077 -0.5400
19703TIP3    H280525   1.406   3.072  10.810 -0.3195 -1.5404 -1.6786
19704TIP3   OH280526   1.958   3.506  13.387  0.7595 -0.3192 -0.0334
19704TIP3    H180527   2.015   3.505  13.464  0.3797 -2.0373  0.2636
19704TIP3    H280528   2.017   3.500  13.312  1.1129  1.0604  0.1049
19705TIP3   OH280529   4.884   3.903  17.024 -0.0344  0.8760 -0.7647
19705TIP3    H180530   4.803   3.930  16.981  0.2746  0.7563 -1.4363
19705TIP3    H280531   4.864   3.904  17.118 -0.9556  0.3598 -0.9534
19706TIP3   OH280532   4.336   1.657  14.813 -0.1455  0.0167 -0.1860
19706TIP3    H180533   4.381   1.575  14.790 -1.3263 -0.7529  0.1687
19706TIP3    H280534   4.374   1.722  14.753 -0.3114 -1.1148 -1.5798
19707TIP3   OH280535   0.069   2.440   1.738 -0.0272 -0.2561  0.3012
19707TIP3    H180536   0.147   2.496   1.746  0.2517 -0.8521  2.2905
19707TIP3    H280537  -0.004   2.501   1.731  0.3655  0.3798  1.4270
19708TIP3   OH280538   2.630   5.991  12.275 -0.4738  0.2121 -0.3593
19708TIP3    H180539   2.556   5.985  12.215 -1.3069  0.1661  0.6555
19708TIP3    H280540   2.688   6.057  12.235 -2.6472  2.7788  0.4469
19709TIP3   OH280541   3.652   1.312   1.631 -0.1157 -0.1587 -0.0037
19709TIP3    H180542   3.706   1.334   1.555  1.0804 -0.8829  0.5976
19709TIP3    H280543   3.696   1.236   1.670 -0.3164  0.5927  1.7792
19710TIP3   OH280544   5.838   6.420  13.015 -0.1419  0.3191  0.0416
19710TIP3    H180545   5.794   6.389  12.936  1.0542 -1.3490 -0.0277
19710TIP3    H280546   5.849   6.342  13.068  1.3559  0.9449  0.7136
19711TIP3   OH280547   1.806   6.153  14.067  0.4073  0.1452  0.4027
19711TIP3    H180548   1.712   6.152  14.047  0.6961 -0.7458 -1.0953
19711TIP3    H280549   1.814   6.211  14.142 -1.1015  1.9574 -0.7462
19712TIP3   OH280550   4.276   5.001  14.053  0.1864  0.0815 -0.2442
19712TIP3    H180551   4.322   4.933  14.003 -0.2699  1.8233 -3.3160
19712TIP3    H280552   4.344   5.042  14.106  1.0884 -0.7188 -0.7409
19713TIP3   OH280553   2.341   1.964  12.942  0.0411  0.9585 -0.2110
19713TIP3    H180554   2.267   1.957  12.882 -1.4150  0.7777  1.5024
19713TIP3    H280555   2.365   2.057  12.940  0.3417  0.8677 -1.4030
19714TIP3   OH280556   4.206   2.482  16.700 -0.1239 -0.1008  0.3496
19714TIP3    H180557   4.289   2.530  16.693  0.7217 -1.2849  1.6004
19714TIP3    H280558   4.177   2.498  16.790 -0.2232 -1.2566  0.5422
19715TIP3   OH280559   6.525   3.148  14.070  0.0887  0.3192 -0.1679
19715TIP3    H180560   6.607   3.197  14.073  0.6197 -0.5438 -0.2263
19715TIP3    H280561   6.550   3.061  14.041 -0.7393 -0.1930  0.5999
19716TIP3   OH280562   6.085   5.272   2.576  0.3490  0.8768  0.2967
19716TIP3    H180563   6.115   5.281   2.666 -0.1313  2.4514  0.3313
19716TIP3    H280564   6.037   5.353   2.558 -0.9286 -0.0850 -0.8724
19717TIP3   OH280565   6.104   4.463   0.821 -0.6842  0.1367 -0.4701
19717TIP3    H180566   6.092   4.382   0.871 -0.3331  1.1884  1.4006
19717TIP3    H280567   6.015   4.494   0.805 -0.8074 -0.3407 -0.7449
19718TIP3   OH280568   6.598   4.975  13.618  0.1612  0.0957  0.6088
19718TIP3    H180569   6.563   5.060  13.591  0.8248 -0.0195 -0.6742
19718TIP3    H280570   6.530   4.937  13.673 -0.7969  0.8018 -0.0707
19719TIP3   OH280571   5.379   5.125   2.586 -0.2092  0.1019 -0.0747
19719TIP3    H180572   5.333   5.043   2.607  0.2412  0.0167  0.6026
19719TIP3    H280573   5.462   5.118   2.631  0.1632  0.5983 -0.6659
19720TIP3   OH280574   2.135   2.622   4.756  0.5854 -0.7244  0.5352
19720TIP3    H180575   2.138   2.575   4.839 -0.8867 -0.5901  0.6875
19720TIP3    H280576   2.185   2.702   4.772 -1.8930  0.6368  2.2165
19721TIP3   OH280577   4.720   0.974   4.354 -0.5369 -0.2094  0.6866
19721TIP3    H180578   4.800   0.946   4.310 -0.8141 -1.2191  0.7887
19721TIP3    H280579   4.694   0.899   4.407 -1.3113  0.2597  0.9957
19722TIP3   OH280580   1.677   3.035  16.020 -0.0489 -0.0340  0.1816
19722TIP3    H180581   1.669   3.101  16.089 -1.8375 -0.8539  0.8185
19722TIP3    H280582   1.660   3.083  15.939 -0.5071  0.4571  0.5621
19723TIP3   OH280583   1.677   2.232   5.477 -0.0328 -0.7681  0.5052
19723TIP3    H180584   1.763   2.250   5.515  0.6493 -1.7233 -0.5198
19723TIP3    H280585   1.615   2.275   5.536  1.2756  2.3823 -0.2246
19724TIP3   OH280586   4.394   1.064  11.486  0.7103 -0.1821  0.0790
19724TIP3    H180587   4.479   1.037  11.452 -0.1449 -2.8889 -0.1094
19724TIP3    H280588   4.343   1.086  11.407  0.5513 -0.7399  0.0232
19725TIP3   OH280589   5.669   2.955  11.364 -0.3302 -0.1529 -0.1624
19725TIP3    H180590   5.680   2.875  11.313 -1.5640  0.6920 -1.8806
19725TIP3    H280591   5.581   2.948  11.402 -0.0755 -0.0261  0.4614
19726TIP3   OH280592   0.405   6.252  16.750  0.0553 -0.4301 -0.3513
19726TIP3    H180593   0.426   6.168  16.791 -0.0280 -0.2086  0.1407
19726TIP3    H280594   0.324   6.235  16.702 -0.0253 -0.5951 -0.1561
19727TIP3   OH280595   1.134   6.656  12.648  0.1279 -0.5608  0.3399
19727TIP3    H180596   1.172   6.722  12.706  0.3118 -0.7952  0.4888
19727TIP3    H280597   1.117   6.703  12.567  0.2375 -0.3256  0.4506
19728TIP3   OH280598   4.540   1.801  12.803 -0.4658  0.2638  0.4099
19728TIP3    H180599   4.551   1.874  12.864  2.7691  0.3299 -0.1162
19728TIP3    H280600   4.532   1.724  12.859 -0.6258  0.6558  0.9330
19729TIP3   OH280601   2.429   5.146   3.822 -0.5864  0.0674  0.2581
19729TIP3    H180602   2.447   5.185   3.908 -1.3840 -0.3430  0.6278
19729TIP3    H280603   2.462   5.210   3.759 -1.2631  1.0349  0.8568
19730TIP3   OH280604   3.334   0.011   6.691 -0.1802  0.2354  0.4294
19730TIP3    H180605   3.346  -0.068   6.638 -1.2917  0.4545 -0.1695
19730TIP3    H280606   3.377   0.080   6.641 -1.7190  0.5541 -0.5119
19731TIP3   OH280607   5.807   3.204   4.481 -0.5013 -0.2296  0.4543
19731TIP3    H180608   5.767   3.182   4.566 -2.8143  0.6010 -0.3437
19731TIP3    H280609   5.798   3.299   4.475  1.1275 -0.0770 -0.0669
19732TIP3   OH280610   6.465   6.197   5.346  0.1000  0.1078  0.1595
19732TIP3    H180611   6.539   6.142   5.321  1.2308  1.3692  0.6261
19732TIP3    H280612   6.484   6.225   5.435 -1.0987  0.2137  0.4016
19733TIP3   OH280613   0.824   3.512   0.437  0.2206  0.3022 -0.2505
19733TIP3    H180614   0.809   3.419   0.448 -0.3336  0.6388  3.1563
19733TIP3    H280615   0.739   3.548   0.411 -0.2517  0.1035  0.9518
19734TIP3   OH280616   6.255   0.117  16.299 -0.2975 -0.3348  0.1822
19734TIP3    H180617   6.218   0.042  16.253 -1.3723  0.6719 -0.6700
19734TIP3    H280618   6.268   0.183  16.230  2.8088 -0.4876  0.4911
19735TIP3   OH280619   0.169   2.230   2.999 -0.6888 -0.1104 -0.2108
19735TIP3    H180620   0.113   2.284   3.055 -2.1280 -1.9203  0.1805
19735TIP3    H280621   0.116   2.153   2.979  1.3185 -1.4479 -0.6621
19736TIP3   OH280622   2.972   5.800   3.275 -0.2522  0.4489  0.8087
19736TIP3    H180623   3.031   5.724   3.269  0.8803  1.3336  0.2058
19736TIP3    H280624   3.031   5.875   3.287 -1.2523  1.3684  0.1749
19737TIP3   OH280625   5.723   3.799  10.225  0.8953  0.2280 -0.0663
19737TIP3    H180626   5.719   3.849  10.306  1.1634  1.7938 -0.9939
19737TIP3    H280627   5.635   3.761  10.216  0.5215  0.9558  0.3900
19738TIP3   OH280628   5.376   1.358   3.154 -0.5694  0.3029 -0.5716
19738TIP3    H180629   5.288   1.358   3.118 -0.1950  1.9776 -1.6412
19738TIP3    H280630   5.410   1.446   3.134  0.9751  0.0428  0.6959
19739TIP3   OH280631   4.199   1.509  16.925 -0.1374  0.5605  0.3050
19739TIP3    H180632   4.155   1.506  17.010  1.1183 -0.7422  0.9301
19739TIP3    H280633   4.162   1.587  16.883 -1.8040  0.4587  1.4592
19740TIP3   OH280634   0.415   5.838  13.788 -0.1599 -1.0077 -0.0145
19740TIP3    H180635   0.405   5.765  13.727 -0.3255  0.3984 -1.7441
19740TIP3    H280636   0.328   5.877  13.794 -0.1058 -1.0090  1.0214
19741TIP3   OH280637   2.398   0.076   2.109 -0.1374  0.5620  0.0301
19741TIP3    H180638   2.400   0.027   2.191 -1.0263 -1.3775 -1.0384
19741TIP3    H280639   2.435   0.161   2.131  2.4546 -0.8831  1.7605
19742TIP3   OH280640   0.163   4.369  17.193 -0.1120 -0.1280  0.5418
19742TIP3    H180641   0.157   4.460  17.162 -1.8567 -1.0750 -2.3617
19742TIP3    H280642   0.244   4.336  17.154  0.1654 -0.0129  1.0176
19743TIP3   OH280643   3.072   1.070  13.311 -0.1975  0.2491 -0.1521
19743TIP3    H180644   3.008   1.085  13.242  1.2325  0.8774 -1.3815
19743TIP3    H280645   3.089   1.156  13.349  2.3219  0.7230 -2.0837
19744TIP3   OH280646   4.220   1.517  11.440 -0.1914 -0.2975  0.8304
19744TIP3    H180647   4.211   1.424  11.464 -0.0777 -0.0962  1.7000
19744TIP3    H280648   4.305   1.542  11.475  0.5998 -0.3202 -1.0021
19745TIP3   OH280649   2.548   6.759   5.271  0.0284  0.1073 -0.2178
19745TIP3    H180650   2.498   6.697   5.324  0.6072  0.3410  0.6267
19745TIP3    H280651   2.617   6.791   5.330 -1.1599  2.7179 -0.0894
19746TIP3   OH280652   2.481   0.708  16.323 -0.4905  0.6422 -0.9781
19746TIP3    H180653   2.569   0.713  16.286  0.0646  1.3910  0.4001
19746TIP3    H280654   2.441   0.633  16.279  1.6345 -1.1862  0.0428
19747TIP3   OH280655   4.856   3.020  10.815 -0.7227 -0.6749  0.6901
19747TIP3    H180656   4.809   2.943  10.784  0.3154 -0.8309 -0.5549
19747TIP3    H280657   4.794   3.063  10.875 -2.1325 -1.3153 -0.2502
19748TIP3   OH280658   1.740   2.380  15.733  0.2612  0.4976  0.3101
19748TIP3    H180659   1.668   2.384  15.671 -0.0828 -0.9695  0.5845
19748TIP3    H280660   1.817   2.408  15.683 -0.0075 -0.6283 -0.7857
19749TIP3   OH280661   3.727   0.178  13.946 -0.2794  0.6030  0.0813
19749TIP3    H180662   3.687   0.257  13.983 -0.8467  0.1076  0.5448
19749TIP3    H280663   3.774   0.209  13.869 -2.9432  0.9966 -1.5076
19750TIP3   OH280664   1.311   2.721   1.906  0.3192  0.1978 -0.1158
19750TIP3    H180665   1.402   2.748   1.897  0.5994 -0.2333  1.2521
19750TIP3    H280666   1.290   2.736   1.998 -1.0712  0.5198 -0.4597
19751TIP3   OH280667   2.792   1.703  12.002 -0.5050 -0.8334 -0.5941
19751TIP3    H180668   2.887   1.707  11.995 -0.6553  1.9063 -2.5233
19751TIP3    H280669   2.760   1.770  11.941 -3.5618  0.6692  2.3120
19752TIP3   OH280670   2.112   3.116  11.906 -0.6756 -0.1844  0.0441
19752TIP3    H180671   2.031   3.067  11.913 -1.8993  1.6083 -0.7040
19752TIP3    H280672   2.148   3.091  11.821 -1.5805  0.5644 -0.5840
19753TIP3   OH280673   0.601   1.695   4.485  0.1012  0.2892 -0.1988
19753TIP3    H180674   0.691   1.664   4.488  0.1887  0.3562 -1.4020
19753TIP3    H280675   0.548   1.616   4.494  0.2892  0.2083  0.1751
19754TIP3   OH280676   0.013   2.854  15.866  0.3871  0.5476 -0.2320
19754TIP3    H180677   0.105   2.830  15.880  0.1521  0.3298  1.1025
19754TIP3    H280678   0.017   2.931  15.809  1.5367  1.9813  1.6654
19755TIP3   OH280679   1.555   3.869  16.673  0.4785  0.9695 -0.0092
19755TIP3    H180680   1.479   3.926  16.678 -1.2618 -1.1396 -0.8642
19755TIP3    H280681   1.581   3.855  16.764 -0.8193  0.8763  0.3606
19756TIP3   OH280682   5.557   3.957  15.008  0.2517  0.4466  0.5395
19756TIP3    H180683   5.541   3.936  15.100 -1.8718  1.0556  0.3799
19756TIP3    H280684   5.479   4.007  14.982  1.3200  1.2352 -1.2947
19757TIP3   OH280685   4.870   2.736  15.778  0.7013  0.2886  0.6097
19757TIP3    H180686   4.940   2.711  15.719  0.0498 -0.1155 -0.0091
19757TIP3    H280687   4.791   2.737  15.723 -0.0528 -0.8619  1.6314
19758TIP3   OH280688   2.779   2.573  14.080  0.6219 -0.1001  0.1095
19758TIP3    H180689   2.747   2.499  14.027 -1.0513 -0.1820  1.1450
19758TIP3    H280690   2.873   2.559  14.086  0.5833 -1.1743 -1.1837
19759TIP3   OH280691   1.007   2.963   4.175  0.5424  0.3897  0.0262
19759TIP3    H180692   1.092   2.922   4.160 -0.0035 -2.6294  3.7706
19759TIP3    H280693   0.944   2.902   4.137 -0.0842  0.6880  0.5637
19760TIP3   OH280694   0.923   1.563   5.261  0.1498 -0.5553  0.2336
19760TIP3    H180695   0.960   1.541   5.346  1.1293 -0.3779 -0.1351
19760TIP3    H280696   0.899   1.479   5.223  1.0617 -0.7660  0.0933
19761TIP3   OH280697   1.229   1.828  15.807 -0.4917  0.9186  0.0695
19761TIP3    H180698   1.134   1.817  15.803 -0.4229  0.1066  0.3844
19761TIP3    H280699   1.253   1.793  15.893  0.1322  0.7589 -0.1660
19762TIP3   OH280700   5.737   5.247   2.239  0.4427 -0.6566  0.3702
19762TIP3    H180701   5.759   5.222   2.329  0.2104 -0.3592  0.5122
19762TIP3    H280702   5.716   5.164   2.195 -1.6629 -0.6154  1.1957
19763TIP3   OH280703   3.281   6.009  16.780  0.3724 -0.2179 -0.3068
19763TIP3    H180704   3.333   5.928  16.781 -0.3348 -0.7231  1.6963
19763TIP3    H280705   3.340   6.075  16.817 -0.2032 -0.7126  1.6268
19764TIP3   OH280706   4.574   1.093  12.084  0.3515  0.3470  0.0851
19764TIP3    H180707   4.629   1.138  12.147  1.9329 -1.6903  0.2784
19764TIP3    H280708   4.631   1.076  12.009 -0.3725 -0.6557 -0.2687
19765TIP3   OH280709   0.121   3.369   4.170 -0.4834 -0.6602  0.6232
19765TIP3    H180710   0.062   3.355   4.096 -0.9337  1.7164  0.4612
19765TIP3    H280711   0.186   3.300   4.162  1.2022  1.1088 -3.7525
19766TIP3   OH280712   2.991   4.323  15.230  0.0918 -0.8118  0.0317
19766TIP3    H180713   3.048   4.272  15.172 -0.1219 -0.1540 -0.7625
19766TIP3    H280714   3.049   4.388  15.269 -0.3231  0.8004 -1.8672
19767TIP3   OH280715   0.500   0.490  16.899 -0.2783 -0.0585 -0.1348
19767TIP3    H180716   0.490   0.564  16.958  0.2148  0.0785 -0.2131
19767TIP3    H280717   0.540   0.528  16.820  1.5597 -0.6536  0.4451
19768TIP3   OH280718   6.468   1.740   1.898  0.0522 -0.3421  0.2125
19768TIP3    H180719   6.409   1.804   1.858 -0.5493 -1.4677 -0.7787
19768TIP3    H280720   6.442   1.737   1.990 -0.1040  0.6081  0.2101
19769TIP3   OH280721   6.462   4.616   0.532 -0.0461 -0.1370 -0.3462
19769TIP3    H180722   6.441   4.538   0.480 -0.2525 -0.0032 -0.4661
19769TIP3    H280723   6.459   4.585   0.623  1.0673 -0.5501 -0.4372
19770TIP3   OH280724   2.478   3.263   4.429 -0.3585  0.2795 -0.1452
19770TIP3    H180725   2.411   3.320   4.466 -0.7927 -1.5640  2.0495
19770TIP3    H280726   2.552   3.322   4.413 -1.0651  1.6227  1.2602
19771TIP3   OH280727   2.642   5.515   2.554  0.0204 -0.0452  0.6513
19771TIP3    H180728   2.617   5.447   2.616 -0.2091  1.2427  2.0354
19771TIP3    H280729   2.685   5.468   2.482  0.9947 -1.5199  2.1295
19772TIP3   OH280730   0.269   5.304   4.920 -0.4672  0.2053  0.5346
19772TIP3    H180731   0.325   5.240   4.964 -0.5187 -0.8635 -0.8971
19772TIP3    H280732   0.216   5.252   4.860 -0.7929  1.5567 -0.3866
19773TIP3   OH280733   2.283   3.975   1.769  0.3115  0.4538  0.5822
19773TIP3    H180734   2.275   3.897   1.714 -0.1131  0.2206  0.9690
19773TIP3    H280735   2.368   4.012   1.746 -0.1467  0.7468 -0.7473
19774TIP3   OH280736   5.049   2.682   1.968  0.2087 -0.5277  0.4236
19774TIP3    H180737   5.016   2.594   1.949 -1.5873  0.1345  0.3156
19774TIP3    H280738   5.057   2.724   1.882 -1.5082  0.2504  0.5877
19775TIP3   OH280739   1.206   0.915  15.359 -0.0993 -0.3166 -0.3293
19775TIP3    H180740   1.174   0.999  15.393  2.1063  0.9937 -1.2728
19775TIP3    H280741   1.200   0.924  15.264  3.6772  0.4322 -0.6582
19776TIP3   OH280742   5.253   3.468  11.080 -0.2618  0.2954  0.5296
19776TIP3    H180743   5.325   3.404  11.078 -0.8970 -0.4458  1.0642
19776TIP3    H280744   5.186   3.430  11.023  0.1947  1.5242 -0.8869
19777TIP3   OH280745   5.941   3.073   1.544 -0.3525  0.0395 -0.5519
19777TIP3    H180746   5.977   3.161   1.534  0.3403 -0.3475 -1.6766
19777TIP3    H280747   5.931   3.062   1.639  1.2746  0.6754 -0.2681
19778TIP3   OH280748   2.299   2.370   4.543 -0.5355 -0.2697 -0.0614
19778TIP3    H180749   2.324   2.442   4.485  0.0785 -0.1245  0.3642
19778TIP3    H280750   2.223   2.403   4.591 -1.2321 -0.5010 -0.9769
19779TIP3   OH280751   5.837   1.297  16.190  0.5148 -0.4169  0.2072
19779TIP3    H180752   5.925   1.293  16.151 -0.5921  0.9952 -2.7212
19779TIP3    H280753   5.797   1.214  16.165  0.5403 -0.4509  0.2793
19780TIP3   OH280754   5.611   6.391  11.120  0.1276  0.0825 -0.7903
19780TIP3    H180755   5.523   6.429  11.111 -0.9525 -2.2741 -1.0462
19780TIP3    H280756   5.651   6.404  11.034 -1.3245 -1.8012 -1.8377
19781TIP3   OH280757   5.066   4.921   2.837  0.0384 -0.1559  0.1358
19781TIP3    H180758   5.125   4.896   2.766 -2.3314 -1.0767 -1.6304
19781TIP3    H280759   5.088   5.013   2.855  0.6328  0.1472 -1.8916
19782TIP3   OH280760   3.937   6.454  13.418 -0.0677 -0.1176 -0.1726
19782TIP3    H180761   4.004   6.401  13.462  0.9176  0.9829 -0.2929
19782TIP3    H280762   3.887   6.493  13.490 -0.8508 -1.2262 -0.0828
19783TIP3   OH280763   2.515   6.466   3.841  0.2008 -0.4663  0.0086
19783TIP3    H180764   2.467   6.407   3.783  0.1411 -0.5463  0.1392
19783TIP3    H280765   2.502   6.553   3.804  0.6834 -0.5837 -0.4667
19784TIP3   OH280766   0.131   0.710   1.782 -0.4634  0.1364 -0.1962
19784TIP3    H180767   0.111   0.803   1.764 -0.3368  0.4183  1.0548
19784TIP3    H280768   0.072   0.687   1.853  0.8945 -0.1599  0.8661
19785TIP3   OH280769   3.335   2.814  12.627  0.5143 -0.2534  0.1484
19785TIP3    H180770   3.241   2.798  12.636  0.2142  1.0444 -0.5142
19785TIP3    H280771   3.376   2.745  12.680 -0.7656 -1.5564 -0.4900
19786TIP3   OH280772   0.516   2.799  15.129  0.8943  0.2498  0.2345
19786TIP3    H180773   0.586   2.837  15.077  1.7856  1.8532  2.4882
19786TIP3    H280774   0.539   2.818  15.220 -1.4645 -0.9090  1.1758
19787TIP3   OH280775   2.434   5.235  15.491 -0.4931  0.2632 -0.2546
19787TIP3    H180776   2.470   5.268  15.409 -1.0771  0.1608 -0.5550
19787TIP3    H280777   2.346   5.272  15.495 -0.5207  0.1495  0.2562
19788TIP3   OH280778   1.667   0.920  15.608  0.6172  0.4676  0.1760
19788TIP3    H180779   1.600   0.974  15.566 -0.3165 -0.2102  0.7419
19788TIP3    H280780   1.643   0.830  15.584  1.9724  0.2739 -0.5118
19789TIP3   OH280781   5.612   5.641   0.135 -0.0450 -0.1169 -0.4942
19789TIP3    H180782   5.561   5.713   0.097  0.3913  0.1368 -0.6076
19789TIP3    H280783   5.600   5.652   0.230  0.9276  0.7999 -0.4565
19790TIP3   OH280784   5.758   0.783   3.446  0.3851 -0.4344  0.3635
19790TIP3    H180785   5.714   0.837   3.381 -0.5234 -1.8109 -0.2102
19790TIP3    H280786   5.728   0.816   3.531  0.0803  0.1411  0.0325
19791TIP3   OH280787   0.917   4.579   3.445  0.3695  0.5146 -0.8368
19791TIP3    H180788   0.922   4.550   3.536  0.4935  1.3688 -0.5657
19791TIP3    H280789   0.953   4.506   3.395 -0.6779 -0.4077 -0.2991
19792TIP3   OH280790   5.940   2.525  14.878  0.2677 -0.0157 -0.4984
19792TIP3    H180791   6.032   2.528  14.903  0.7851  0.2144 -2.3160
19792TIP3    H280792   5.893   2.560  14.954  1.5186 -1.6123  1.0618
19793TIP3   OH280793   0.145   2.959   4.033  0.0064 -0.1956 -0.0770
19793TIP3    H180794   0.088   2.960   4.110  1.9471  1.1861  1.4631
19793TIP3    H280795   0.093   2.997   3.963 -0.9542  1.0707  1.2711
19794TIP3   OH280796   4.471   3.056  14.013 -0.0155 -0.3683 -0.3127
19794TIP3    H180797   4.495   3.074  14.104 -1.9566  0.8290 -0.0051
19794TIP3    H280798   4.440   2.965  14.015 -0.6690 -0.1411  0.3620
19795TIP3   OH280799   3.764   5.711  16.220  0.0972  0.0677  0.0601
19795TIP3    H180800   3.843   5.674  16.182 -0.0500  0.2110 -0.4012
19795TIP3    H280801   3.795   5.785  16.272  0.1652  0.9635 -1.2031
19796TIP3   OH280802   3.064   5.543   1.203 -0.2855 -0.0782  0.3766
19796TIP3    H180803   3.076   5.455   1.237 -0.0028 -0.5650 -0.9496
19796TIP3    H280804   3.148   5.586   1.219 -0.0299 -0.4200 -0.0220
19797TIP3   OH280805   5.084   1.688  11.162  0.0012 -0.2132 -0.2857
19797TIP3    H180806   5.151   1.692  11.230  0.2492 -0.0944 -0.5320
19797TIP3    H280807   5.134   1.691  11.080 -0.1135 -2.7028 -0.5237
19798TIP3   OH280808   1.363   2.107  14.848  0.5885  0.1231 -0.1072
19798TIP3    H180809   1.316   2.095  14.931  2.0069 -1.4649  0.5308
19798TIP3    H280810   1.427   2.175  14.866 -0.5143  1.3079 -0.5671
19799TIP3   OH280811   1.263   0.981  16.526  0.4413 -0.6026 -0.1319
19799TIP3    H180812   1.269   0.927  16.446  0.5395 -0.3556 -0.2912
19799TIP3    H280813   1.229   1.065  16.496  0.5740 -0.4757  0.0725
19800TIP3   OH280814   0.392   3.954   2.491 -0.3649 -0.1629 -0.6731
19800TIP3    H180815   0.313   3.940   2.439 -0.2857  0.4861 -0.9743
19800TIP3    H280816   0.389   4.046   2.514 -0.3630 -0.4245  0.4259
19801TIP3   OH280817   0.273   4.768   2.268  0.3514  0.4296  0.0192
19801TIP3    H180818   0.360   4.805   2.276  0.8050 -0.5156 -0.3855
19801TIP3    H280819   0.285   4.689   2.214 -0.7992  0.4753 -0.3355
19802TIP3   OH280820   0.790   1.927   2.201  0.2611  0.0728  0.4862
19802TIP3    H180821   0.881   1.914   2.228 -0.6480 -2.1655  2.8910
19802TIP3    H280822   0.744   1.851   2.235 -2.0437 -0.5696 -3.4932
19803TIP3   OH280823   4.227   5.088   2.171 -0.0439 -1.1823  0.0216
19803TIP3    H180824   4.244   5.055   2.083 -0.9574  1.1891 -1.1478
19803TIP3    H280825   4.305   5.141   2.192 -0.4970 -0.4715 -0.0529
19804TIP3   OH280826   2.634   1.267   5.311  0.0066  0.0017 -0.6774
19804TIP3    H180827   2.591   1.182   5.317 -3.4895  1.5746 -0.6868
19804TIP3    H280828   2.646   1.294   5.402 -0.6550  0.2473 -0.6539
19805TIP3   OH280829   5.061   5.992  11.090  0.0010  0.4311  0.1522
19805TIP3    H180830   5.120   5.918  11.076 -0.4173 -0.4754  2.5423
19805TIP3    H280831   4.996   5.985  11.020  0.7761 -0.6208 -0.4848
19806TIP3   OH280832   4.298   6.674   3.718 -0.6344  0.5065 -0.7728
19806TIP3    H180833   4.392   6.658   3.722 -0.6198  0.7591  1.4180
19806TIP3    H280834   4.274   6.695   3.808 -3.3609 -2.9008 -0.4896
19807TIP3   OH280835   3.315   3.092  16.277 -0.0766  0.5012 -0.4408
19807TIP3    H180836   3.231   3.072  16.318  0.6332  0.4164  1.0372
19807TIP3    H280837   3.328   3.185  16.294 -0.0476  0.6076 -1.0279
19808TIP3   OH280838   2.906   1.422  16.330  0.0239  0.1485 -0.7327
19808TIP3    H180839   2.946   1.462  16.407 -1.5391  0.6259 -0.1422
19808TIP3    H280840   2.922   1.328  16.340 -0.4320  0.1744  0.3407
19809TIP3   OH280841   5.978   4.160   4.526  0.0577 -0.1173  0.6388
19809TIP3    H180842   6.019   4.210   4.597  0.8306 -0.4623  0.4376
19809TIP3    H280843   6.030   4.080   4.519 -1.6519 -1.3802  1.5170
19810TIP3   OH280844   2.677   4.877  13.612  0.2918  0.2068 -0.0649
19810TIP3    H180845   2.691   4.865  13.706 -0.4861  2.0386  0.3357
19810TIP3    H280846   2.701   4.968  13.596 -0.1217  0.0870 -1.5448
19811TIP3   OH280847   1.887   3.078   5.859 -0.0058 -0.2818  0.0930
19811TIP3    H180848   1.906   3.061   5.951  2.8593  0.5864 -0.2489
19811TIP3    H280849   1.914   3.168   5.845 -2.8552  0.5172 -1.0741
19812TIP3   OH280850   4.977   4.598  12.916  0.4436  0.3894  0.1398
19812TIP3    H180851   4.933   4.627  12.836  0.6664 -0.3909 -0.2708
19812TIP3    H280852   5.009   4.679  12.955 -0.9792  0.9321  0.2361
19813TIP3   OH280853   3.289   3.938  16.204  0.0494 -0.0316  0.4922
19813TIP3    H180854   3.207   3.970  16.241  0.1690 -0.5512  1.2587
19813TIP3    H280855   3.291   3.845  16.229 -0.1138 -0.5566 -1.3208
19814TIP3   OH280856   1.361   4.860  16.475  0.4928 -0.3744  0.1187
19814TIP3    H180857   1.376   4.936  16.420  0.1292 -0.9544 -0.7959
19814TIP3    H280858   1.272   4.871  16.508 -0.6260 -1.7034 -2.1960
19815TIP3   OH280859   2.606   2.458  15.950  0.3156 -0.0548 -0.8914
19815TIP3    H180860   2.667   2.405  16.000  0.2710 -0.0461 -0.8277
19815TIP3    H280861   2.601   2.541  15.997  1.2810  0.4439 -1.6293
19816TIP3   OH280862   4.340   1.150   4.471  0.8870 -0.6504 -0.5099
19816TIP3    H180863   4.397   1.227   4.473 -0.2004  0.2621 -2.1195
19816TIP3    H280864   4.255   1.184   4.443 -0.0399 -2.2182  0.2558
19817TIP3   OH280865   2.086   3.061  17.015  0.4227 -0.3899 -0.2133
19817TIP3    H180866   2.133   3.143  17.027  0.0427  0.1741 -2.2120
19817TIP3    H280867   1.994   3.083  17.028  0.1389 -0.0546 -2.5043
19818TIP3   OH280868   5.815   1.791  13.935 -0.3960  0.0618  0.2193
19818TIP3    H180869   5.765   1.799  14.016 -1.0137  1.1288 -0.2446
19818TIP3    H280870   5.906   1.803  13.962 -0.4510 -1.0214  0.9447
19819TIP3   OH280871   3.029   1.776   0.032 -0.3922  0.5308  0.1695
19819TIP3    H180872   3.104   1.723   0.006 -0.4872  0.3911  0.1723
19819TIP3    H280873   2.959   1.711   0.048 -0.4129  0.6328  0.5063
19820TIP3   OH280874   0.803   4.734   2.557 -0.1290  0.3705 -0.3078
19820TIP3    H180875   0.806   4.698   2.468  0.4994  0.3957 -0.3002
19820TIP3    H280876   0.889   4.714   2.594 -1.0944 -1.6100  1.0751
19821TIP3   OH280877   3.579   4.425   4.178  0.1474  0.0868 -0.0517
19821TIP3    H180878   3.500   4.373   4.163  0.1993  0.5604 -2.3574
19821TIP3    H280879   3.550   4.516   4.169  0.6409  0.3537  0.8907
19822TIP3   OH280880   4.923   1.621  10.717  0.2298  0.3145 -0.0521
19822TIP3    H180881   4.864   1.695  10.706  1.0665  0.9803 -0.2148
19822TIP3    H280882   4.909   1.567  10.640 -0.8977 -0.0802  0.4081
19823TIP3   OH280883   4.881   5.676  17.213 -0.2327 -0.5480 -0.3007
19823TIP3    H180884   4.875   5.702  17.305  0.1451 -0.5063 -0.2855
19823TIP3    H280885   4.804   5.716  17.172 -0.3011 -0.4086 -0.0394
19824TIP3   OH280886   3.251   3.134  14.813 -0.5370 -0.5737  0.2975
19824TIP3    H180887   3.156   3.127  14.810 -0.5588 -0.7569  1.1694
19824TIP3    H280888   3.272   3.206  14.753 -1.2497 -0.3477  0.3102
19825TIP3   OH280889   1.144   5.646  13.295  0.8509 -0.1240 -0.0002
19825TIP3    H180890   1.110   5.680  13.378  1.7789 -0.1698  0.3988
19825TIP3    H280891   1.105   5.559  13.287  1.2198 -0.3502  0.6638
19826TIP3   OH280892   6.012   5.672  16.804  0.1740 -0.0962  0.0571
19826TIP3    H180893   5.925   5.693  16.770  0.0647  2.4690  1.7041
19826TIP3    H280894   6.070   5.738  16.767  1.7507 -2.3940 -1.8873
19827TIP3   OH280895   2.240   1.131   2.423 -0.5830  0.2809 -0.2711
19827TIP3    H180896   2.236   1.195   2.352  0.1324  0.6733  0.0275
19827TIP3    H280897   2.277   1.179   2.497 -2.2562  0.1459  0.6956
19828TIP3   OH280898   5.842   1.974   3.246  0.1936  0.2817  1.0063
19828TIP3    H180899   5.827   2.014   3.331 -0.1594  1.9508  0.2073
19828TIP3    H280900   5.758   1.981   3.201  0.4918 -0.1574  0.3615
19829TIP3   OH280901   2.448   2.506  12.077 -0.2177 -0.8243 -1.0181
19829TIP3    H180902   2.366   2.555  12.087  0.5457  0.1761  0.8751
19829TIP3    H280903   2.426   2.417  12.103 -0.9365 -0.8266 -1.5941
19830TIP3   OH280904   6.264   5.618   4.053  0.0988  0.1211 -0.2517
19830TIP3    H180905   6.168   5.620   4.053  0.0998  0.2095 -1.2210
19830TIP3    H280906   6.285   5.544   4.111 -0.6080 -1.2724 -1.6773
19831TIP3   OH280907   4.885   6.438   2.979 -0.0270 -0.3956 -0.5816
19831TIP3    H180908   4.967   6.422   2.931  0.6138 -1.0046  0.6717
19831TIP3    H280909   4.909   6.501   3.047 -1.9482  4.5288 -3.8758
19832TIP3   OH280910   2.497   1.235   5.760  0.0169  0.0048  0.0212
19832TIP3    H180911   2.500   1.164   5.824 -0.1279 -2.6740 -2.7441
19832TIP3    H280912   2.408   1.270   5.767 -0.2732 -0.8238  0.6566
19833TIP3   OH280913   4.498   5.759  15.206  0.4639  0.0488 -0.0464
19833TIP3    H180914   4.552   5.681  15.187  0.5517 -0.0950  0.7568
19833TIP3    H280915   4.494   5.762  15.302 -0.4968  0.3848 -0.0934
19834TIP3   OH280916   1.470   1.605  15.249  0.0889 -0.6663  0.0534
19834TIP3    H180917   1.387   1.624  15.295  1.0861 -0.0833  1.7241
19834TIP3    H280918   1.488   1.685  15.199 -1.3188 -1.5344 -1.9317
19835TIP3   OH280919   4.994   0.052   0.343  0.7273  0.0039  0.5067
19835TIP3    H180920   5.063   0.114   0.318 -0.8123  1.2033 -1.0823
19835TIP3    H280921   4.913   0.099   0.324 -0.5299 -1.6956  1.4288
19836TIP3   OH280922   5.784   6.771   2.402  0.0797 -0.1624 -0.3197
19836TIP3    H180923   5.815   6.698   2.348 -0.5876  0.1219 -1.1054
19836TIP3    H280924   5.704   6.801   2.358 -0.3247  0.2568  0.6808
19837TIP3   OH280925   0.801   1.434  12.993  0.4217 -0.0551  0.3391
19837TIP3    H180926   0.748   1.363  13.028 -1.1124  0.8285 -0.1166
19837TIP3    H280927   0.880   1.434  13.048  0.1074 -1.5792  0.8411
19838TIP3   OH280928   4.921   3.509   4.723 -0.0963 -0.4734 -0.6282
19838TIP3    H180929   4.854   3.499   4.655  0.1137  2.2788 -1.3791
19838TIP3    H280930   5.003   3.518   4.675  0.8810 -3.4604  0.2752
19839TIP3   OH280931   1.045   4.444  11.098 -0.5387 -0.4247  0.2189
19839TIP3    H180932   0.963   4.488  11.072  0.3944  0.9991 -0.4308
19839TIP3    H280933   1.063   4.384  11.026 -1.5068 -1.4930  0.8299
19840TIP3   OH280934   0.370   1.985   2.849 -0.0976  0.1197 -0.4904
19840TIP3    H180935   0.417   1.914   2.894 -0.2408 -0.4792 -1.2588
19840TIP3    H280936   0.436   2.052   2.833  0.0179  0.2059  0.3416
19841TIP3   OH280937   6.226   1.356   2.965  0.0174  0.1491  0.2457
19841TIP3    H180938   6.241   1.401   2.882 -0.9892 -1.5465 -0.9238
19841TIP3    H280939   6.312   1.321   2.989 -0.0241 -1.0646 -1.1853
19842TIP3   OH280940   0.406   2.278  16.691  0.2221  0.0551  0.1522
19842TIP3    H180941   0.476   2.249  16.749 -0.2481 -0.3857  0.5008
19842TIP3    H280942   0.377   2.362  16.728  1.0458  0.6073 -0.4075
19843TIP3   OH280943   3.129   2.940   2.057  0.1184  0.0067 -0.1731
19843TIP3    H180944   3.042   2.980   2.056 -0.6900 -1.6501 -0.3942
19843TIP3    H280945   3.113   2.850   2.087  1.2203 -1.3674 -3.3104
19844TIP3   OH280946   6.066   4.660   4.147 -0.1498  0.1927 -0.1026
19844TIP3    H180947   6.031   4.684   4.233 -0.6206 -0.1816 -0.1840
19844TIP3    H280948   6.036   4.570   4.134 -1.5023  0.7961 -1.3817
19845TIP3   OH280949   4.937   3.316   2.616 -0.0389  0.5210  0.4794
19845TIP3    H180950   4.882   3.241   2.639 -0.1806  0.1653 -0.9010
19845TIP3    H280951   4.939   3.315   2.520  0.6179  1.8127  0.4614
19846TIP3   OH280952   0.588   4.817   4.049 -0.2097 -0.0200  0.1309
19846TIP3    H180953   0.629   4.865   3.977  2.1743 -0.3090  1.1749
19846TIP3    H280954   0.495   4.818   4.029  0.2942  0.3629 -2.6687
19847TIP3   OH280955   5.199   6.187   5.970 -0.1903 -0.1014  0.0726
19847TIP3    H180956   5.291   6.160   5.965  1.0258  3.4743  0.3711
19847TIP3    H280957   5.186   6.214   6.061 -1.4197 -0.0866 -0.0833
19848TIP3   OH280958   6.428   2.556   6.251 -0.2377 -0.4278 -0.1208
19848TIP3    H180959   6.465   2.468   6.238 -0.0983 -0.3800 -0.0401
19848TIP3    H280960   6.437   2.598   6.165 -2.5291 -1.3336 -0.8766
19849TIP3   OH280961   5.931   6.589   0.975 -0.4901 -0.3452 -0.0201
19849TIP3    H180962   5.862   6.636   1.021 -1.4153 -0.8155 -0.8992
19849TIP3    H280963   6.011   6.615   1.020 -0.9769  1.8476 -0.3070
19850TIP3   OH280964   1.774   5.774  11.282  0.3171  0.2239 -0.1377
19850TIP3    H180965   1.780   5.772  11.378  3.4897 -0.1417 -0.2409
19850TIP3    H280966   1.759   5.682  11.258 -0.0790  0.2579 -0.0401
19851TIP3   OH280967   0.738   0.899  10.729  0.3621  0.3367  0.2437
19851TIP3    H180968   0.767   0.962  10.663 -0.2559  0.2557 -0.1183
19851TIP3    H280969   0.642   0.905  10.728  0.1864 -1.6312 -0.8626
19852TIP3   OH280970   0.982   3.047   5.660  0.0270  0.2394 -0.1505
19852TIP3    H180971   0.979   3.104   5.737 -0.3523 -0.5398  0.4256
19852TIP3    H280972   0.992   3.107   5.586  2.7061  0.8785  0.6456
19853TIP3   OH280973   0.027   6.647  10.737 -0.2050 -0.5464 -0.0484
19853TIP3    H180974   0.105   6.613  10.692  0.4674 -0.7251  1.1953
19853TIP3    H280975  -0.008   6.571  10.783 -0.9384 -0.3922 -0.3521
19854TIP3   OH280976   2.747   3.635   0.314  0.2870 -0.0540 -0.1366
19854TIP3    H180977   2.792   3.551   0.319  0.7262  0.1246 -0.9259
19854TIP3    H280978   2.816   3.697   0.288  0.0514  0.6179  0.8135
19855TIP3   OH280979   3.947   4.704   5.109  0.5275  0.2355 -0.2092
19855TIP3    H180980   3.875   4.641   5.104  0.1674  0.7333 -2.9604
19855TIP3    H280981   4.019   4.661   5.063  1.4091  0.5291  0.8482
19856TIP3   OH280982   6.380   6.758  11.469  0.3681 -0.3344 -0.3465
19856TIP3    H180983   6.346   6.727  11.553  1.3081  3.0747  1.5127
19856TIP3    H280984   6.313   6.735  11.405 -1.7133 -0.7056  1.8301
19857TIP3   OH280985   2.511   1.478  14.941 -0.2323  0.2395  1.0721
19857TIP3    H180986   2.432   1.425  14.950  0.4929 -0.6155  3.0481
19857TIP3    H280987   2.567   1.450  15.014  2.0700  0.5403 -0.4786
19858TIP3   OH280988   1.755   1.104  13.449 -0.3435  0.4136  0.1968
19858TIP3    H180989   1.814   1.030  13.438 -1.9766 -1.2792  1.9656
19858TIP3    H280990   1.756   1.149  13.364  1.1492 -1.2851 -0.7478
19859TIP3   OH280991   5.799   2.144   5.050 -1.0155 -0.0070  0.3743
19859TIP3    H180992   5.705   2.136   5.066 -1.3888  1.2907 -0.9270
19859TIP3    H280993   5.805   2.173   4.959  0.5379  1.9658  1.0312
19860TIP3   OH280994   2.560   5.539  15.643  0.2882 -0.0031  0.4251
19860TIP3    H180995   2.629   5.557  15.707  0.1459 -0.1603  0.6235
19860TIP3    H280996   2.602   5.484  15.577  0.2898 -0.3012  0.6732
19861TIP3   OH280997   2.849   3.720   1.625 -0.4167 -0.5163 -0.1838
19861TIP3    H180998   2.880   3.774   1.551  3.3845 -2.1480  0.0338
19861TIP3    H280999   2.919   3.724   1.689 -3.2443  0.1583  3.1707
19862TIP3   OH281000   5.214   6.118  17.257  0.2195  0.1546 -0.2351
19862TIP3    H181001   5.290   6.072  17.221  0.5170  0.1424  0.3879
19862TIP3    H281002   5.242   6.146  17.344 -1.2279 -1.8782  0.9754
19863TIP3   OH281003   3.407   4.564  15.129  0.7428  0.1251  0.3756
19863TIP3    H181004   3.411   4.658  15.146  2.0674 -0.1745  1.9288
19863TIP3    H281005   3.440   4.523  15.209 -0.2876 -1.7005 -0.0739
19864TIP3   OH281006   6.004   2.698   4.770  0.0053 -0.1272  0.1438
19864TIP3    H181007   5.938   2.700   4.700  0.5781 -1.1977 -0.4621
19864TIP3    H281008   6.025   2.605   4.781  0.6055  0.1021  1.0985
19865TIP3   OH281009   3.776   3.027   2.101  0.0786 -0.5964  0.1911
19865TIP3    H181010   3.858   3.070   2.078 -0.9061  0.7250 -0.9935
19865TIP3    H281011   3.723   3.030   2.022 -1.6551 -0.1315  1.3023
19866TIP3   OH281012   4.114   1.330  13.292  0.3517 -0.7113 -0.5993
19866TIP3    H181013   4.143   1.274  13.219 -0.3215  1.2518 -2.5028
19866TIP3    H281014   4.026   1.358  13.267  0.6442  1.1350  0.2361
19867TIP3   OH281015   6.051   5.039  13.760 -0.1312  0.0092 -0.5110
19867TIP3    H181016   5.970   5.086  13.778  0.7065  1.2849  0.0935
19867TIP3    H281017   6.041   4.956  13.805 -0.2599  1.0130  1.4132
19868TIP3   OH281018   5.996   1.168   0.991  0.5237 -0.0833  0.3953
19868TIP3    H181019   5.954   1.253   0.975 -2.3308 -1.3180  0.7674
19868TIP3    H281020   6.024   1.172   1.083  1.3779  0.7887  0.1200
19869TIP3   OH281021   1.609   3.952   3.201  0.1977 -0.0986  0.4407
19869TIP3    H181022   1.608   4.006   3.279  1.7611  0.2513  0.2487
19869TIP3    H281023   1.697   3.962   3.165 -0.5427 -0.0600 -1.5001
19870TIP3   OH281024   5.690   1.206   5.338  0.4668  0.1468 -0.0749
19870TIP3    H181025   5.620   1.263   5.369 -0.7849  0.0531 -2.4775
19870TIP3    H281026   5.729   1.254   5.265  1.3395 -0.8049 -0.2508
19871TIP3   OH281027   0.830   3.476   2.421  0.5222  0.2519  0.4145
19871TIP3    H181028   0.850   3.405   2.359 -1.2622 -0.6728  0.8367
19871TIP3    H281029   0.874   3.553   2.385  0.3968 -0.5001 -1.4237
19872TIP3   OH281030   6.264   2.146   3.070  0.0876 -0.4535  0.2380
19872TIP3    H181031   6.229   2.094   3.143 -2.0655  1.5860  0.7701
19872TIP3    H281032   6.242   2.095   2.992 -0.1731 -1.2877  0.8379
19873TIP3   OH281033   4.779   3.963  14.868  0.0598  0.0007 -0.4701
19873TIP3    H181034   4.790   3.948  14.962 -2.0035 -0.7551 -0.2879
19873TIP3    H281035   4.831   3.895  14.826 -1.6405 -1.8227  0.2291
19874TIP3   OH281036   2.744   2.251   2.241 -0.0644  0.4762 -0.5178
19874TIP3    H181037   2.809   2.189   2.207  1.3574  1.1940  0.7610
19874TIP3    H281038   2.793   2.306   2.302 -2.0621  0.4924  1.1956
19875TIP3   OH281039   3.615   4.205   3.894  0.6042 -0.5585 -0.0979
19875TIP3    H181040   3.653   4.291   3.877  0.2126 -0.4368 -0.3745
19875TIP3    H281041   3.536   4.222   3.945  1.3083 -0.8660  1.1417
19876TIP3   OH281042   6.592   0.916   5.655  0.4052 -0.3404  0.1414
19876TIP3    H181043   6.544   0.991   5.688 -2.0243 -1.4211 -0.7055
19876TIP3    H281044   6.636   0.947   5.576  1.5260  0.7639  1.1485
19877TIP3   OH281045   0.614   4.682  17.201 -0.2113 -0.2379 -0.0997
19877TIP3    H181046   0.561   4.736  17.260 -0.6891 -0.2573 -0.5119
19877TIP3    H281047   0.636   4.605  17.253  1.9625  1.0770  1.1445
19878TIP3   OH281048   1.776   0.473  12.533 -0.2229 -0.7849 -0.1966
19878TIP3    H181049   1.822   0.477  12.449  0.6828  0.9648  0.3175
19878TIP3    H281050   1.846   0.463  12.598 -0.7552 -0.3678  0.4538
19879TIP3   OH281051   0.313   6.706  16.762 -0.1134 -0.2141 -0.0011
19879TIP3    H181052   0.367   6.629  16.782  1.1666  0.1645 -1.6933
19879TIP3    H281053   0.247   6.673  16.701  0.0025 -0.1157 -0.1791
19880TIP3   OH281054   4.940   0.704   4.375 -0.3151 -0.1881  0.1503
19880TIP3    H181055   4.968   0.772   4.313  3.5829 -0.6202  1.2055
19880TIP3    H281056   4.956   0.622   4.330 -1.3014 -0.5004  0.3320
19881TIP3   OH281057   1.090   1.784  17.012  0.2214  0.0732 -0.0036
19881TIP3    H181058   1.152   1.855  17.025  1.1181 -0.3878 -1.5318
19881TIP3    H281059   1.133   1.707  17.049 -0.1804  0.0688  0.4623
19882TIP3   OH281060   1.129   0.830   2.518 -0.0784 -0.0817  0.5766
19882TIP3    H181061   1.192   0.774   2.474 -0.3270 -0.0225  0.1444
19882TIP3    H281062   1.108   0.784   2.599  0.0677 -0.3860  0.4413
19883TIP3   OH281063   6.140   5.586   3.578 -0.0905  0.4797 -0.0531
19883TIP3    H181064   6.158   5.521   3.646 -1.2251 -0.1648 -0.3496
19883TIP3    H281065   6.160   5.541   3.496 -1.4016  0.3017 -0.2901
19884TIP3   OH281066   0.362   3.846  16.521 -0.0735 -0.6220  0.4262
19884TIP3    H181067   0.320   3.893  16.593 -1.5067  0.0721 -0.7860
19884TIP3    H281068   0.289   3.819  16.465  0.8224 -3.1661  0.3874
19885TIP3   OH281069   5.056   1.395   5.373 -0.1114  0.2452  0.1424
19885TIP3    H181070   4.977   1.442   5.348  0.8857  0.6935 -2.4494
19885TIP3    H281071   5.106   1.458   5.426 -1.6682 -0.2452  2.3120
19886TIP3   OH281072   1.950   4.044  12.037 -0.8141  0.1852 -0.0690
19886TIP3    H181073   1.988   3.969  12.082  0.5631  0.1187 -1.2860
19886TIP3    H281074   2.003   4.055  11.959 -2.3805  1.0643 -1.0594
19887TIP3   OH281075   0.944   2.458  12.843 -0.1857 -0.1875  0.0547
19887TIP3    H181076   0.887   2.511  12.788 -2.0963 -2.5929 -0.4763
19887TIP3    H281077   0.989   2.399  12.783 -0.8233 -1.5446  0.8575
19888TIP3   OH281078   1.430   4.434  14.709  0.0328  0.0625 -1.0759
19888TIP3    H181079   1.375   4.401  14.780  0.2838  1.0619 -0.4014
19888TIP3    H281080   1.419   4.370  14.639  0.4128 -1.3640  0.1368
19889TIP3   OH281081   5.160   0.041  15.703 -0.3972 -0.5840 -0.3618
19889TIP3    H181082   5.137   0.075  15.789 -0.1936 -3.3796  0.8885
19889TIP3    H281083   5.253   0.019  15.709 -0.0468  0.3334 -1.7592
19890TIP3   OH281084   6.436   5.327   3.652  0.1803 -0.5112  0.4241
19890TIP3    H181085   6.504   5.348   3.716 -0.1567  0.4520  0.4888
19890TIP3    H281086   6.355   5.360   3.691 -0.2327 -1.0985  0.0811
19891TIP3   OH281087   2.576   5.282  14.833  0.1792  0.1015  0.2942
19891TIP3    H181088   2.489   5.243  14.836  0.4695 -0.5767 -0.0742
19891TIP3    H281089   2.636   5.209  14.847  0.6843  0.6197  0.9138
19892TIP3   OH281090   3.454   3.768  15.986 -0.6569 -0.0130 -0.1946
19892TIP3    H181091   3.421   3.733  16.069 -2.2587  1.5249 -0.1359
19892TIP3    H281092   3.434   3.699  15.922 -1.0906 -0.4422  0.3816
19893TIP3   OH281093   0.196   2.372  13.478  0.0911 -0.3493 -0.1638
19893TIP3    H181094   0.224   2.340  13.392  0.6858 -0.5508  0.1002
19893TIP3    H281095   0.227   2.462  13.481  0.5219 -0.5045  0.0433
19894TIP3   OH281096   0.441   6.719   5.501  0.2317 -0.0005 -0.1024
19894TIP3    H181097   0.351   6.750   5.515  0.5568  0.3807  1.3030
19894TIP3    H281098   0.492   6.762   5.569  1.5334 -0.0504 -1.0177
19895TIP3   OH281099   5.572   1.694  12.124 -0.0186 -0.1568  0.2707
19895TIP3    H181100   5.556   1.628  12.192  0.9386 -0.2987  0.3708
19895TIP3    H281101   5.545   1.776  12.165  1.6607 -0.0742  1.2883
19896TIP3   OH281102   0.823   1.178  15.630  0.3482 -0.2580  0.0805
19896TIP3    H181103   0.754   1.130  15.676 -0.7983  1.8281  0.6685
19896TIP3    H281104   0.836   1.257  15.682  1.8945  0.2726 -1.0445
19897TIP3   OH281105   1.000   2.781  13.057 -0.1865 -0.0453 -0.5193
19897TIP3    H181106   1.000   2.817  12.969 -2.1859  0.1666 -0.4792
19897TIP3    H281107   1.014   2.857  13.114 -1.4713  0.2350 -0.5601
19898TIP3   OH281108   6.709   5.733   1.691  0.1393 -0.2448  0.3426
19898TIP3    H181109   6.769   5.745   1.764  0.0230 -0.2770  0.4437
19898TIP3    H281110   6.752   5.671   1.633  0.7325  0.6043 -0.1574
19899TIP3   OH281111   5.812   1.926  15.889  0.1405 -0.0231 -0.3897
19899TIP3    H181112   5.868   1.870  15.943  1.4639 -0.0736 -1.7384
19899TIP3    H281113   5.853   2.012  15.893 -1.9564  1.0038  1.7799
19900TIP3   OH281114   3.486   0.834  11.304 -0.4601  0.1444 -0.9320
19900TIP3    H181115   3.565   0.781  11.317 -0.1577 -0.2732 -3.8302
19900TIP3    H281116   3.440   0.829  11.387  1.2495 -1.8462 -0.0081
19901TIP3   OH281117   4.250   1.865   4.352 -0.6572  0.1014  0.3658
19901TIP3    H181118   4.238   1.933   4.418  0.7851 -0.9545  1.7987
19901TIP3    H281119   4.183   1.800   4.373 -0.4690 -0.0398  0.5291
19902TIP3   OH281120   4.483   5.938  16.578 -0.2814 -0.5289  0.7447
19902TIP3    H181121   4.530   5.998  16.520 -1.1452 -0.3293  0.2265
19902TIP3    H281122   4.457   5.865  16.522 -0.9814 -0.4187  0.9175
19903TIP3   OH281123   6.753   2.120  14.796  0.4850  0.8911 -0.4557
19903TIP3    H181124   6.817   2.191  14.799  1.9829 -0.4140  1.8791
19903TIP3    H281125   6.689   2.142  14.863  1.7339 -0.5397  1.2919
19904TIP3   OH281126   3.274   1.857  11.035 -0.8557 -0.0103  0.0044
19904TIP3    H181127   3.276   1.948  11.066 -0.3649 -0.4496  1.3329
19904TIP3    H281128   3.346   1.852  10.972 -0.3827  0.3394  0.4997
19905TIP3   OH281129   0.655   3.328  11.203 -0.1583  0.3850  0.2342
19905TIP3    H181130   0.637   3.274  11.126  0.8822 -2.3574  1.7783
19905TIP3    H281131   0.749   3.346  11.199 -0.6093  3.0265 -0.7167
19906TIP3   OH281132   5.854   5.991  13.637  0.6788  0.0054  0.1076
19906TIP3    H181133   5.858   6.038  13.554  1.5587 -1.9469 -1.0155
19906TIP3    H281134   5.911   6.042  13.695  1.2538  0.5782 -0.9214
19907TIP3   OH281135   3.148   3.412  13.934  0.4309  0.7001  0.2834
19907TIP3    H181136   3.212   3.441  13.999  1.2451  0.7264 -0.5163
19907TIP3    H281137   3.130   3.321  13.957 -0.2374  1.0626  1.2859
19908TIP3   OH281138   0.497   3.692   1.597 -0.2181  0.2967 -0.2523
19908TIP3    H181139   0.553   3.672   1.523  1.2867 -0.3084  1.0039
19908TIP3    H281140   0.513   3.621   1.660 -0.7799  1.2609  1.0252
19909TIP3   OH281141   2.608   6.713   4.444 -0.1129  0.4269 -0.6248
19909TIP3    H181142   2.619   6.618   4.443  0.3942  0.4777 -0.3411
19909TIP3    H281143   2.621   6.737   4.535 -1.4813  0.6389 -0.4623
19910TIP3   OH281144   2.329   3.817   2.050  0.4535 -0.0575  0.4150
19910TIP3    H181145   2.302   3.903   2.082 -1.8958 -0.6006  0.0397
19910TIP3    H281146   2.315   3.821   1.955  1.7382 -0.4030  0.1883
19911TIP3   OH281147   2.257   1.794   5.045 -0.0737 -0.1544  0.1345
19911TIP3    H181148   2.231   1.739   4.971 -0.6724  0.3056  0.0009
19911TIP3    H281149   2.189   1.860   5.051  0.8665  0.8541  0.0059
19912TIP3   OH281150   2.141   1.312   0.936 -0.2017  0.2051  0.1949
19912TIP3    H181151   2.050   1.334   0.953  0.3381  1.6157  1.4582
19912TIP3    H281152   2.149   1.220   0.960 -1.1282  0.2527  0.7189
19913TIP3   OH281153   5.685   0.354  13.190 -0.4137 -0.0350  0.7604
19913TIP3    H181154   5.634   0.364  13.110 -1.1270 -0.6586  1.1156
19913TIP3    H281155   5.620   0.355  13.260  0.0186 -1.1146  1.2092
19914TIP3   OH281156   0.406   1.272  13.383 -0.3132  0.0173  0.2891
19914TIP3    H181157   0.469   1.331  13.342 -0.2261  0.9602  1.7168
19914TIP3    H281158   0.325   1.323  13.387 -0.7700 -0.6563 -0.1919
19915TIP3   OH281159   6.311   0.697   0.929 -0.7038 -0.2357  0.3393
19915TIP3    H181160   6.367   0.706   0.852 -3.5410 -0.4212 -1.9634
19915TIP3    H281161   6.319   0.605   0.954 -0.2265 -0.3290 -0.1456
19916TIP3   OH281162   2.012   4.602   1.156 -0.4474 -0.2951 -0.6635
19916TIP3    H181163   1.963   4.680   1.183 -0.5202 -0.7210  0.4608
19916TIP3    H281164   1.973   4.578   1.071 -0.9813  0.4089 -0.6243
19917TIP3   OH281165   6.116   6.089   2.481 -0.4781 -0.0857  0.5065
19917TIP3    H181166   6.162   6.063   2.561 -0.1891 -2.0796 -0.2641
19917TIP3    H281167   6.091   6.007   2.440  0.3474  0.8513 -2.0185
19918TIP3   OH281168   5.011   0.796   1.628 -0.1451 -0.2072  0.0307
19918TIP3    H181169   4.927   0.839   1.639  0.1538  0.8363 -1.3468
19918TIP3    H281170   5.064   0.861   1.580  1.7928 -0.4037  1.7768
19919TIP3   OH281171   4.905   4.652   6.352 -0.3778  0.1781  0.6040
19919TIP3    H181172   4.884   4.729   6.403 -0.7196  0.8800 -0.5768
19919TIP3    H281173   4.980   4.613   6.398 -1.1412  0.3604  2.0450
19920TIP3   OH281174   2.462   5.360  13.982 -0.6514 -0.0921 -0.1773
19920TIP3    H181175   2.488   5.450  13.967 -2.5382  0.3346 -1.2075
19920TIP3    H281176   2.397   5.365  14.052 -0.7137 -0.6689 -0.1841
19921TIP3   OH281177   4.898   2.828  13.281 -0.1772  0.6605  0.2158
19921TIP3    H181178   4.968   2.887  13.254 -0.0101  0.1364 -0.5479
19921TIP3    H281179   4.943   2.753  13.320 -0.3574  0.7101  0.5282
19922TIP3   OH281180   5.941   0.378   5.964 -0.7045  0.0532 -0.4039
19922TIP3    H181181   5.884   0.416   6.031 -1.3211 -1.3495 -0.0951
19922TIP3    H281182   5.921   0.285   5.966  0.2303 -0.1981 -1.6389
19923TIP3   OH281183   2.122   1.993  14.700  0.3148 -1.2645  0.2085
19923TIP3    H181184   2.214   2.020  14.699  0.4880 -1.5278 -2.9229
19923TIP3    H281185   2.073   2.075  14.709  0.8936 -0.8280 -0.4746
19924TIP3   OH281186   2.952   5.926   6.044 -0.3054  0.4016 -0.1241
19924TIP3    H181187   2.936   5.993   5.976 -1.4563  1.2827  0.9620
19924TIP3    H281188   3.044   5.938   6.068 -0.6045  1.9847  0.3994
19925TIP3   OH281189   1.385   3.059  16.198  0.1860 -1.0582 -0.5510
19925TIP3    H181190   1.381   2.991  16.266  1.6035 -0.7155 -0.0875
19925TIP3    H281191   1.461   3.112  16.222 -1.9787  1.9406  0.2482
19926TIP3   OH281192   3.010   5.871  17.027 -0.1461  0.1236 -0.3004
19926TIP3    H181193   3.058   5.853  17.107  0.2087 -0.2177 -0.5851
19926TIP3    H281194   3.034   5.961  17.003  0.1779  0.0313 -0.3217
19927TIP3   OH281195   4.696   0.906  16.307 -0.0147  0.5196 -0.1038
19927TIP3    H181196   4.673   0.893  16.399 -1.2655 -1.2954 -0.6105
19927TIP3    H281197   4.791   0.901  16.304 -0.0692 -1.8957  0.7929
19928TIP3   OH281198   0.142   1.819   1.420  0.3949 -0.5601 -0.3428
19928TIP3    H181199   0.213   1.829   1.356 -0.7983  1.3389 -1.4626
19928TIP3    H281200   0.179   1.851   1.502  0.5847  1.4614 -1.1509
19929TIP3   OH281201   0.178   1.852  15.681 -0.0517 -0.3333 -0.0500
19929TIP3    H181202   0.161   1.769  15.726 -0.3780 -0.7986 -1.0065
19929TIP3    H281203   0.264   1.879  15.711  0.3643 -1.3854 -0.2631
19930TIP3   OH281204   3.069   0.805  14.395  0.5488  0.0453 -0.1068
19930TIP3    H181205   3.009   0.801  14.470  0.5227 -0.1612 -0.1387
19930TIP3    H281206   3.014   0.790  14.319  0.2632  1.9580 -0.3360
19931TIP3   OH281207   5.197   2.005   2.851  0.1696 -0.1308 -0.3890
19931TIP3    H181208   5.227   2.030   2.938  0.9618 -1.4909 -0.2443
19931TIP3    H281209   5.169   1.914   2.860 -1.0846  0.1363 -1.2489
19932TIP3   OH281210   2.587   0.768  15.624 -0.3857 -0.5084  0.6073
19932TIP3    H181211   2.613   0.705  15.556 -1.1001  0.6375 -0.7780
19932TIP3    H281212   2.613   0.726  15.706 -1.2717 -2.8574 -0.2188
19933TIP3   OH281213   2.086   3.236  13.281  0.6131 -1.2209 -0.0721
19933TIP3    H181214   2.180   3.254  13.288  0.4847 -0.6680  0.2714
19933TIP3    H281215   2.081   3.158  13.226  1.2902 -1.4225  0.1356
19934TIP3   OH281216   0.180   4.169   1.221 -0.5278  0.3294 -0.3686
19934TIP3    H181217   0.118   4.228   1.266  0.6715  0.6140  0.9788
19934TIP3    H281218   0.149   4.081   1.242 -0.0374  0.4621  0.9695
19935TIP3   OH281219   3.881   4.832  15.747 -0.5838 -0.2412  0.3255
19935TIP3    H181220   3.879   4.856  15.655  0.8106 -0.1028  0.3085
19935TIP3    H281221   3.832   4.750  15.752 -0.4894 -0.3599 -0.5681
19936TIP3   OH281222   1.590   3.836   1.054  0.8106 -0.5264 -0.3863
19936TIP3    H181223   1.603   3.745   1.082  0.5713 -0.5390 -0.3142
19936TIP3    H281224   1.676   3.864   1.022  0.9897 -0.6403 -0.0066
19937TIP3   OH281225   4.590   2.683   6.673 -0.2017 -0.1247 -0.0485
19937TIP3    H181226   4.533   2.613   6.640 -0.3020 -0.0410 -0.0531
19937TIP3    H281227   4.672   2.639   6.696 -0.7776 -0.5022  1.3958
19938TIP3   OH281228   3.565   6.244  11.829 -0.5866 -0.3418 -0.5095
19938TIP3    H181229   3.641   6.188  11.820 -0.2320  0.2805 -1.4792
19938TIP3    H281230   3.506   6.195  11.887 -0.2531 -1.6668 -1.2530
19939TIP3   OH281231   2.105   1.605   4.912 -0.4289 -0.0449  0.3481
19939TIP3    H181232   2.144   1.543   4.850 -0.0625  0.9787 -0.4754
19939TIP3    H281233   2.047   1.552   4.966 -1.0618 -0.9113 -1.1288
19940TIP3   OH281234   5.917   4.852   0.966 -0.0824 -0.0680 -0.1357
19940TIP3    H181235   5.946   4.932   1.010 -0.5082 -0.8737  1.7104
19940TIP3    H281236   5.838   4.879   0.918 -0.2252  0.6428  0.4679
19941TIP3   OH281237   6.165   4.967  12.848 -0.5708 -1.0523  0.2780
19941TIP3    H181238   6.241   4.946  12.902  0.1260 -1.0933 -0.6844
19941TIP3    H281239   6.104   5.009  12.907  0.2341 -0.9538  1.0571
19942TIP3   OH281240   2.565   3.998  12.519  0.5916 -0.6409  0.4149
19942TIP3    H181241   2.645   4.008  12.570  0.4784  1.8163  0.2285
19942TIP3    H281242   2.494   4.007  12.583  0.3958 -2.6857  0.5610
19943TIP3   OH281243   3.727   1.821   0.105  0.1936  0.1123  0.3236
19943TIP3    H181244   3.811   1.777   0.092  0.5962  1.0326 -0.2783
19943TIP3    H281245   3.725   1.843   0.199  0.7572  0.3412  0.2832
19944TIP3   OH281246   3.702   6.229  17.160  0.1407 -0.1476  0.5073
19944TIP3    H181247   3.636   6.255  17.095  1.0268  0.5478 -0.1355
19944TIP3    H281248   3.699   6.133  17.159 -0.3680 -0.1376 -0.0306
19945TIP3   OH281249   1.781   0.201   2.515  0.1150  0.3996 -0.4460
19945TIP3    H181250   1.832   0.230   2.591  0.4848  0.3418 -0.6700
19945TIP3    H281251   1.818   0.116   2.493 -0.7249 -0.0832 -0.0134
19946TIP3   OH281252   3.568   5.091  16.990 -0.3141  0.5070  0.5022
19946TIP3    H181253   3.619   5.172  16.989 -0.6469  0.7257  0.8574
19946TIP3    H281254   3.501   5.106  17.057 -0.6680  0.1169  0.2393
19947TIP3   OH281255   6.351   1.226  11.741 -0.0909  0.3316 -0.1531
19947TIP3    H181256   6.400   1.173  11.804 -0.4860 -0.1784 -0.2642
19947TIP3    H281257   6.289   1.165  11.702  0.5809  0.4837 -1.5149
19948TIP3   OH281258   5.370   6.116  14.509  0.3727 -0.5681  0.1830
19948TIP3    H181259   5.376   6.143  14.601 -0.0938  0.0479  0.0366
19948TIP3    H281260   5.347   6.196  14.462 -1.3488 -1.2617 -0.2241
19949TIP3   OH281261   6.037   1.890  12.575  0.4061 -0.5123 -0.3682
19949TIP3    H181262   6.033   1.863  12.484  1.7300 -1.3419 -0.1999
19949TIP3    H281263   6.123   1.862  12.605  1.0755  2.0504  0.4224
19950TIP3   OH281264   0.089   1.763   2.809  0.3275  0.1644 -0.1969
19950TIP3    H181265   0.085   1.850   2.850 -2.4306 -0.6457  1.5423
19950TIP3    H281266   0.009   1.759   2.757  0.8784 -1.0389 -0.9819
19951TIP3   OH281267   3.709   4.447   6.540  0.0723  0.6213  0.6247
19951TIP3    H181268   3.646   4.423   6.608 -0.1003 -1.3334 -0.1823
19951TIP3    H281269   3.761   4.368   6.526 -0.1521  0.8291 -1.7887
19952TIP3   OH281270   5.807   0.623   2.446  0.0171  0.0086 -0.5181
19952TIP3    H181271   5.832   0.604   2.356 -0.0712 -1.2428 -0.2874
19952TIP3    H281272   5.885   0.665   2.484  0.9193 -1.6181 -0.5094
19953TIP3   OH281273   2.052   5.057   0.843  0.1375 -0.0697  0.1720
19953TIP3    H181274   2.062   4.994   0.914 -0.3331 -1.5270 -1.0172
19953TIP3    H281275   1.968   5.100   0.860  0.7377  0.7133  1.3166
19954TIP3   OH281276   3.533   2.749  16.971  0.3552  0.5170  0.5045
19954TIP3    H181277   3.455   2.777  17.018 -1.4163  0.6176 -2.2568
19954TIP3    H281278   3.595   2.821  16.983 -0.6560  1.2939  1.2133
19955TIP3   OH281279   3.833   4.939   4.322 -0.3150 -0.1105  0.2648
19955TIP3    H181280   3.897   4.880   4.283 -0.8807 -0.4830 -0.1226
19955TIP3    H281281   3.861   4.949   4.413 -0.5351 -1.4464  0.4940
19956TIP3   OH281282   5.127   2.853   5.268  0.2920 -0.2586  0.0628
19956TIP3    H181283   5.073   2.831   5.344  0.9011 -0.7945  0.3473
19956TIP3    H281284   5.158   2.942   5.286  0.8520 -0.5697  0.7010
19957TIP3   OH281285   2.202   0.737  13.823 -0.2192  0.4230 -0.4177
19957TIP3    H181286   2.134   0.706  13.764 -0.0991  0.5140 -0.6066
19957TIP3    H281287   2.156   0.792  13.887 -0.2386  0.9769 -0.9034
19958TIP3   OH281288   6.661   6.573   0.184  0.1527  0.0020 -0.3888
19958TIP3    H181289   6.708   6.490   0.194 -0.6020 -0.5038 -0.8173
19958TIP3    H281290   6.657   6.609   0.272  0.0270 -0.6932 -0.0979
19959TIP3   OH281291   3.529   4.937   4.867  0.3016 -0.0430  0.1006
19959TIP3    H181292   3.594   4.902   4.805  1.1280  1.0659  0.3079
19959TIP3    H281293   3.499   5.018   4.827 -0.6993 -0.3562  0.1923
19960TIP3   OH281294   3.037   3.908  11.694 -0.2866 -0.1294 -0.2817
19960TIP3    H181295   3.076   3.879  11.776 -1.0576 -0.9829 -0.2001
19960TIP3    H281296   2.947   3.876  11.698 -0.5861  0.5843 -1.0748
19961TIP3   OH281297   3.762   6.557   1.669  0.0049  0.7903  0.0014
19961TIP3    H181298   3.737   6.468   1.645 -1.6603  1.1546  0.2862
19961TIP3    H281299   3.858   6.557   1.661  0.1329 -1.2432  0.7608
19962TIP3   OH281300   1.258   4.770  14.584 -0.2060  0.0086  0.1657
19962TIP3    H181301   1.340   4.746  14.542 -1.4037 -2.9546 -0.7830
19962TIP3    H281302   1.281   4.790  14.675  1.7002  0.8812 -0.4691
19963TIP3   OH281303   6.452   5.183  13.478 -0.0766 -0.2257 -0.1123
19963TIP3    H181304   6.369   5.225  13.502 -0.0430  1.5604 -2.7716
19963TIP3    H281305   6.427   5.120  13.410  0.5100 -1.2332  0.5847
19964TIP3   OH281306   4.731   3.758   4.784 -0.9122 -0.3081  0.0696
19964TIP3    H181307   4.693   3.742   4.698 -0.3900  0.4879 -0.3117
19964TIP3    H281308   4.801   3.693   4.792  1.6963  2.0621 -1.7778
19965TIP3   OH281309   5.434   2.553  16.187 -0.4234 -0.1148 -0.2363
19965TIP3    H181310   5.523   2.534  16.216 -0.7863 -0.9223  0.3729
19965TIP3    H281311   5.414   2.483  16.125 -0.3503  0.5363 -1.0264
19966LIG     O181312   1.882   1.722   0.122 -0.3870  0.1126  0.4992
19966LIG     O281313   1.953   1.829  -0.081  0.0630 -0.0064 -0.3002
19966LIG     O381314   2.122   1.660  -0.117 -0.4408  0.2668  0.0543
19966LIG     O481315   1.763   1.992   0.175 -0.4143  0.4263 -0.5240
19966LIG     O581316   2.033   2.001   0.293  0.4975  0.3883 -0.5342
19966LIG     O681317   1.823   1.701  -0.324 -0.2540  0.0062  0.1349
19966LIG     O781318   2.028   1.909  -0.339  0.1860  0.5609  0.4912
19966LIG     O881319   2.298   1.819  -0.396 -0.2479 -0.1071  0.5179
19966LIG     O981320   1.676   1.892  -0.154  0.8196 -0.1637  0.4089
19966LIG    O1081321   2.153   1.643   0.163 -0.8986  0.0639  0.4890
19966LIG    O1181322   2.413   1.602  -0.161  0.0764 -0.1276 -0.0041
19966LIG     C181323   1.857   1.827   0.021 -0.3027  0.4424 -0.3738
19966LIG     C281324   1.879   1.958   0.100 -0.2385  0.2077  0.6443
19966LIG     C381325   1.996   1.913   0.183 -0.1595  0.4284 -0.4547
19966LIG     C481326   1.958   1.780   0.229 -0.1935  0.4602  0.4860
19966LIG     C581327   1.987   1.696  -0.138  0.6097 -0.1877 -0.3863
19966LIG     C681328   1.959   1.684  -0.289 -0.3589  0.4529 -0.2217
19966LIG     C781329   2.061   1.771  -0.363  0.1295  0.5636 -0.2706
19966LIG     C881330   2.202   1.740  -0.323 -0.2050 -0.4105 -0.1672
19966LIG     C981331   2.214   1.754  -0.170  0.5269 -0.5683  0.1723
19966LIG    C1081332   1.716   1.813  -0.039  0.3767 -0.5104  0.7099
19966LIG    C1181333   2.075   1.687   0.270 -0.0165  0.8093  0.2436
19966LIG    C1281334   2.358   1.733  -0.121  0.5060  0.4695 -0.5901
19966LIG     H181335   1.903   2.049   0.043 -1.3074  0.5811  0.7812
19966LIG     H281336   2.088   1.902   0.123 -0.3828  1.3594 -0.9938
19966LIG     H381337   1.888   1.782   0.314 -0.0767 -2.8856  0.7749
19966LIG     H481338   1.927   1.620  -0.083 -0.5261 -0.0464 -1.4023
19966LIG     H581339   1.975   1.575  -0.304 -0.2371 -0.0239  2.7779
19966LIG     H681340   2.043   1.741  -0.469  0.9947  1.2983 -0.6449
19966LIG     H781341   2.221   1.635  -0.353 -1.6100 -0.6834 -0.1756
19966LIG     H881342   2.181   1.848  -0.120 -0.8237 -2.2460  2.6331
19966LIG     H981343   1.705   1.710  -0.078 -0.3586 -0.0738 -0.2614
19966LIG    H1081344   1.638   1.824   0.039 -2.4994 -0.1906 -2.0243
19966LIG    H1181345   2.135   1.730   0.353 -0.3993  1.4889  0.1802
19966LIG    H1281346   2.028   1.598   0.316 -0.4475  0.1960 -1.3243
19966LIG    H1381347   2.426   1.817  -0.147 -1.3356  2.0496 -0.4896
19966LIG    H1481348   2.359   1.733  -0.010 -0.9677 -1.3651 -0.5390
19966LIG    H1581349   1.776   2.086   0.193  0.7278  0.5469 -1.8305
19966LIG    H1681350   1.971   2.074   0.309 -0.7684 -1.0859  1.8749
19966LIG    H1781351   1.800   1.644  -0.398  2.5264  0.6664 -1.4013
19966LIG    H1881352   1.937   1.924  -0.368 -0.1645 -0.2051  1.1519
19966LIG    H1981353   2.277   1.798  -0.487 -1.2131  1.0198  0.4566
19966LIG    H2081354   1.733   1.852  -0.221  1.8155  2.1182 -0.1856
19966LIG    H2181355   2.089   1.618   0.096 -0.0082 -3.5809  0.7751
19966LIG    H2281356   2.501   1.585  -0.127 -0.5619 -3.6135  0.3478
   6.77668   6.77668  17.25935
