;;
;; Generated by CHARMM-GUI (http://www.charmm-gui.org) v1.7
;;
;; psf2itp_mol.py
;;
;; Correspondance:
;; jul316@lehigh.edu or wonpil@lehigh.edu
;;
;; GROMACS topology file for LIG
;;


[ moleculetype ]
; name	nrexcl
LIG	     3

[ atoms ]
; nr	type	resnr	residu	atom	cgnr	charge	mass
     1      SG311      1      LIG      S      1     -0.423    32.0600   ; qtot -0.423
     2      OG2D1      1      LIG     O1      2     -0.469    15.9994   ; qtot -0.892
     3      OG302      1      LIG     O2      3     -0.493    15.9994   ; qtot -1.385
     4      OG2D1      1      LIG     O3      4     -0.600    15.9994   ; qtot -1.985
     5      OG2D1      1      LIG     O4      5     -0.532    15.9994   ; qtot -2.517
     6      OG302      1      LIG     O5      6     -0.475    15.9994   ; qtot -2.992
     7      OG2D1      1      LIG     O6      7     -0.616    15.9994   ; qtot -3.608
     8     NG2R43      1      LIG     N1      8     -0.136    14.0070   ; qtot -3.744
     9      NG2S1      1      LIG     N2      9     -0.547    14.0070   ; qtot -4.291
    10      NG2S3      1      LIG     N3     10     -0.960    14.0070   ; qtot -5.251
    11     CG3RC1      1      LIG     C1     11      0.054    12.0110   ; qtot -5.197
    12     CG3C50      1      LIG     C2     12     -0.006    12.0110   ; qtot -5.203
    13     CG3C51      1      LIG     C3     13      0.033    12.0110   ; qtot -5.170
    14     CG3C41      1      LIG     C4     14      0.314    12.0110   ; qtot -4.856
    15     CG2R53      1      LIG     C5     15      0.254    12.0110   ; qtot -4.602
    16      CG331      1      LIG     C6     16     -0.142    12.0110   ; qtot -4.744
    17      CG331      1      LIG     C7     17     -0.142    12.0110   ; qtot -4.886
    18      CG2O2      1      LIG     C8     18      0.868    12.0110   ; qtot -4.018
    19      CG2O1      1      LIG     C9     19      0.515    12.0110   ; qtot -3.503
    20      CG321      1      LIG    C10     20     -0.090    12.0110   ; qtot -3.593
    21      CG321      1      LIG    C11     21      0.352    12.0110   ; qtot -3.241
    22     CG2R61      1      LIG    C12     22      0.117    12.0110   ; qtot -3.124
    23      CG301      1      LIG    C13     23     -0.116    12.0110   ; qtot -3.240
    24     CG2R61      1      LIG    C14     24      0.086    12.0110   ; qtot -3.154
    25     CG2R61      1      LIG    C15     25     -0.124    12.0110   ; qtot -3.278
    26      CG2O2      1      LIG    C16     26      0.938    12.0110   ; qtot -2.340
    27      CG331      1      LIG    C17     27     -0.269    12.0110   ; qtot -2.609
    28      CG331      1      LIG    C18     28     -0.269    12.0110   ; qtot -2.878
    29      CG331      1      LIG    C19     29     -0.269    12.0110   ; qtot -3.147
    30     CG2R61      1      LIG    C20     30     -0.091    12.0110   ; qtot -3.238
    31     CG2R61      1      LIG    C21     31     -0.107    12.0110   ; qtot -3.345
    32     CG2R61      1      LIG    C22     32     -0.117    12.0110   ; qtot -3.462
    33       HGA1      1      LIG     H1     33      0.090     1.0080   ; qtot -3.372
    34       HGA1      1      LIG     H2     34      0.090     1.0080   ; qtot -3.282
    35       HGA1      1      LIG     H3     35      0.090     1.0080   ; qtot -3.192
    36       HGA3      1      LIG     H4     36      0.090     1.0080   ; qtot -3.102
    37       HGA3      1      LIG     H5     37      0.090     1.0080   ; qtot -3.012
    38       HGA3      1      LIG     H6     38      0.090     1.0080   ; qtot -2.922
    39       HGA3      1      LIG     H7     39      0.090     1.0080   ; qtot -2.832
    40       HGA3      1      LIG     H8     40      0.090     1.0080   ; qtot -2.742
    41       HGA3      1      LIG     H9     41      0.090     1.0080   ; qtot -2.652
    42       HGP1      1      LIG    H10     42      0.316     1.0080   ; qtot -2.336
    43       HGA2      1      LIG    H11     43      0.090     1.0080   ; qtot -2.246
    44       HGA2      1      LIG    H12     44      0.090     1.0080   ; qtot -2.156
    45       HGA2      1      LIG    H13     45      0.090     1.0080   ; qtot -2.066
    46       HGA2      1      LIG    H14     46      0.090     1.0080   ; qtot -1.976
    47      HGR61      1      LIG    H15     47      0.115     1.0080   ; qtot -1.861
    48       HGA3      1      LIG    H16     48      0.090     1.0080   ; qtot -1.771
    49       HGA3      1      LIG    H17     49      0.090     1.0080   ; qtot -1.681
    50       HGA3      1      LIG    H18     50      0.090     1.0080   ; qtot -1.591
    51       HGA3      1      LIG    H19     51      0.090     1.0080   ; qtot -1.501
    52       HGA3      1      LIG    H20     52      0.090     1.0080   ; qtot -1.411
    53       HGA3      1      LIG    H21     53      0.090     1.0080   ; qtot -1.321
    54       HGA3      1      LIG    H22     54      0.090     1.0080   ; qtot -1.231
    55       HGA3      1      LIG    H23     55      0.090     1.0080   ; qtot -1.141
    56       HGA3      1      LIG    H24     56      0.090     1.0080   ; qtot -1.051
    57      HGR61      1      LIG    H25     57      0.115     1.0080   ; qtot -0.936
    58      HGR61      1      LIG    H26     58      0.115     1.0080   ; qtot -0.821
    59      HGR61      1      LIG    H27     59      0.115     1.0080   ; qtot -0.706
    60       HGP4      1      LIG    H28     60      0.353     1.0080   ; qtot -0.353
    61       HGP4      1      LIG    H29     61      0.353     1.0080   ; qtot -0.000

[ bonds ]
; ai	aj	funct	b0	Kb
    1    11     1
    1    12     1
    2    15     1
    3    18     1
    3    21     1
    4    18     1
    5    19     1
    6    21     1
    6    26     1
    7    26     1
    8    11     1
    8    13     1
    8    15     1
    9    14     1
    9    19     1
    9    42     1
   10    24     1
   10    60     1
   10    61     1
   11    14     1
   11    33     1
   12    13     1
   12    16     1
   12    17     1
   13    18     1
   13    34     1
   14    15     1
   14    35     1
   16    36     1
   16    37     1
   16    38     1
   17    39     1
   17    40     1
   17    41     1
   19    20     1
   20    22     1
   20    43     1
   20    44     1
   21    45     1
   21    46     1
   22    24     1
   22    25     1
   23    26     1
   23    27     1
   23    28     1
   23    29     1
   24    30     1
   25    31     1
   25    47     1
   27    48     1
   27    49     1
   27    50     1
   28    51     1
   28    52     1
   28    53     1
   29    54     1
   29    55     1
   29    56     1
   30    32     1
   30    57     1
   31    32     1
   31    58     1
   32    59     1

[ pairs ]
; ai	aj	funct	c6	c12
    1     9     1 
    1    15     1 
    1    18     1 
    1    34     1 
    1    35     1 
    1    36     1 
    1    37     1 
    1    38     1 
    1    39     1 
    1    40     1 
    1    41     1 
    2     9     1 
    2    11     1 
    2    13     1 
    2    35     1 
    3     8     1 
    3    12     1 
    3    26     1 
    3    34     1 
    4     8     1 
    4    12     1 
    4    21     1 
    4    34     1 
    5    14     1 
    5    22     1 
    5    42     1 
    5    43     1 
    5    44     1 
    6    18     1 
    6    27     1 
    6    28     1 
    6    29     1 
    7    21     1 
    7    27     1 
    7    28     1 
    7    29     1 
    8     9     1 
    8    11     1 
    8    15     1 
    8    16     1 
    8    17     1 
    8    35     1 
    9    22     1 
    9    33     1 
    9    43     1 
    9    44     1 
   10    20     1 
   10    25     1 
   10    32     1 
   10    57     1 
   11    14     1 
   11    16     1 
   11    17     1 
   11    18     1 
   11    19     1 
   11    34     1 
   11    42     1 
   12    14     1 
   12    15     1 
   12    33     1 
   13    14     1 
   13    21     1 
   13    33     1 
   13    36     1 
   13    37     1 
   13    38     1 
   13    39     1 
   13    40     1 
   13    41     1 
   14    15     1 
   14    20     1 
   15    18     1 
   15    19     1 
   15    33     1 
   15    34     1 
   15    42     1 
   16    18     1 
   16    34     1 
   16    39     1 
   16    40     1 
   16    41     1 
   17    18     1 
   17    34     1 
   17    36     1 
   17    37     1 
   17    38     1 
   18    45     1 
   18    46     1 
   19    24     1 
   19    25     1 
   19    35     1 
   20    30     1 
   20    31     1 
   20    42     1 
   20    47     1 
   21    23     1 
   22    32     1 
   22    57     1 
   22    58     1 
   22    60     1 
   22    61     1 
   24    31     1 
   24    43     1 
   24    44     1 
   24    47     1 
   24    59     1 
   25    30     1 
   25    43     1 
   25    44     1 
   25    59     1 
   26    45     1 
   26    46     1 
   26    48     1 
   26    49     1 
   26    50     1 
   26    51     1 
   26    52     1 
   26    53     1 
   26    54     1 
   26    55     1 
   26    56     1 
   27    51     1 
   27    52     1 
   27    53     1 
   27    54     1 
   27    55     1 
   27    56     1 
   28    48     1 
   28    49     1 
   28    50     1 
   28    54     1 
   28    55     1 
   28    56     1 
   29    48     1 
   29    49     1 
   29    50     1 
   29    51     1 
   29    52     1 
   29    53     1 
   30    58     1 
   30    60     1 
   30    61     1 
   31    57     1 
   32    47     1 
   33    35     1 
   35    42     1 
   47    58     1 
   57    59     1 
   58    59     1 

[ angles ] 
; ai	aj	ak	funct	th0	cth	S0	Kub
   11     1    12     5
   18     3    21     5
   21     6    26     5
   11     8    13     5
   11     8    15     5
   13     8    15     5
   14     9    19     5
   14     9    42     5
   19     9    42     5
   24    10    60     5
   24    10    61     5
   60    10    61     5
    1    11     8     5
    1    11    14     5
    1    11    33     5
    8    11    14     5
    8    11    33     5
   14    11    33     5
    1    12    13     5
    1    12    16     5
    1    12    17     5
   13    12    16     5
   13    12    17     5
   16    12    17     5
    8    13    12     5
    8    13    18     5
    8    13    34     5
   12    13    18     5
   12    13    34     5
   18    13    34     5
    9    14    11     5
    9    14    15     5
    9    14    35     5
   11    14    15     5
   11    14    35     5
   15    14    35     5
    2    15     8     5
    2    15    14     5
    8    15    14     5
   12    16    36     5
   12    16    37     5
   12    16    38     5
   36    16    37     5
   36    16    38     5
   37    16    38     5
   12    17    39     5
   12    17    40     5
   12    17    41     5
   39    17    40     5
   39    17    41     5
   40    17    41     5
    3    18     4     5
    3    18    13     5
    4    18    13     5
    5    19     9     5
    5    19    20     5
    9    19    20     5
   19    20    22     5
   19    20    43     5
   19    20    44     5
   22    20    43     5
   22    20    44     5
   43    20    44     5
    3    21     6     5
    3    21    45     5
    3    21    46     5
    6    21    45     5
    6    21    46     5
   45    21    46     5
   20    22    24     5
   20    22    25     5
   24    22    25     5
   26    23    27     5
   26    23    28     5
   26    23    29     5
   27    23    28     5
   27    23    29     5
   28    23    29     5
   10    24    22     5
   10    24    30     5
   22    24    30     5
   22    25    31     5
   22    25    47     5
   31    25    47     5
    6    26     7     5
    6    26    23     5
    7    26    23     5
   23    27    48     5
   23    27    49     5
   23    27    50     5
   48    27    49     5
   48    27    50     5
   49    27    50     5
   23    28    51     5
   23    28    52     5
   23    28    53     5
   51    28    52     5
   51    28    53     5
   52    28    53     5
   23    29    54     5
   23    29    55     5
   23    29    56     5
   54    29    55     5
   54    29    56     5
   55    29    56     5
   24    30    32     5
   24    30    57     5
   32    30    57     5
   25    31    32     5
   25    31    58     5
   32    31    58     5
   30    32    31     5
   30    32    59     5
   31    32    59     5

[ dihedrals ]
; ai	aj	ak	al	funct	phi0	cp	mult
   12     1    11    14     9
   12     1    11    33     9
   11     1    12    13     9
   11     1    12    16     9
   11     1    12    17     9
   18     3    21    45     9
   18     3    21    46     9
   26     6    21    45     9
   26     6    21    46     9
   21     6    26    23     9
   13     8    11    14     9
   13     8    11    33     9
   15     8    11    33     9
   11     8    13    12     9
   11     8    13    18     9
   11     8    13    34     9
   15     8    13    18     9
   15     8    13    34     9
   11     8    15    14     9
   13     8    15    14     9
   19     9    14    35     9
   14     9    19    20     9
    8    11     1    12     9
    1    11     8    13     9
    1    11     8    15     9
   14    11     8    15     9
    1    11    14     9     9
    1    11    14    15     9
    1    11    14    35     9
    8    11    14     9     9
    8    11    14    15     9
    8    11    14    35     9
   33    11    14    35     9
    1    12    13     8     9
    1    12    13    18     9
    1    12    13    34     9
   16    12    13    18     9
   16    12    13    34     9
   17    12    13    18     9
   17    12    13    34     9
    1    12    16    36     9
    1    12    16    37     9
    1    12    16    38     9
   13    12    16    36     9
   13    12    16    37     9
   13    12    16    38     9
   17    12    16    36     9
   17    12    16    37     9
   17    12    16    38     9
    1    12    17    39     9
    1    12    17    40     9
    1    12    17    41     9
   13    12    17    39     9
   13    12    17    40     9
   13    12    17    41     9
   16    12    17    39     9
   16    12    17    40     9
   16    12    17    41     9
   12    13     8    15     9
    8    13    12    16     9
    8    13    12    17     9
   11    14     9    19     9
   11    14     9    42     9
   15    14     9    19     9
   15    14     9    42     9
   35    14     9    42     9
    9    14    11    33     9
   15    14    11    33     9
    2    15     8    11     9
    2    15     8    13     9
    2    15    14     9     9
    2    15    14    11     9
    2    15    14    35     9
    8    15    14     9     9
    8    15    14    11     9
    8    15    14    35     9
    4    18     3    21     9
   13    18     3    21     9
    3    18    13     8     9
    3    18    13    12     9
    3    18    13    34     9
    4    18    13     8     9
    4    18    13    12     9
    4    18    13    34     9
    5    19     9    14     9
    5    19     9    42     9
   20    19     9    42     9
    5    19    20    22     9
    5    19    20    43     9
    5    19    20    44     9
    9    19    20    22     9
    9    19    20    43     9
    9    19    20    44     9
   19    20    22    24     9
   19    20    22    25     9
    6    21     3    18     9
    3    21     6    26     9
   24    22    20    43     9
   24    22    20    44     9
   25    22    20    43     9
   25    22    20    44     9
   20    22    24    30     9
   25    22    24    30     9
   20    22    25    31     9
   20    22    25    47     9
   24    22    25    31     9
   24    22    25    47     9
   26    23    27    48     9
   26    23    27    49     9
   26    23    27    50     9
   28    23    27    48     9
   28    23    27    49     9
   28    23    27    50     9
   29    23    27    48     9
   29    23    27    49     9
   29    23    27    50     9
   26    23    28    51     9
   26    23    28    52     9
   26    23    28    53     9
   27    23    28    51     9
   27    23    28    52     9
   27    23    28    53     9
   29    23    28    51     9
   29    23    28    52     9
   29    23    28    53     9
   26    23    29    54     9
   26    23    29    55     9
   26    23    29    56     9
   27    23    29    54     9
   27    23    29    55     9
   27    23    29    56     9
   28    23    29    54     9
   28    23    29    55     9
   28    23    29    56     9
   22    24    10    60     9
   22    24    10    61     9
   30    24    10    60     9
   30    24    10    61     9
   10    24    22    20     9
   10    24    22    25     9
   10    24    30    32     9
   10    24    30    57     9
   22    24    30    32     9
   22    24    30    57     9
   22    25    31    32     9
   22    25    31    58     9
   47    25    31    58     9
    7    26     6    21     9
    6    26    23    27     9
    6    26    23    28     9
    6    26    23    29     9
    7    26    23    27     9
    7    26    23    28     9
    7    26    23    29     9
   24    30    32    31     9
   24    30    32    59     9
   57    30    32    59     9
   32    31    25    47     9
   25    31    32    30     9
   25    31    32    59     9
   58    31    32    59     9
   31    32    30    57     9
   30    32    31    58     9

[ dihedrals ]
; ai	aj	ak	al	funct	q0	cq
   10    61    60    24     2
   15    14     8     2     2
   18    13     4     3     2
   19    20     9     5     2
   26    23     7     6     2
